Title
82260
    1SAPS     N    1   0.279   3.341  11.132 -0.2288 -0.5643  0.2605
    1SAPS   HN1    2   0.323   3.266  11.076 -1.2541  1.1897 -3.1485
    1SAPS   HN2    3   0.339   3.365  11.214  0.2945  1.4829 -0.6542
    1SAPS   HN3    4   0.193   3.299  11.173  1.3543 -2.8530  1.4532
    1SAPS   C12    5   0.243   3.480  11.068  0.7307  0.2943 -0.3983
    1SAPS  H12A    6   0.190   3.538  11.142 -1.1841 -1.4863 -0.2873
    1SAPS   C13    7   0.359   3.557  11.009 -0.3085 -0.3230 -0.3651
    1SAPS  O13A    8   0.468   3.495  10.992  0.2743 -0.1253 -0.7627
    1SAPS  O13B    9   0.341   3.673  10.970 -0.4260 -0.0334  0.5497
    1SAPS   C11   10   0.143   3.451  10.947 -0.0069 -0.4904 -0.1238
    1SAPS  H11A   11   0.197   3.389  10.872  0.0244 -0.4020 -0.1763
    1SAPS  H11B   12   0.125   3.551  10.902 -0.3839 -1.2388 -1.7180
    1SAPS     P   13  -0.104   3.386  10.909 -0.2976  0.2474  0.5050
    1SAPS   O13   14  -0.113   3.252  10.847 -0.7980 -0.9436  0.2392
    1SAPS   O14   15  -0.227   3.422  10.977 -0.2542 -0.1486  0.2313
    1SAPS   O12   16   0.026   3.393  10.999  0.4289  0.0416  0.2833
    1SAPS   O11   17  -0.095   3.499  10.802  0.0838  0.0173  0.4211
    1SAPS    C1   18  -0.128   3.480  10.663 -0.7407 -0.2655  0.5144
    1SAPS    HA   19  -0.154   3.373  10.650  2.2703 -1.3022  2.0006
    1SAPS    HB   20  -0.206   3.554  10.635  0.5697  0.3051 -1.8281
    1SAPS    C2   21  -0.008   3.516  10.567  0.0047 -0.6949 -0.0909
    1SAPS    HS   22   0.084   3.467  10.607  1.3902  1.5827 -0.3494
    1SAPS   O21   23   0.004   3.658  10.553 -0.9583 -0.1541  0.3594
    1SAPS   C21   24   0.107   3.699  10.481 -0.3917 -0.9900 -0.0486
    1SAPS   O22   25   0.201   3.626  10.439  0.0828 -0.5136 -0.7276
    1SAPS   C22   26   0.088   3.851  10.443 -0.3770 -0.6489  0.3197
    1SAPS   H2R   27  -0.014   3.894  10.437  1.3759  3.9438  0.0574
    1SAPS   H2S   28   0.134   3.910  10.525  2.1599 -2.1148  0.0501
    1SAPS    C3   29  -0.044   3.449  10.427  0.1304  0.7135  0.1573
    1SAPS    HX   30  -0.091   3.350  10.442 -0.7647  1.1002  0.0282
    1SAPS    HY   31   0.051   3.422  10.376  0.3852  1.2183  0.3534
    1SAPS   O31   32  -0.124   3.532  10.340  0.5493  0.1656 -0.5456
    1SAPS   C31   33  -0.248   3.488  10.324 -0.0888 -0.5589  0.2501
    1SAPS   O32   34  -0.302   3.392  10.378 -0.0119  0.1284 -0.1316
    1SAPS   C32   35  -0.327   3.583  10.226 -0.1766  0.3621  0.1591
    1SAPS   H2X   36  -0.261   3.670  10.204  0.2289  1.0218  3.4464
    1SAPS   H2Y   37  -0.416   3.615  10.283  0.6393  1.3008  0.9566
    1SAPS   C23   38   0.165   3.891  10.314  0.8902 -0.0973 -0.1738
    1SAPS   H3R   39   0.272   3.861  10.312  1.0413  0.2878  1.0205
    1SAPS   H3S   40   0.143   3.999  10.308  0.0724 -0.3356 -2.9266
    1SAPS   C24   41   0.083   3.841  10.192  0.8365 -0.1925  1.1584
    1SAPS   H4R   42   0.141   3.889  10.110  1.3017 -0.5997  1.2457
    1SAPS   H4S   43  -0.016   3.890  10.205  0.3271 -1.2417  1.3545
    1SAPS   C25   44   0.062   3.697  10.156  0.6547  0.2170 -0.7406
    1SAPS   H5R   45  -0.014   3.646  10.218  2.0437  1.0819  1.8233
    1SAPS   C26   46   0.113   3.628  10.053 -0.6809 -0.3030 -0.5021
    1SAPS   H6R   47   0.096   3.519  10.044  3.1440 -0.9979 -1.1912
    1SAPS   C27   48   0.194   3.692   9.945 -0.2248  0.1378 -0.3757
    1SAPS   H7R   49   0.269   3.618   9.910 -0.9773 -0.2900 -1.1218
    1SAPS   H7S   50   0.256   3.776   9.982  2.0810 -1.1078 -1.2419
    1SAPS   C28   51   0.110   3.739   9.828  0.6336 -0.5502  0.2552
    1SAPS   H8R   52   0.015   3.788   9.854  1.0262  1.2309 -1.4463
    1SAPS   C29   53   0.149   3.740   9.701  0.1096  0.0467  0.1774
    1SAPS   H9R   54   0.075   3.779   9.630 -0.8134  0.3370  1.2698
    1SAPS  C210   55   0.290   3.703   9.651 -0.4105 -0.3902  0.1360
    1SAPS  H10R   56   0.367   3.700   9.731 -0.5013 -1.8801  0.1944
    1SAPS  H10S   57   0.316   3.777   9.572 -2.0518 -0.2094 -0.2556
    1SAPS  C211   58   0.290   3.575   9.583 -0.3676  0.3297  0.5421
    1SAPS  H11R   59   0.305   3.486   9.646  1.3778 -1.3200 -2.0402
    1SAPS  C212   60   0.267   3.555   9.450 -0.6400  0.1080 -0.7261
    1SAPS  H12R   61   0.282   3.453   9.412 -0.7821 -0.0306 -0.4117
    1SAPS  C213   62   0.238   3.661   9.351  0.1459  0.0895  0.6187
    1SAPS  H13R   63   0.184   3.748   9.394 -0.2317  0.5195 -0.7056
    1SAPS  H13S   64   0.169   3.618   9.276 -1.2440  0.6751  1.5298
    1SAPS  C214   65   0.363   3.706   9.286  0.2363  0.2070  0.2075
    1SAPS  H14R   66   0.434   3.752   9.356  0.1071 -1.5025  1.5297
    1SAPS  C215   67   0.389   3.704   9.154  0.9794 -0.7065  0.2140
    1SAPS  H15R   68   0.482   3.755   9.123  0.8068  0.3431  1.3536
    1SAPS  C216   69   0.299   3.650   9.042  0.1851  0.1750 -0.4105
    1SAPS  H16R   70   0.247   3.558   9.074 -0.8178  0.8117 -0.1554
    1SAPS  H16S   71   0.377   3.605   8.977  1.1828  2.1176 -0.6537
    1SAPS  C217   72   0.217   3.750   8.955  0.2222  0.1678  0.2466
    1SAPS  H17R   73   0.192   3.704   8.857 -2.8455 -0.9784  1.4454
    1SAPS  H17S   74   0.293   3.827   8.927  0.1149 -0.7489 -3.0085
    1SAPS  C218   75   0.093   3.807   9.021  0.5205 -0.2391  0.0391
    1SAPS  H18R   76   0.114   3.826   9.128 -1.4501  0.3654  0.3584
    1SAPS  H18S   77   0.006   3.737   9.019 -0.1139  0.5125  0.6341
    1SAPS  C219   78   0.048   3.942   8.953 -0.4875  0.9708  0.2114
    1SAPS  H19R   79   0.131   4.015   8.948 -1.6002  2.3273  0.8379
    1SAPS  H19S   80  -0.031   3.993   9.013 -0.8030  0.2991  0.3729
    1SAPS  C220   81  -0.005   3.919   8.813 -0.3922 -0.6023  0.4061
    1SAPS  H20R   82   0.087   3.894   8.756 -0.6216  0.7883 -0.6283
    1SAPS  H20S   83  -0.035   4.019   8.773 -0.9433 -0.8925  0.0815
    1SAPS  H20T   84  -0.082   3.842   8.793 -1.6598  1.1745 -2.1167
    1SAPS   C33   85  -0.364   3.519  10.092 -0.2716 -0.3745 -0.2245
    1SAPS   H3X   86  -0.427   3.589  10.034  0.6728  0.8864  0.2350
    1SAPS   H3Y   87  -0.416   3.423  10.112 -0.4116 -0.1774  0.3681
    1SAPS   C34   88  -0.238   3.490  10.008  0.0392  0.2558 -0.2343
    1SAPS   H4X   89  -0.183   3.410  10.061 -1.4621 -1.0505 -0.5550
    1SAPS   H4Y   90  -0.175   3.581  10.000 -1.3387  1.6712  3.1818
    1SAPS   C35   91  -0.277   3.443   9.869  0.3660  1.0298  0.3368
    1SAPS   H5X   92  -0.347   3.520   9.828  0.6560  2.5490  2.4799
    1SAPS   H5Y   93  -0.346   3.357   9.878  1.3814 -0.0294 -1.5936
    1SAPS   C36   94  -0.158   3.434   9.769  0.0359 -0.6451  0.5091
    1SAPS   H6X   95  -0.087   3.361   9.815  0.1033  0.0237  1.5019
    1SAPS   H6Y   96  -0.113   3.533   9.751 -1.5678  0.0455  0.1002
    1SAPS   C37   97  -0.200   3.402   9.622  0.5432  0.2902 -0.7681
    1SAPS   H7X   98  -0.256   3.493   9.589 -0.1035 -0.0083 -0.5232
    1SAPS   H7Y   99  -0.256   3.306   9.627  2.8552 -1.0779  2.6739
    1SAPS   C38  100  -0.082   3.386   9.513  0.4245 -0.2735  0.1111
    1SAPS   H8X  101  -0.052   3.280   9.525  2.1705  0.3467  1.4929
    1SAPS   H8Y  102   0.001   3.450   9.549  1.1515 -0.7720 -0.6543
    1SAPS   C39  103  -0.106   3.421   9.366  0.5331  0.3525  0.0182
    1SAPS   H9X  104  -0.072   3.526   9.351  0.8138  0.5546  1.9113
    1SAPS   H9Y  105  -0.213   3.433   9.339  0.5941  1.9347  0.3943
    1SAPS  C310  106  -0.031   3.331   9.263  0.0910  0.2668 -0.4591
    1SAPS  H10X  107  -0.086   3.234   9.271 -0.2696  0.6218  1.9950
    1SAPS  H10Y  108   0.077   3.320   9.286 -0.1943  0.3637  1.0325
    1SAPS  C311  109  -0.033   3.404   9.125  0.0817 -0.5343  0.0077
    1SAPS  H11X  110   0.030   3.357   9.046  0.8375  1.2212 -0.4704
    1SAPS  H11Y  111   0.021   3.500   9.134  0.3785 -0.5727 -1.1463
    1SAPS  C312  112  -0.174   3.426   9.057  0.4701  0.4232 -0.0093
    1SAPS  H12X  113  -0.239   3.491   9.120  0.1350 -0.0710  0.1672
    1SAPS  H12Y  114  -0.221   3.326   9.049  1.7412 -0.2663  0.8277
    1SAPS  C313  115  -0.166   3.489   8.917 -0.3870  0.1532 -0.0674
    1SAPS  H13X  116  -0.099   3.578   8.921 -0.4617  0.5458 -3.8198
    1SAPS  H13Y  117  -0.262   3.539   8.893 -1.0686 -0.8524  0.4862
    1SAPS  C314  118  -0.136   3.388   8.797  0.1445 -0.3449  0.3587
    1SAPS  H14X  119  -0.198   3.295   8.798  1.1147 -1.0293 -0.6540
    1SAPS  H14Y  120  -0.030   3.354   8.799  1.5023  3.0646 -2.6047
    1SAPS  C315  121  -0.127   3.454   8.660  0.1104  0.3848 -0.1200
    1SAPS  H15X  122  -0.062   3.392   8.595 -0.3828  0.8640 -1.0854
    1SAPS  H15Y  123  -0.066   3.547   8.663  1.6331 -0.5983  0.8648
    1SAPS  C316  124  -0.267   3.480   8.592  0.0635 -0.2628 -0.2604
    1SAPS  H16X  125  -0.323   3.553   8.654 -1.2466 -1.9363  0.6298
    1SAPS  H16Y  126  -0.320   3.383   8.585  2.0899 -1.3734 -1.2703
    1SAPS  C317  127  -0.248   3.531   8.448  0.2911  0.2161 -0.0943
    1SAPS  H17X  128  -0.192   3.458   8.386 -0.0840  0.0697 -0.2600
    1SAPS  H17Y  129  -0.179   3.619   8.450  0.5732 -0.0057  0.0357
    1SAPS  C318  130  -0.378   3.569   8.387 -0.2339  0.0116  0.5860
    1SAPS  H18X  131  -0.451   3.488   8.368  0.4291 -0.6285  0.7313
    1SAPS  H18Y  132  -0.362   3.599   8.282 -0.4623  0.7310  0.7560
    1SAPS  H18Z  133  -0.424   3.649   8.448 -0.3423 -0.4559  1.1285
    2SAPS     N  134   5.674   2.547  10.978 -0.3277  0.5126  0.5002
    2SAPS   HN1  135   5.758   2.490  11.003 -1.9174 -2.3648 -0.3014
    2SAPS   HN2  136   5.619   2.590  11.055 -0.9425  0.2551  0.2136
    2SAPS   HN3  137   5.607   2.487  10.927 -0.2023 -0.0644  0.9983
    2SAPS   C12  138   5.711   2.657  10.890 -0.0135  0.6831  0.9204
    2SAPS  H12A  139   5.625   2.722  10.890  0.9326  1.9670  1.3099
    2SAPS   C13  140   5.817   2.753  10.959  0.1591  0.1526 -0.0765
    2SAPS  O13A  141   5.864   2.742  11.075  0.0224  0.0586  0.0491
    2SAPS  O13B  142   5.849   2.851  10.881 -0.1115  0.4276  0.2196
    2SAPS   C11  143   5.753   2.613  10.741 -0.8335 -0.2811 -1.0309
    2SAPS  H11A  144   5.843   2.551  10.757 -1.3318 -0.3977  1.9667
    2SAPS  H11B  145   5.790   2.708  10.695  4.3163 -0.4964  1.9476
    2SAPS     P  146   5.576   2.602  10.560 -0.0920  0.0224  0.0798
    2SAPS   O13  147   5.467   2.514  10.513  0.1945  0.6610  0.9294
    2SAPS   O14  148   5.546   2.737  10.611  0.2024 -0.0821  0.6752
    2SAPS   O12  149   5.655   2.538  10.671 -0.4258 -0.0756 -0.2813
    2SAPS   O11  150   5.689   2.623  10.449 -0.2965 -0.3316 -0.0485
    2SAPS    C1  151   5.773   2.515  10.404  0.6764  0.3435  0.0466
    2SAPS    HA  152   5.879   2.537  10.428  0.6652 -0.3796  0.8324
    2SAPS    HB  153   5.774   2.426  10.470  2.2450  1.5711  1.7967
    2SAPS    C2  154   5.752   2.485  10.255 -0.3552 -0.1491  0.6630
    2SAPS    HS  155   5.823   2.405  10.224 -0.8809 -0.1872 -0.4980
    2SAPS   O21  156   5.769   2.596  10.165  0.0450 -0.0014 -0.0033
    2SAPS   C21  157   5.890   2.642  10.149 -1.1887  0.5461  0.5988
    2SAPS   O22  158   5.990   2.606  10.211 -0.6015 -0.1440  0.1875
    2SAPS   C22  159   5.893   2.732  10.029 -0.0721  0.2122  0.2237
    2SAPS   H2R  160   5.834   2.674   9.955 -0.6209  1.0570 -0.0242
    2SAPS   H2S  161   5.821   2.811  10.061 -1.1049 -0.6088 -0.0234
    2SAPS    C3  162   5.611   2.418  10.231  0.9521 -0.2128  0.1855
    2SAPS    HX  163   5.539   2.502  10.244  1.4516 -0.0728  2.5383
    2SAPS    HY  164   5.600   2.345  10.314 -0.7690 -0.0661  0.1202
    2SAPS   O31  165   5.603   2.357  10.099  1.2113 -0.2178 -0.4169
    2SAPS   C31  166   5.506   2.268  10.084  1.1131 -0.1666  0.0018
    2SAPS   O32  167   5.431   2.240  10.180  0.2664  0.0877 -0.2735
    2SAPS   C32  168   5.510   2.212   9.943  0.5018 -0.0314  0.4296
    2SAPS   H2X  169   5.555   2.110   9.942  0.0593 -0.2314 -0.6837
    2SAPS   H2Y  170   5.573   2.280   9.882 -0.6348 -0.5308 -1.3587
    2SAPS   C23  171   6.019   2.790   9.969 -0.1707  0.0717 -0.9964
    2SAPS   H3R  172   6.090   2.705   9.978  1.1320  1.1587 -0.6983
    2SAPS   H3S  173   6.047   2.874  10.036  0.0632 -2.0208  1.6666
    2SAPS   C24  174   6.007   2.832   9.825  0.0832 -0.0127  0.8784
    2SAPS   H4R  175   5.987   2.736   9.773 -0.0441 -0.3461  1.5443
    2SAPS   H4S  176   6.107   2.868   9.791  0.3943 -1.7578 -0.1955
    2SAPS   C25  177   5.886   2.916   9.791 -0.0847 -0.1429 -0.1379
    2SAPS   H5R  178   5.792   2.861   9.797 -0.9067  1.2236  0.0798
    2SAPS   C26  179   5.885   3.050   9.758  0.0367 -0.3050 -0.7302
    2SAPS   H6R  180   5.789   3.103   9.746  0.1313  0.4919  1.4193
    2SAPS   C27  181   6.005   3.139   9.731  0.2438 -0.5598  0.5358
    2SAPS   H7R  182   5.976   3.203   9.644  0.1647 -3.1118 -1.4211
    2SAPS   H7S  183   6.097   3.087   9.697  1.7875  2.4876 -0.3911
    2SAPS   C28  184   6.038   3.215   9.855  0.1728  0.5970  0.1751
    2SAPS   H8R  185   6.006   3.161   9.945  2.0436  0.2296  0.6604
    2SAPS   C29  186   6.093   3.335   9.873  0.5821  0.1085 -0.5714
    2SAPS   H9R  187   6.104   3.380   9.973  1.8968 -3.3362  0.9766
    2SAPS  C210  188   6.131   3.427   9.763 -0.4877 -0.1611 -0.4989
    2SAPS  H10R  189   6.191   3.367   9.691  0.0703 -0.6127  0.3294
    2SAPS  H10S  190   6.201   3.497   9.813 -3.1400 -0.4448  4.2605
    2SAPS  C211  191   6.028   3.500   9.681  0.0829  0.3495 -0.4637
    2SAPS  H11R  192   5.949   3.547   9.741  0.2765 -0.6735  0.6524
    2SAPS  C212  193   6.037   3.517   9.552  0.3140 -0.9956  0.6028
    2SAPS  H12R  194   5.953   3.567   9.502 -0.5429 -2.4789  0.5325
    2SAPS  C213  195   6.150   3.477   9.461  0.0633  0.2530  0.3182
    2SAPS  H13R  196   6.106   3.410   9.385 -2.0591  1.4521  0.4201
    2SAPS  H13S  197   6.243   3.437   9.507 -0.1406  1.6399  2.0432
    2SAPS  C214  198   6.191   3.604   9.387 -0.6334  0.2400  0.1485
    2SAPS  H14R  199   6.251   3.673   9.448  0.7963 -1.6655  0.9689
    2SAPS  C215  200   6.192   3.634   9.255 -0.8202 -0.6676  0.2600
    2SAPS  H15R  201   6.240   3.731   9.232  0.4509 -1.6486 -1.4662
    2SAPS  C216  202   6.138   3.560   9.135  0.2449  0.3981 -0.8229
    2SAPS  H16R  203   6.081   3.615   9.058 -2.2084  0.2098  0.7605
    2SAPS  H16S  204   6.072   3.477   9.168  1.2635 -0.7429 -1.5371
    2SAPS  C217  205   6.260   3.496   9.066 -0.4572  0.0304  0.1455
    2SAPS  H17R  206   6.332   3.461   9.142 -1.1745 -0.4430  0.6278
    2SAPS  H17S  207   6.319   3.564   9.002  0.0239  1.1260  1.7109
    2SAPS  C218  208   6.214   3.378   8.983 -0.1305  0.4778  0.3908
    2SAPS  H18R  209   6.154   3.426   8.904 -1.7474  2.2529  2.5519
    2SAPS  H18S  210   6.157   3.311   9.050  1.1508  1.3351  2.4545
    2SAPS  C219  211   6.332   3.291   8.921 -0.4849 -0.4514 -0.4266
    2SAPS  H19R  212   6.391   3.241   9.002  1.3928  1.6466 -0.3993
    2SAPS  H19S  213   6.412   3.346   8.868  1.4610 -3.1610 -0.5424
    2SAPS  C220  214   6.280   3.186   8.827 -0.6694  0.3728 -0.0122
    2SAPS  H20R  215   6.200   3.116   8.860  0.8190 -2.9893 -2.8465
    2SAPS  H20S  216   6.368   3.127   8.793 -1.1879 -0.4947  0.1173
    2SAPS  H20T  217   6.230   3.248   8.749 -1.6774 -0.8393 -0.3676
    2SAPS   C33  218   5.369   2.192   9.878 -0.6602  0.3749  0.2430
    2SAPS   H3X  219   5.389   2.187   9.769 -0.3502 -1.6190  0.3623
    2SAPS   H3Y  220   5.299   2.275   9.899  2.0600  2.5022  1.6027
    2SAPS   C34  221   5.305   2.071   9.941 -0.1010  0.3131  0.5983
    2SAPS   H4X  222   5.287   2.092  10.049  2.6934  2.9621  0.6830
    2SAPS   H4Y  223   5.375   1.986   9.936 -0.2394  0.1210  1.7024
    2SAPS   C35  224   5.166   2.033   9.887  0.2639 -0.0238  0.6446
    2SAPS   H5X  225   5.094   2.111   9.920 -1.5211 -0.8184 -1.2128
    2SAPS   H5Y  226   5.136   1.942   9.942  1.1428 -0.4060  0.5019
    2SAPS   C36  227   5.166   2.022   9.734  0.6657  0.1625 -0.5427
    2SAPS   H6X  228   5.241   2.085   9.682 -0.1210  0.3930 -1.4141
    2SAPS   H6Y  229   5.077   2.076   9.697 -0.0559 -0.0548  0.8053
    2SAPS   C37  230   5.176   1.880   9.680 -0.4449 -0.6436  0.1980
    2SAPS   H7X  231   5.094   1.818   9.722 -0.1669  0.5294  2.6647
    2SAPS   H7Y  232   5.270   1.843   9.726  0.3717  0.7129 -0.3229
    2SAPS   C38  233   5.189   1.870   9.524  0.8993  0.3639  0.6653
    2SAPS   H8X  234   5.098   1.919   9.483  0.2623 -0.8278  0.6060
    2SAPS   H8Y  235   5.195   1.766   9.484  0.1348  0.5578  0.0144
    2SAPS   C39  236   5.304   1.941   9.454  0.1463  0.4044  0.9682
    2SAPS   H9X  237   5.399   1.918   9.508  0.6766 -1.3826 -0.6521
    2SAPS   H9Y  238   5.289   2.051   9.461  0.5265  0.8129 -2.7749
    2SAPS  C310  239   5.312   1.904   9.297  0.2233 -0.1929  0.1810
    2SAPS  H10X  240   5.388   1.970   9.251 -0.7873  0.0132 -1.2313
    2SAPS  H10Y  241   5.216   1.916   9.243 -0.1191  1.9248  1.1706
    2SAPS  C311  242   5.357   1.760   9.271 -0.1272  0.3050  0.0193
    2SAPS  H11X  243   5.287   1.687   9.317  0.1858  0.1915  0.3188
    2SAPS  H11Y  244   5.453   1.729   9.317 -0.1117  0.7747  0.3125
    2SAPS  C312  245   5.352   1.722   9.115  0.9540  0.0894 -0.1366
    2SAPS  H12X  246   5.421   1.789   9.060 -0.2497  2.0923  0.6723
    2SAPS  H12Y  247   5.252   1.736   9.069  0.7826 -3.2529 -0.9758
    2SAPS  C313  248   5.397   1.577   9.098  0.3641  0.5498 -0.4267
    2SAPS  H13X  249   5.340   1.507   9.163  0.2596  0.3413 -0.7413
    2SAPS  H13Y  250   5.503   1.571   9.129 -0.1707  0.6532  1.5547
    2SAPS  C314  251   5.384   1.538   8.952 -0.5334 -0.1569 -0.4645
    2SAPS  H14X  252   5.413   1.622   8.886  0.7312 -0.8175 -0.7742
    2SAPS  H14Y  253   5.278   1.511   8.932 -0.9016  0.8256  0.0829
    2SAPS  C315  254   5.468   1.415   8.909  0.2370 -0.3042 -0.2857
    2SAPS  H15X  255   5.452   1.324   8.969  1.2234  0.0090  0.4932
    2SAPS  H15Y  256   5.576   1.441   8.913 -0.0386  0.7622  1.2141
    2SAPS  C316  257   5.437   1.380   8.761  0.2957 -0.0182 -0.2353
    2SAPS  H16X  258   5.453   1.470   8.696 -2.4067  1.0133  0.3704
    2SAPS  H16Y  259   5.326   1.369   8.760  0.2545  0.3394  0.0789
    2SAPS  C317  260   5.497   1.241   8.720 -0.1582  0.2489  1.3940
    2SAPS  H17X  261   5.481   1.166   8.801 -0.9820 -0.4212  0.6382
    2SAPS  H17Y  262   5.607   1.243   8.705 -0.5065  2.0279 -1.8436
    2SAPS  C318  263   5.430   1.184   8.591 -0.1698  0.3305  0.1774
    2SAPS  H18X  264   5.452   1.249   8.504 -1.7333  1.4733  0.5954
    2SAPS  H18Y  265   5.320   1.191   8.601  0.0631  2.8973  2.3444
    2SAPS  H18Z  266   5.459   1.079   8.570 -3.0170  0.0881 -3.5585
    3SAPS     N  267   2.493   3.611  10.954  0.2657  0.6194 -0.1197
    3SAPS   HN1  268   2.594   3.632  10.942 -0.1235  0.8833 -4.5788
    3SAPS   HN2  269   2.476   3.612  11.056 -0.6496  0.0318 -0.2544
    3SAPS   HN3  270   2.469   3.518  10.912  0.4456  0.5975 -0.1749
    3SAPS   C12  271   2.413   3.725  10.902  0.3127  0.5086  0.6476
    3SAPS  H12A  272   2.309   3.706  10.920 -0.3671  2.0013 -1.3382
    3SAPS   C13  273   2.464   3.852  10.970 -0.0013 -0.6570 -0.4839
    3SAPS  O13A  274   2.566   3.855  11.040 -0.2831 -0.4181 -0.4650
    3SAPS  O13B  275   2.396   3.955  10.955 -0.2841  0.1243  0.1244
    3SAPS   C11  276   2.419   3.741  10.748 -0.4198 -0.7614  0.4867
    3SAPS  H11A  277   2.351   3.821  10.712  0.5745 -1.4462 -3.3192
    3SAPS  H11B  278   2.378   3.650  10.700 -0.9497 -0.1050 -0.3162
    3SAPS     P  279   2.584   3.844  10.572  0.4567  0.1138 -0.1304
    3SAPS   O13  280   2.524   3.979  10.590  0.7979 -0.1980 -0.5030
    3SAPS   O14  281   2.732   3.834  10.550 -0.2666 -0.8049 -0.6504
    3SAPS   O12  282   2.555   3.762  10.702  0.0121  0.5773 -0.4024
    3SAPS   O11  283   2.511   3.773  10.457  0.1387  0.0804 -0.2091
    3SAPS    C1  284   2.559   3.656  10.379 -0.0921 -0.9076  0.0711
    3SAPS    HA  285   2.631   3.592  10.434  0.6104  0.1096  0.3613
    3SAPS    HB  286   2.468   3.594  10.362 -0.1912 -0.9819  0.8133
    3SAPS    C2  287   2.608   3.691  10.236  0.2788 -0.0996  0.4977
    3SAPS    HS  288   2.698   3.755  10.251  0.5668 -0.8468  2.0639
    3SAPS   O21  289   2.508   3.768  10.173  0.4531 -0.5208  0.0366
    3SAPS   C21  290   2.542   3.834  10.061  0.1349 -0.0618  0.1120
    3SAPS   O22  291   2.652   3.846  10.016  0.4322 -1.0365  0.3868
    3SAPS   C22  292   2.409   3.882  10.002 -0.5513 -0.0458  0.8998
    3SAPS   H2R  293   2.348   3.792   9.978  1.3836 -1.3879  0.8133
    3SAPS   H2S  294   2.359   3.959  10.063 -0.6778  1.5078 -1.0563
    3SAPS    C3  295   2.647   3.566  10.156  0.1373 -0.1203  0.1849
    3SAPS    HX  296   2.717   3.512  10.224 -0.6057 -1.1227  0.1751
    3SAPS    HY  297   2.695   3.588  10.058  0.4245 -1.5833 -0.0343
    3SAPS   O31  298   2.532   3.480  10.140 -0.0779  0.4443  0.2693
    3SAPS   C31  299   2.459   3.474  10.022  0.1057  0.1003 -0.5127
    3SAPS   O32  300   2.480   3.549   9.929  0.0771  0.2694 -0.3448
    3SAPS   C32  301   2.348   3.363  10.033  0.5184  0.4291  0.2996
    3SAPS   H2X  302   2.291   3.382  10.127 -2.2414  0.2453 -1.2561
    3SAPS   H2Y  303   2.405   3.271  10.055  1.0359  1.1626  2.3009
    3SAPS   C23  304   2.412   3.960   9.866  0.0710  0.7706 -0.3436
    3SAPS   H3R  305   2.450   3.895   9.784  2.7489  1.1118  0.5340
    3SAPS   H3S  306   2.484   4.044   9.865  0.8429  0.2077  2.1973
    3SAPS   C24  307   2.271   4.002   9.823  0.9881  0.0282  0.0667
    3SAPS   H4R  308   2.283   4.074   9.738  0.1051  2.8972  2.2234
    3SAPS   H4S  309   2.222   4.057   9.906  0.1730 -1.6221  0.7394
    3SAPS   C25  310   2.199   3.880   9.771  0.0551  0.3045  0.4859
    3SAPS   H5R  311   2.157   3.818   9.852 -0.7069 -0.4271 -0.4461
    3SAPS   C26  312   2.168   3.854   9.641  0.5493 -0.4659  1.3888
    3SAPS   H6R  313   2.095   3.775   9.618 -2.6144  1.7401  3.0406
    3SAPS   C27  314   2.211   3.937   9.516 -0.0725  0.2752 -0.4991
    3SAPS   H7R  315   2.312   3.974   9.546  0.6777 -1.6769 -0.4585
    3SAPS   H7S  316   2.142   4.024   9.511  1.6737  1.6652 -1.7384
    3SAPS   C28  317   2.204   3.865   9.382  0.1952  0.0582 -0.5155
    3SAPS   H8R  318   2.133   3.782   9.371  0.4236 -0.2744  0.4404
    3SAPS   C29  319   2.272   3.904   9.271  1.2084  0.4864  0.1465
    3SAPS   H9R  320   2.250   3.854   9.176 -1.8152  2.4143 -0.3130
    3SAPS  C210  321   2.366   4.020   9.254 -0.0561  0.0331  0.1129
    3SAPS  H10R  322   2.465   3.981   9.222 -0.3741 -1.7215  1.1664
    3SAPS  H10S  323   2.388   4.062   9.355  1.0056  0.3429 -0.2247
    3SAPS  C211  324   2.326   4.135   9.161 -0.1318  0.2060 -0.3888
    3SAPS  H11R  325   2.248   4.191   9.214 -1.3646 -2.4603  0.7935
    3SAPS  C212  326   2.371   4.169   9.043 -0.2196 -0.8686  0.0645
    3SAPS  H12R  327   2.327   4.263   9.007 -1.1179 -1.2729  0.0865
    3SAPS  C213  328   2.487   4.113   8.973 -0.2488 -0.0264  0.2744
    3SAPS  H13R  329   2.496   4.005   8.999  2.1132  0.1070  0.1825
    3SAPS  H13S  330   2.584   4.147   9.014 -0.0005  0.2913 -0.5520
    3SAPS  C214  331   2.474   4.155   8.826 -0.3480  0.1002  0.3486
    3SAPS  H14R  332   2.515   4.255   8.804 -1.7203  1.2806  2.7930
    3SAPS  C215  333   2.418   4.083   8.725  0.5119 -0.9027  0.1098
    3SAPS  H15R  334   2.418   4.136   8.629 -3.3146 -0.3548  0.2637
    3SAPS  C216  335   2.363   3.945   8.742  0.4721 -0.2527  0.2085
    3SAPS  H16R  336   2.254   3.935   8.723  0.5541  0.4912 -0.7327
    3SAPS  H16S  337   2.395   3.880   8.827 -4.5237  1.3965  3.8255
    3SAPS  C217  338   2.413   3.871   8.614 -0.0074  0.6707  0.1409
    3SAPS  H17R  339   2.522   3.876   8.593 -0.4304 -0.9575 -3.1635
    3SAPS  H17S  340   2.366   3.906   8.519 -0.9614  2.0971  1.1052
    3SAPS  C218  341   2.395   3.716   8.629  0.4516 -0.6305 -0.4759
    3SAPS  H18R  342   2.451   3.685   8.720  0.0270 -0.0198 -0.0007
    3SAPS  H18S  343   2.445   3.660   8.546 -0.7004 -1.5340 -0.5893
    3SAPS  C219  344   2.246   3.667   8.629 -0.1061 -0.0731 -0.2756
    3SAPS  H19R  345   2.195   3.707   8.539 -1.0115 -1.2492 -0.3147
    3SAPS  H19S  346   2.208   3.715   8.722  3.0935  2.0306  0.1018
    3SAPS  C220  347   2.254   3.516   8.635  1.0235  0.2537 -0.1020
    3SAPS  H20R  348   2.305   3.470   8.548  1.7570 -0.4919  0.6901
    3SAPS  H20S  349   2.154   3.471   8.654  2.6266 -2.3269  3.4307
    3SAPS  H20T  350   2.305   3.484   8.729  0.0193  1.3143  0.8231
    3SAPS   C33  351   2.250   3.349   9.906  0.0448 -0.1774 -0.1299
    3SAPS   H3X  352   2.165   3.281   9.928 -0.0908 -0.4648 -1.4705
    3SAPS   H3Y  353   2.307   3.306   9.822 -2.1311 -1.4000 -1.0796
    3SAPS   C34  354   2.187   3.478   9.849  0.5238 -0.3290  0.6004
    3SAPS   H4X  355   2.262   3.558   9.828  0.1160  0.3594  1.6303
    3SAPS   H4Y  356   2.127   3.529   9.928 -0.3997 -1.7973  0.8773
    3SAPS   C35  357   2.097   3.437   9.730 -0.2127 -0.5074 -0.2497
    3SAPS   H5X  358   2.046   3.529   9.696  0.8805  0.2134 -0.0018
    3SAPS   H5Y  359   2.020   3.371   9.775 -1.2806  1.5006  1.0188
    3SAPS   C36  360   2.176   3.386   9.605  0.2087 -0.3094  0.5520
    3SAPS   H6X  361   2.099   3.362   9.528 -1.0968  0.3358  1.6039
    3SAPS   H6Y  362   2.232   3.297   9.639  1.1878 -0.0731 -0.4041
    3SAPS   C37  363   2.278   3.480   9.544  0.2543 -0.4543  0.0550
    3SAPS   H7X  364   2.349   3.518   9.621 -0.6602  1.2592  0.1231
    3SAPS   H7Y  365   2.212   3.563   9.510  0.7164  1.0313  2.5214
    3SAPS   C38  366   2.357   3.426   9.431  0.0555  0.1041 -0.0097
    3SAPS   H8X  367   2.292   3.387   9.350  0.2807 -0.3672  0.0358
    3SAPS   H8Y  368   2.430   3.347   9.459 -0.0543 -0.8989 -2.2966
    3SAPS   C39  369   2.464   3.527   9.379  0.7924 -0.3248 -0.7108
    3SAPS   H9X  370   2.530   3.579   9.452 -0.5938  0.7086 -0.1382
    3SAPS   H9Y  371   2.401   3.614   9.347 -0.8347 -1.0369  0.4572
    3SAPS  C310  372   2.540   3.463   9.270 -0.9772  0.4801  0.5690
    3SAPS  H10X  373   2.469   3.402   9.209  1.0350  0.3211 -1.7938
    3SAPS  H10Y  374   2.615   3.387   9.302  0.4034  1.5301 -0.0321
    3SAPS  C311  375   2.607   3.570   9.184  0.2149 -0.2106  0.0185
    3SAPS  H11X  376   2.690   3.626   9.232  2.4814 -1.2376 -2.4855
    3SAPS  H11Y  377   2.527   3.642   9.153  1.7334  0.2680 -3.1985
    3SAPS  C312  378   2.674   3.517   9.054 -0.1863 -0.1692 -0.3209
    3SAPS  H12X  379   2.594   3.500   8.979 -0.2752 -1.1415 -0.0209
    3SAPS  H12Y  380   2.721   3.417   9.061  0.9808  0.1812 -2.3264
    3SAPS  C313  381   2.789   3.619   9.013  0.3926 -0.1877  0.4032
    3SAPS  H13X  382   2.859   3.628   9.098  0.3839 -1.0109  0.5069
    3SAPS  H13Y  383   2.750   3.723   9.002 -0.2288 -0.5133 -0.6170
    3SAPS  C314  384   2.858   3.593   8.880 -0.7172 -0.2254  0.1934
    3SAPS  H14X  385   2.912   3.496   8.888 -2.9812 -1.4385  2.9504
    3SAPS  H14Y  386   2.943   3.664   8.872 -0.8898 -0.2468 -3.4248
    3SAPS  C315  387   2.780   3.596   8.749  0.1146  0.7528 -0.4167
    3SAPS  H15X  388   2.693   3.665   8.740  0.0019  0.9644  1.7576
    3SAPS  H15Y  389   2.741   3.496   8.721 -0.6941  0.9883 -0.1650
    3SAPS  C316  390   2.867   3.641   8.640  0.1897 -0.1366  0.6607
    3SAPS  H16X  391   2.968   3.598   8.655  0.7672  0.7805 -0.3860
    3SAPS  H16Y  392   2.882   3.751   8.635  1.2312 -0.3215 -1.4847
    3SAPS  C317  393   2.817   3.594   8.497  0.1276 -0.0873 -0.7575
    3SAPS  H17X  394   2.718   3.644   8.494 -0.1092 -0.1311  2.2976
    3SAPS  H17Y  395   2.806   3.484   8.505  0.4160 -0.2078 -1.9395
    3SAPS  C318  396   2.905   3.634   8.378  0.1450  0.2893  0.1506
    3SAPS  H18X  397   3.013   3.626   8.403  0.0440  1.5103  1.0760
    3SAPS  H18Y  398   2.891   3.740   8.349 -3.8102 -0.7512 -2.5164
    3SAPS  H18Z  399   2.890   3.563   8.294 -0.6568 -0.3684  0.8346
    4SAPS     N  400   1.765   5.021  10.685 -0.0597 -0.3215 -0.2839
    4SAPS   HN1  401   1.739   4.948  10.615 -0.0304  0.8102 -1.5293
    4SAPS   HN2  402   1.774   5.113  10.636 -0.5586 -0.1089  0.0185
    4SAPS   HN3  403   1.861   4.997  10.717  0.5364  1.2905 -0.7393
    4SAPS   C12  404   1.657   5.022  10.783 -0.0809 -0.6059 -0.0549
    4SAPS  H12A  405   1.644   4.923  10.825 -2.5177 -0.2610  0.1441
    4SAPS   C13  406   1.685   5.105  10.912 -0.4671 -0.0163 -0.3421
    4SAPS  O13A  407   1.801   5.166  10.932  0.3520  0.3912 -0.1123
    4SAPS  O13B  408   1.608   5.097  11.007  0.6140 -0.1802 -0.2429
    4SAPS   C11  409   1.524   5.068  10.715 -0.2348  0.1458 -0.0901
    4SAPS  H11A  410   1.447   5.049  10.792 -1.6650 -2.1901 -1.9588
    4SAPS  H11B  411   1.508   5.011  10.621 -2.8394  1.6661 -0.6628
    4SAPS     P  412   1.406   5.258  10.599  0.0560  0.0410  0.3806
    4SAPS   O13  413   1.295   5.161  10.602  0.4619  0.0246 -0.3153
    4SAPS   O14  414   1.379   5.388  10.653 -0.4290 -0.3399  0.5428
    4SAPS   O12  415   1.521   5.207  10.690 -0.1805 -0.3039  0.2429
    4SAPS   O11  416   1.465   5.275  10.455 -0.1247 -0.0477  0.5727
    4SAPS    C1  417   1.490   5.176  10.361 -0.1749 -0.9649  0.7514
    4SAPS    HA  418   1.539   5.088  10.409  1.2271  0.4866  2.0765
    4SAPS    HB  419   1.394   5.143  10.314 -0.8919  3.3537 -1.3169
    4SAPS    C2  420   1.588   5.222  10.252  0.1027  0.0210  0.4157
    4SAPS    HS  421   1.688   5.221  10.302 -0.4597 -1.8147  1.5871
    4SAPS   O21  422   1.544   5.345  10.203  0.3441  0.7668  0.4570
    4SAPS   C21  423   1.582   5.461  10.263  0.1433  0.7367 -0.5305
    4SAPS   O22  424   1.677   5.466  10.337 -0.0229 -0.4524 -0.2993
    4SAPS   C22  425   1.488   5.580  10.233  0.1417 -0.1043 -0.0735
    4SAPS   H2R  426   1.403   5.538  10.175 -2.0027  1.3776  1.7935
    4SAPS   H2S  427   1.444   5.616  10.329 -0.9705 -0.9302 -0.2510
    4SAPS    C3  428   1.600   5.123  10.129 -0.7737 -0.1500  0.0989
    4SAPS    HX  429   1.504   5.124  10.074 -0.5347  2.4438 -0.4029
    4SAPS    HY  430   1.621   5.024  10.173  1.9406  0.3335  0.0794
    4SAPS   O31  431   1.709   5.153  10.044  0.4671  0.1371  0.3744
    4SAPS   C31  432   1.834   5.123  10.092 -0.3357  0.1360  0.5216
    4SAPS   O32  433   1.853   5.072  10.202  0.9308 -0.0538 -0.0160
    4SAPS   C32  434   1.946   5.175   9.996  0.5025  0.7040 -0.1057
    4SAPS   H2X  435   1.929   5.122   9.900 -0.5692 -0.5315  0.7209
    4SAPS   H2Y  436   2.041   5.141  10.042  1.5211  2.1487 -1.0583
    4SAPS   C23  437   1.560   5.690  10.154  0.3910  0.1291 -0.6155
    4SAPS   H3R  438   1.652   5.721  10.207 -1.1003  0.1333  2.1670
    4SAPS   H3S  439   1.502   5.784  10.156 -2.5034 -1.5450  0.9098
    4SAPS   C24  440   1.580   5.653  10.007  0.7689  0.3097  0.5402
    4SAPS   H4R  441   1.626   5.552  10.007  1.0738  0.4480  1.0563
    4SAPS   H4S  442   1.659   5.721   9.966  1.0076 -0.5618 -0.5059
    4SAPS   C25  443   1.452   5.662   9.927 -0.1033 -0.0109 -0.0405
    4SAPS   H5R  444   1.373   5.725   9.969  0.5992  0.6033  0.3847
    4SAPS   C26  445   1.431   5.603   9.809  0.1286 -0.2557  0.0548
    4SAPS   H6R  446   1.329   5.603   9.769 -0.3430 -0.9011  1.2272
    4SAPS   C27  447   1.537   5.520   9.738 -0.0178  0.3596 -0.3769
    4SAPS   H7R  448   1.634   5.574   9.744  0.5008 -0.5546 -0.3572
    4SAPS   H7S  449   1.509   5.516   9.631  2.1202  0.9647 -0.9934
    4SAPS   C28  450   1.555   5.380   9.793  0.4102  0.2426  0.1068
    4SAPS   H8R  451   1.542   5.366   9.901 -2.2012  2.0176  0.1008
    4SAPS   C29  452   1.590   5.270   9.719  0.2407  0.2359  0.2990
    4SAPS   H9R  453   1.579   5.170   9.764  2.8663 -1.0789 -1.6745
    4SAPS  C210  454   1.614   5.256   9.571  0.2086 -0.5621 -0.6038
    4SAPS  H10R  455   1.521   5.279   9.514  0.4760  1.3968 -0.3384
    4SAPS  H10S  456   1.624   5.147   9.553 -1.2604 -1.1245  1.5558
    4SAPS  C211  457   1.730   5.347   9.522 -0.2124 -0.0826 -0.4082
    4SAPS  H11R  458   1.757   5.429   9.590 -1.1855  1.6711 -2.0316
    4SAPS  C212  459   1.790   5.343   9.400 -0.2860  0.6531 -0.2398
    4SAPS  H12R  460   1.880   5.404   9.383 -0.8317  1.0390 -1.9177
    4SAPS  C213  461   1.757   5.248   9.289  0.2922 -0.0003 -0.0493
    4SAPS  H13R  462   1.653   5.212   9.299  0.8654 -2.0693 -0.9117
    4SAPS  H13S  463   1.811   5.151   9.287 -0.8545 -0.6797 -2.4183
    4SAPS  C214  464   1.770   5.311   9.153  0.0106  0.4735  0.1624
    4SAPS  H14R  465   1.872   5.343   9.127  0.0551  0.3673  0.2062
    4SAPS  C215  466   1.675   5.342   9.065 -0.6015  0.0199 -0.0899
    4SAPS  H15R  467   1.695   5.394   8.970 -0.9099  1.1852  0.4651
    4SAPS  C216  468   1.529   5.316   9.086 -0.4298  0.1517 -0.2007
    4SAPS  H16R  469   1.467   5.391   9.033 -0.0049  0.5326 -0.1656
    4SAPS  H16S  470   1.503   5.326   9.193 -1.5237  2.2484 -0.6143
    4SAPS  C217  471   1.488   5.174   9.043  1.3666 -0.3387  0.1027
    4SAPS  H17R  472   1.562   5.109   9.095  0.0788 -0.5270  1.7991
    4SAPS  H17S  473   1.494   5.169   8.932  1.6528 -0.3547  0.1185
    4SAPS  C218  474   1.350   5.147   9.102 -0.2193 -0.0808  0.6401
    4SAPS  H18R  475   1.283   5.235   9.090  0.6965  0.4670 -0.6216
    4SAPS  H18S  476   1.370   5.134   9.210  0.1103  1.2511  0.7446
    4SAPS  C219  477   1.289   5.027   9.035  0.5749  0.1464  0.3139
    4SAPS  H19R  478   1.332   5.033   8.933  0.6034  3.6753  0.4164
    4SAPS  H19S  479   1.178   5.026   9.034  0.5173 -3.0687 -1.3070
    4SAPS  C220  480   1.322   4.895   9.096 -0.0152  0.0491 -0.1242
    4SAPS  H20R  481   1.429   4.869   9.082 -0.2549 -0.2258 -1.5980
    4SAPS  H20S  482   1.272   4.814   9.040 -0.2153 -1.2181  1.7724
    4SAPS  H20T  483   1.302   4.899   9.206  1.1400 -1.4030  0.1610
    4SAPS   C33  484   1.928   5.326   9.972 -0.0948 -0.4097 -0.2533
    4SAPS   H3X  485   1.938   5.375  10.071  1.6984  0.5929 -0.8929
    4SAPS   H3Y  486   1.829   5.353   9.927  0.7849 -0.1217 -2.1145
    4SAPS   C34  487   2.044   5.393   9.889  0.4959 -0.2181  0.7077
    4SAPS   H4X  488   2.143   5.361   9.927  2.3343  2.1095 -1.7011
    4SAPS   H4Y  489   2.043   5.504   9.884  3.0225 -0.1543  0.7272
    4SAPS   C35  490   2.062   5.328   9.743 -0.2937 -1.3313 -0.9584
    4SAPS   H5X  491   1.963   5.305   9.698 -2.4550 -0.1220  2.7275
    4SAPS   H5Y  492   2.112   5.229   9.747  1.0422 -0.6859 -1.2528
    4SAPS   C36  493   2.120   5.419   9.631  0.6143  0.2265 -0.1889
    4SAPS   H6X  494   2.184   5.498   9.678  1.3403 -0.4472 -0.0252
    4SAPS   H6Y  495   2.038   5.472   9.578 -0.4951  0.8355  1.9870
    4SAPS   C37  496   2.209   5.333   9.544  0.2760  0.2572  0.3044
    4SAPS   H7X  497   2.148   5.240   9.541  0.3115 -0.1090  4.7085
    4SAPS   H7Y  498   2.299   5.301   9.600  1.5588  1.7079 -0.8528
    4SAPS   C38  499   2.248   5.385   9.402 -0.8441  0.0805  0.9367
    4SAPS   H8X  500   2.323   5.307   9.379  0.4084  1.1360  1.3287
    4SAPS   H8Y  501   2.305   5.480   9.411  0.6652 -0.5553 -1.1719
    4SAPS   C39  502   2.127   5.390   9.297 -0.4862 -0.3963  0.0955
    4SAPS   H9X  503   2.072   5.485   9.309  1.3453  0.7446 -0.2091
    4SAPS   H9Y  504   2.067   5.298   9.313  0.5900 -1.1290  0.0685
    4SAPS  C310  505   2.190   5.397   9.153 -0.6685 -0.4330 -0.1393
    4SAPS  H10X  506   2.259   5.481   9.130  1.0557 -1.0833  2.3000
    4SAPS  H10Y  507   2.099   5.415   9.092 -0.8283 -0.1838  0.1702
    4SAPS  C311  508   2.260   5.267   9.096 -0.7738 -0.7082  0.4608
    4SAPS  H11X  509   2.189   5.182   9.086 -0.5676 -0.7194 -1.3427
    4SAPS  H11Y  510   2.332   5.229   9.171  0.3166  0.1250 -0.1416
    4SAPS  C312  511   2.315   5.287   8.958 -1.0147  0.2586  0.3659
    4SAPS  H12X  512   2.389   5.369   8.956  0.9595 -1.1912  4.2802
    4SAPS  H12Y  513   2.223   5.309   8.899 -0.1944 -0.0921 -1.0791
    4SAPS  C313  514   2.377   5.158   8.900  0.1525 -0.1972  0.3214
    4SAPS  H13X  515   2.298   5.081   8.905 -0.2235  0.1593 -0.0264
    4SAPS  H13Y  516   2.463   5.129   8.964 -0.5891 -2.6518  0.2987
    4SAPS  C314  517   2.426   5.179   8.757 -0.1053 -0.1123  0.5574
    4SAPS  H14X  518   2.506   5.256   8.753 -0.1460 -0.1186 -1.2575
    4SAPS  H14Y  519   2.345   5.221   8.695  0.8686  0.3176 -0.4683
    4SAPS  C315  520   2.483   5.052   8.687  0.1281 -0.5806 -0.3507
    4SAPS  H15X  521   2.400   4.982   8.663  0.9588 -1.8446  0.3678
    4SAPS  H15Y  522   2.547   4.989   8.752 -1.6302 -0.6156  1.4625
    4SAPS  C316  523   2.560   5.079   8.558 -0.0834  0.3630 -0.0181
    4SAPS  H16X  524   2.648   5.141   8.584 -0.4441  0.4441  1.0712
    4SAPS  H16Y  525   2.489   5.137   8.495 -0.3828 -1.4431 -1.4102
    4SAPS  C317  526   2.598   4.957   8.476  1.1573  0.0756  0.1789
    4SAPS  H17X  527   2.493   4.922   8.460  0.1489  1.3066  3.3933
    4SAPS  H17Y  528   2.648   4.879   8.537  0.1487 -0.3411  0.5035
    4SAPS  C318  529   2.669   4.991   8.351  0.1574  0.1469 -0.5475
    4SAPS  H18X  530   2.691   4.897   8.294 -2.0918  0.5563 -2.2109
    4SAPS  H18Y  531   2.767   5.035   8.380  0.0215  0.7857 -1.0524
    4SAPS  H18Z  532   2.617   5.056   8.278  2.9981  2.3947 -0.7489
    5SAPS     N  533   5.461   1.084  11.268  0.6099 -0.2747 -0.3313
    5SAPS   HN1  534   5.492   1.030  11.184  1.6993  0.9527 -0.7596
    5SAPS   HN2  535   5.543   1.138  11.302 -0.5419  0.7885  0.8254
    5SAPS   HN3  536   5.424   1.016  11.337 -0.1663 -1.1062 -1.5173
    5SAPS   C12  537   5.343   1.168  11.226  0.1387 -0.0093  0.4274
    5SAPS  H12A  538   5.260   1.101  11.210 -0.3471  0.1239  2.1496
    5SAPS   C13  539   5.293   1.259  11.339 -0.6292 -0.0146  0.6100
    5SAPS  O13A  540   5.353   1.265  11.447  0.7672  0.2383  0.8865
    5SAPS  O13B  541   5.182   1.310  11.319 -0.5003  0.0082  0.1829
    5SAPS   C11  542   5.387   1.252  11.102 -0.1966 -0.0293 -0.6796
    5SAPS  H11A  543   5.452   1.336  11.137 -1.8912  0.9154  0.3082
    5SAPS  H11B  544   5.292   1.301  11.073 -1.2887 -0.3149  2.1216
    5SAPS     P  545   5.472   1.231  10.860  0.3079 -0.1166 -0.1446
    5SAPS   O13  546   5.524   1.127  10.774 -0.0879 -0.4017  0.3553
    5SAPS   O14  547   5.347   1.295  10.812 -0.5776  0.1762  0.5869
    5SAPS   O12  548   5.442   1.175  11.000  0.1138  0.3401 -0.1433
    5SAPS   O11  549   5.576   1.342  10.894  0.0780 -0.2522  0.4421
    5SAPS    C1  550   5.554   1.474  10.842  0.4574 -0.2416  0.2766
    5SAPS    HA  551   5.445   1.489  10.825  0.6914 -0.0689 -1.1812
    5SAPS    HB  552   5.585   1.548  10.920 -1.7936 -0.1357  1.1586
    5SAPS    C2  553   5.640   1.502  10.713 -0.2855 -0.8175 -0.4229
    5SAPS    HS  554   5.643   1.612  10.703  1.3133 -0.7974  0.0360
    5SAPS   O21  555   5.593   1.445  10.591  0.2691  0.3932  0.5623
    5SAPS   C21  556   5.471   1.486  10.564 -0.1544 -0.0850  0.2717
    5SAPS   O22  557   5.409   1.583  10.604  0.5953 -0.2317 -0.2858
    5SAPS   C22  558   5.420   1.401  10.444  0.1084 -0.0852  0.1204
    5SAPS   H2R  559   5.509   1.369  10.386 -2.1212 -4.1418 -1.4502
    5SAPS   H2S  560   5.371   1.308  10.480  0.6455  0.1707  1.5871
    5SAPS    C3  561   5.794   1.481  10.735  0.0253 -0.0902  0.0739
    5SAPS    HX  562   5.814   1.372  10.730  0.8917 -0.1453  2.9356
    5SAPS    HY  563   5.817   1.510  10.840  3.2108 -3.4822  0.5040
    5SAPS   O31  564   5.865   1.547  10.633  0.9367  0.8872 -0.2370
    5SAPS   C31  565   5.991   1.545  10.642 -0.5455  0.4758  0.0037
    5SAPS   O32  566   6.055   1.502  10.739  0.2875 -0.3065  0.0965
    5SAPS   C32  567   6.057   1.594  10.509 -0.1876 -0.7950  0.8694
    5SAPS   H2X  568   6.124   1.674  10.544 -0.7667 -0.4288  1.1545
    5SAPS   H2Y  569   5.977   1.649  10.455 -0.1038  0.3953  1.9161
    5SAPS   C23  570   5.335   1.482  10.346  1.1131  0.0700  0.2610
    5SAPS   H3R  571   5.359   1.591  10.349 -0.8101  0.5180  0.2864
    5SAPS   H3S  572   5.236   1.471  10.395  0.4659 -2.5351 -1.4376
    5SAPS   C24  573   5.321   1.437  10.202 -0.3945  0.3029  0.2039
    5SAPS   H4R  574   5.247   1.494  10.142 -0.9013 -0.8390 -0.2930
    5SAPS   H4S  575   5.289   1.331  10.214  1.3495 -0.2879  0.0476
    5SAPS   C25  576   5.455   1.434  10.128 -0.1319  0.4972 -0.7182
    5SAPS   H5R  577   5.538   1.391  10.185  1.5594  1.6692 -2.2117
    5SAPS   C26  578   5.467   1.478  10.002 -0.5936 -0.7160  0.2213
    5SAPS   H6R  579   5.558   1.459   9.944  0.5609  0.1992  1.6482
    5SAPS   C27  580   5.363   1.551   9.913  0.7412 -0.3707  0.4810
    5SAPS   H7R  581   5.297   1.622   9.967  2.2941  0.3003  1.5551
    5SAPS   H7S  582   5.294   1.470   9.881 -2.7409  2.6660 -0.3822
    5SAPS   C28  583   5.415   1.635   9.801 -0.5805  0.3943  0.3180
    5SAPS   H8R  584   5.450   1.736   9.827 -0.8738  1.2249 -2.2360
    5SAPS   C29  585   5.437   1.594   9.678  0.2657 -0.8791 -0.4698
    5SAPS   H9R  586   5.485   1.663   9.608  0.2312 -1.7744 -1.4092
    5SAPS  C210  587   5.398   1.449   9.638 -0.8485  0.1908 -0.6441
    5SAPS  H10R  588   5.287   1.444   9.632 -0.8475 -0.2251 -0.3603
    5SAPS  H10S  589   5.426   1.372   9.713  1.8799  1.9840  0.3268
    5SAPS  C211  590   5.430   1.399   9.501  0.0972 -0.3537 -0.2119
    5SAPS  H11R  591   5.539   1.401   9.484  0.0583  0.7515 -0.4207
    5SAPS  C212  592   5.355   1.339   9.411  0.5845  0.4459  0.3560
    5SAPS  H12R  593   5.385   1.327   9.305 -0.3496  0.9138  0.0248
    5SAPS  C213  594   5.205   1.301   9.428  0.1649  0.3301 -0.2795
    5SAPS  H13R  595   5.149   1.393   9.403 -0.8826  0.5130  2.4181
    5SAPS  H13S  596   5.184   1.297   9.537 -0.7204  1.7312 -0.3772
    5SAPS  C214  597   5.149   1.173   9.374 -0.1895 -0.1980 -0.1663
    5SAPS  H14R  598   5.152   1.092   9.448  0.8179 -0.0471 -0.0184
    5SAPS  C215  599   5.087   1.143   9.256 -0.0059  0.0941 -0.3845
    5SAPS  H15R  600   5.036   1.046   9.248  0.1077 -0.0126  0.1484
    5SAPS  C216  601   5.070   1.246   9.145 -0.2482 -0.8837  0.4118
    5SAPS  H16R  602   5.172   1.289   9.133 -0.9321  0.1594 -2.2241
    5SAPS  H16S  603   5.017   1.338   9.176  0.5205  0.0277 -0.8731
    5SAPS  C217  604   5.025   1.199   9.016 -1.3670 -0.3534 -0.0308
    5SAPS  H17R  605   4.915   1.190   9.029 -1.4815  3.4350  4.2611
    5SAPS  H17S  606   5.076   1.101   8.999 -0.4382 -0.5083  3.0151
    5SAPS  C218  607   5.068   1.288   8.889  0.3847 -0.1595 -0.1452
    5SAPS  H18R  608   5.026   1.391   8.889  3.0944  1.0208 -0.3391
    5SAPS  H18S  609   5.174   1.318   8.901  0.2415 -0.0098  0.8576
    5SAPS  C219  610   5.016   1.218   8.758 -0.7288  0.2667 -0.3701
    5SAPS  H19R  611   4.908   1.197   8.770 -1.0396  2.4104  1.1853
    5SAPS  H19S  612   5.070   1.123   8.737  0.8046  1.2991 -1.3210
    5SAPS  C220  613   5.039   1.314   8.636  0.0087 -0.4275  0.0466
    5SAPS  H20R  614   4.989   1.412   8.653  1.9426  0.8125 -0.9892
    5SAPS  H20S  615   5.001   1.262   8.545 -1.6265  0.1009  0.3879
    5SAPS  H20T  616   5.149   1.321   8.624  0.0269  1.2921  0.8826
    5SAPS   C33  617   6.118   1.481  10.428  0.3630  0.1174  0.0920
    5SAPS   H3X  618   6.048   1.407  10.385  0.1207  0.3427  0.0992
    5SAPS   H3Y  619   6.200   1.425  10.479  2.7481  1.2105 -2.2907
    5SAPS   C34  620   6.189   1.529  10.306 -0.1155  0.0526  0.1049
    5SAPS   H4X  621   6.267   1.601  10.340 -0.0046 -0.9636  2.1751
    5SAPS   H4Y  622   6.122   1.586  10.237 -0.7202  0.5717  1.0959
    5SAPS   C35  623   6.258   1.418  10.227  0.0021 -0.6330  0.0324
    5SAPS   H5X  624   6.185   1.334  10.218 -1.4792  0.4635  1.2385
    5SAPS   H5Y  625   6.334   1.370  10.292  0.1373 -2.5900 -1.4588
    5SAPS   C36  626   6.304   1.463  10.099 -0.0846 -0.4262  0.5106
    5SAPS   H6X  627   6.390   1.533  10.102  0.0579 -0.5907  0.2411
    5SAPS   H6Y  628   6.216   1.518  10.058 -0.7862 -1.8650  0.0067
    5SAPS   C37  629   6.354   1.354  10.000 -0.4383  0.0257  0.4667
    5SAPS   H7X  630   6.308   1.256  10.023  0.2362 -0.1530  1.1223
    5SAPS   H7Y  631   6.464   1.339  10.006 -0.4207  0.3115  1.0011
    5SAPS   C38  632   6.317   1.382   9.855  0.1813 -0.4423 -0.1270
    5SAPS   H8X  633   6.356   1.476   9.811  1.7581 -1.7725 -1.6862
    5SAPS   H8Y  634   6.208   1.399   9.844  0.4980  2.5049  0.4115
    5SAPS   C39  635   6.379   1.273   9.765  0.0367  0.2397 -0.0777
    5SAPS   H9X  636   6.330   1.175   9.786  0.1431 -0.2656 -1.9623
    5SAPS   H9Y  637   6.488   1.265   9.782 -0.2756 -0.2603  2.0470
    5SAPS  C310  638   6.363   1.302   9.620 -0.5445  1.1903  0.2079
    5SAPS  H10X  639   6.409   1.394   9.579 -0.8151  0.7478 -1.1386
    5SAPS  H10Y  640   6.254   1.316   9.601 -1.5414 -2.3649  2.2181
    5SAPS  C311  641   6.423   1.182   9.533 -0.0675 -0.2307  0.4548
    5SAPS  H11X  642   6.355   1.097   9.555  0.1542 -0.2983  0.8754
    5SAPS  H11Y  643   6.523   1.150   9.568  0.2055  1.0229  0.8617
    5SAPS  C312  644   6.416   1.208   9.383  0.0806  0.1464 -0.3460
    5SAPS  H12X  645   6.483   1.291   9.350  0.1103 -0.1079 -0.9390
    5SAPS  H12Y  646   6.315   1.245   9.355 -0.9650 -0.1456  2.6526
    5SAPS  C313  647   6.441   1.076   9.309  0.6803  0.0444  0.1561
    5SAPS  H13X  648   6.368   0.996   9.332  0.1841  0.1183 -1.0956
    5SAPS  H13Y  649   6.545   1.038   9.323  0.0839 -1.7850 -0.2483
    5SAPS  C314  650   6.429   1.102   9.152  0.4364  0.5791  0.1781
    5SAPS  H14X  651   6.512   1.163   9.111  0.7634 -0.1329 -0.2470
    5SAPS  H14Y  652   6.336   1.152   9.120  0.0354 -0.7340 -0.7908
    5SAPS  C315  653   6.437   0.969   9.068  0.0211 -0.6745  0.5633
    5SAPS  H15X  654   6.346   0.908   9.086 -0.5145 -0.9350 -2.4955
    5SAPS  H15Y  655   6.524   0.910   9.103  1.1347  1.9636  2.6668
    5SAPS  C316  656   6.424   0.984   8.912 -0.5771 -0.2187 -1.2608
    5SAPS  H16X  657   6.418   0.882   8.870  0.4896 -1.0778  0.5169
    5SAPS  H16Y  658   6.508   1.042   8.868 -0.1000 -0.2906 -0.4820
    5SAPS  C317  659   6.294   1.051   8.876 -0.0348 -0.4669 -0.5017
    5SAPS  H17X  660   6.313   1.158   8.899  1.5814 -1.0733  1.2640
    5SAPS  H17Y  661   6.211   1.001   8.931  1.1389 -1.5526  0.3282
    5SAPS  C318  662   6.263   1.041   8.730 -0.1541  0.4547  0.6262
    5SAPS  H18X  663   6.301   0.942   8.699  3.4728  1.7321  0.4776
    5SAPS  H18Y  664   6.332   1.109   8.676 -1.7425  1.6113 -0.0405
    5SAPS  H18Z  665   6.158   1.060   8.697 -1.2425 -1.9225  2.4243
    6SAPS     N  666   1.804   4.473  10.574 -0.1417 -0.2230 -0.2718
    6SAPS   HN1  667   1.867   4.525  10.638  1.7037 -1.1790 -1.2469
    6SAPS   HN2  668   1.856   4.390  10.538  0.2383  1.2337 -3.3027
    6SAPS   HN3  669   1.790   4.537  10.494 -1.8547  0.6770  0.6677
    6SAPS   C12  670   1.661   4.444  10.613  0.0402 -0.8556  0.1847
    6SAPS  H12A  671   1.600   4.397  10.538 -2.5855 -0.0100  1.6429
    6SAPS   C13  672   1.638   4.355  10.741  0.4899  0.6229 -0.2385
    6SAPS  O13A  673   1.731   4.305  10.808  0.1571 -0.2054 -0.0895
    6SAPS  O13B  674   1.517   4.335  10.767 -0.0925 -0.4706  0.2324
    6SAPS   C11  675   1.608   4.585  10.642 -0.4337 -1.0047  0.1117
    6SAPS  H11A  676   1.693   4.645  10.680 -0.7482 -0.4691 -0.0024
    6SAPS  H11B  677   1.534   4.585  10.725 -0.6250  0.6048 -0.0175
    6SAPS     P  678   1.649   4.718  10.423 -0.1500  0.2980  0.0898
    6SAPS   O13  679   1.695   4.827  10.509  0.0526 -0.0318 -0.6294
    6SAPS   O14  680   1.752   4.626  10.359  1.1694  0.4124 -0.0103
    6SAPS   O12  681   1.557   4.630  10.519  0.0524  0.5005  0.7019
    6SAPS   O11  682   1.548   4.758  10.316  0.5210  0.4671 -0.1796
    6SAPS    C1  683   1.480   4.654  10.229  0.1589 -0.5554 -0.3770
    6SAPS    HA  684   1.558   4.600  10.172  0.4544 -0.0861 -0.4223
    6SAPS    HB  685   1.427   4.584  10.296  1.7628 -0.5501  0.9730
    6SAPS    C2  686   1.387   4.728  10.125 -0.1489 -0.4553 -0.6858
    6SAPS    HS  687   1.322   4.654  10.073  1.7673 -3.0326  0.3353
    6SAPS   O21  688   1.477   4.798  10.035 -0.6977  0.2697 -0.2957
    6SAPS   C21  689   1.550   4.720   9.952  0.1448  0.5401 -0.2966
    6SAPS   O22  690   1.538   4.600   9.937 -0.3571  0.2726  0.2137
    6SAPS   C22  691   1.655   4.808   9.884 -0.0875 -0.0185 -0.1875
    6SAPS   H2R  692   1.693   4.880   9.960  2.3585  0.1147 -1.4506
    6SAPS   H2S  693   1.746   4.748   9.864  1.1418  1.9534 -0.7431
    6SAPS    C3  694   1.285   4.824  10.185 -0.1237  0.4977 -0.3060
    6SAPS    HX  695   1.338   4.919  10.206  0.3800 -0.0128  0.8026
    6SAPS    HY  696   1.264   4.779  10.284  1.1879 -0.4300 -0.4251
    6SAPS   O31  697   1.167   4.856  10.100 -1.0034  0.0176  0.4101
    6SAPS   C31  698   1.071   4.762  10.093 -0.4552  0.1269  0.6487
    6SAPS   O32  699   1.069   4.661  10.162  0.0200 -0.4478 -0.3003
    6SAPS   C32  700   0.957   4.801   9.992 -0.7190 -0.2651 -0.7523
    6SAPS   H2X  701   0.920   4.903  10.015 -0.8946 -0.7127  1.1190
    6SAPS   H2Y  702   0.869   4.733  10.003 -1.4987  0.8025 -0.2627
    6SAPS   C23  703   1.596   4.884   9.767  0.4485  0.0130  0.4247
    6SAPS   H3R  704   1.671   4.952   9.721  1.0447 -1.5710 -1.0944
    6SAPS   H3S  705   1.501   4.936   9.788  0.7161  1.9290 -2.4459
    6SAPS   C24  706   1.559   4.783   9.647 -0.9225  0.2480 -0.3127
    6SAPS   H4R  707   1.506   4.843   9.570 -1.1703  0.7057  0.2054
    6SAPS   H4S  708   1.489   4.712   9.695 -2.6976  1.4558 -0.9937
    6SAPS   C25  709   1.687   4.725   9.584  0.5466  0.6571  0.0039
    6SAPS   H5R  710   1.763   4.695   9.658 -0.9736  2.0933  2.2738
    6SAPS   C26  711   1.713   4.708   9.456 -0.1563  0.2705 -0.0455
    6SAPS   H6R  712   1.812   4.665   9.436 -0.8684 -1.5369  0.1374
    6SAPS   C27  713   1.631   4.751   9.341  0.1513 -0.0947 -0.1776
    6SAPS   H7R  714   1.526   4.766   9.374 -0.8919 -0.7574 -2.8865
    6SAPS   H7S  715   1.613   4.669   9.268 -0.9915 -1.3084  1.3884
    6SAPS   C28  716   1.676   4.881   9.279  0.0185  0.0121 -0.5828
    6SAPS   H8R  717   1.668   4.966   9.348  1.4260 -1.1720  1.1375
    6SAPS   C29  718   1.727   4.906   9.153 -0.4921  0.1262  0.4440
    6SAPS   H9R  719   1.765   5.008   9.134 -0.6733 -0.0641 -1.0195
    6SAPS  C210  720   1.749   4.799   9.046 -0.8931  0.1762  0.4968
    6SAPS  H10R  721   1.649   4.750   9.046 -1.4256  1.2299  0.3360
    6SAPS  H10S  722   1.807   4.715   9.090 -0.3428 -1.4395 -2.9434
    6SAPS  C211  723   1.799   4.827   8.905  0.8162 -0.0788  1.0161
    6SAPS  H11R  724   1.895   4.879   8.896  0.6821  0.3307  1.8201
    6SAPS  C212  725   1.728   4.807   8.793 -0.4732  0.0486 -1.0423
    6SAPS  H12R  726   1.768   4.833   8.693  0.1893 -2.1454 -1.4048
    6SAPS  C213  727   1.591   4.742   8.785 -0.0396 -0.3915 -0.8198
    6SAPS  H13R  728   1.523   4.796   8.855 -0.2250  0.7982 -1.8916
    6SAPS  H13S  729   1.592   4.641   8.831  1.2926  0.2609  0.6715
    6SAPS  C214  730   1.528   4.747   8.653  0.6687  0.4952 -0.5019
    6SAPS  H14R  731   1.528   4.649   8.604 -2.4096 -0.0807  0.4659
    6SAPS  C215  732   1.478   4.848   8.578  0.8430  0.8503 -0.0141
    6SAPS  H15R  733   1.449   4.828   8.473  0.3999  1.8696 -0.0929
    6SAPS  C216  734   1.486   4.990   8.618 -0.1575  0.1669  0.4566
    6SAPS  H16R  735   1.489   4.995   8.729 -1.6474  0.2114  0.5082
    6SAPS  H16S  736   1.397   5.053   8.597  1.0023  2.2276  1.3411
    6SAPS  C217  737   1.606   5.067   8.560  0.1960 -0.5088 -0.0688
    6SAPS  H17R  738   1.587   5.076   8.450  2.1207 -1.2763 -0.5081
    6SAPS  H17S  739   1.700   5.008   8.568  1.5324  1.0576 -2.6547
    6SAPS  C218  740   1.633   5.205   8.619 -0.0774 -0.0285 -0.5519
    6SAPS  H18R  741   1.643   5.207   8.730 -1.1404 -1.0598 -0.4163
    6SAPS  H18S  742   1.547   5.267   8.587 -0.8265 -0.8181 -0.1133
    6SAPS  C219  743   1.747   5.270   8.541 -0.3102 -0.2230  0.2669
    6SAPS  H19R  744   1.718   5.275   8.434 -1.1313 -0.4947  0.4683
    6SAPS  H19S  745   1.840   5.209   8.546 -0.3012 -0.2182  0.1786
    6SAPS  C220  746   1.780   5.416   8.590 -0.2267  0.2186 -0.3978
    6SAPS  H20R  747   1.860   5.459   8.526 -0.6066  0.7410 -0.5230
    6SAPS  H20S  748   1.821   5.409   8.693 -1.3828 -0.6744  0.0223
    6SAPS  H20T  749   1.687   5.476   8.593 -1.1278 -1.1561  1.0980
    6SAPS   C33  750   1.000   4.784   9.845 -0.3580 -0.9119 -0.4072
    6SAPS   H3X  751   1.087   4.851   9.825 -1.5683  0.6008 -0.8464
    6SAPS   H3Y  752   0.917   4.834   9.791 -1.0422 -0.8181  0.7026
    6SAPS   C34  753   1.026   4.638   9.812 -0.2161 -0.4455 -0.7791
    6SAPS   H4X  754   0.935   4.574   9.805 -0.0260 -0.7273 -0.7183
    6SAPS   H4Y  755   1.076   4.586   9.896 -2.6631  3.1978  3.3384
    6SAPS   C35  756   1.096   4.616   9.678 -0.0525  0.1718  0.1973
    6SAPS   H5X  757   1.073   4.515   9.637 -3.2595  0.6704  0.5015
    6SAPS   H5Y  758   1.206   4.626   9.689  0.4765 -2.7381 -1.4807
    6SAPS   C36  759   1.054   4.718   9.569 -0.6689  0.2682 -0.0314
    6SAPS   H6X  760   1.096   4.821   9.577  0.6949 -0.3583  1.2586
    6SAPS   H6Y  761   0.945   4.737   9.580 -0.4903  2.4762 -1.2951
    6SAPS   C37  762   1.078   4.665   9.427  0.3117  0.4485  0.0959
    6SAPS   H7X  763   1.025   4.569   9.407 -0.7773  0.4764  2.5209
    6SAPS   H7Y  764   1.185   4.637   9.432  0.0509 -0.4674  0.7838
    6SAPS   C38  765   1.065   4.767   9.317 -0.7359  0.1338 -0.0769
    6SAPS   H8X  766   1.126   4.748   9.226  0.6246  0.7039  0.7025
    6SAPS   H8Y  767   1.084   4.866   9.363  0.2504  0.0669 -0.3304
    6SAPS   C39  768   0.918   4.762   9.261 -0.3455 -0.3213 -0.0889
    6SAPS   H9X  769   0.849   4.762   9.348 -2.1501  0.4553 -1.4558
    6SAPS   H9Y  770   0.919   4.664   9.209  1.8021  0.0044 -0.7618
    6SAPS  C310  771   0.895   4.868   9.157  0.0510 -0.1696 -0.4595
    6SAPS  H10X  772   0.790   4.846   9.127  0.4524 -1.7329 -0.8393
    6SAPS  H10Y  773   0.959   4.853   9.068  0.9720  3.8679 -0.6545
    6SAPS  C311  774   0.904   5.010   9.203  0.6571  0.9603 -0.0118
    6SAPS  H11X  775   1.012   5.033   9.203  0.8690  0.0284  1.0552
    6SAPS  H11Y  776   0.873   5.016   9.310  0.7755  0.2369  0.0673
    6SAPS  C312  777   0.819   5.115   9.120 -0.1817  0.0428 -0.2344
    6SAPS  H12X  778   0.837   5.212   9.170  2.4714 -0.4168 -0.1682
    6SAPS  H12Y  779   0.713   5.084   9.137  0.3315 -1.4363  0.5113
    6SAPS  C313  780   0.862   5.117   8.978  0.4728  0.3151 -0.9389
    6SAPS  H13X  781   0.810   5.034   8.927  0.8402 -0.1312 -0.5993
    6SAPS  H13Y  782   0.970   5.098   8.960  0.1406 -0.1120 -2.5949
    6SAPS  C314  783   0.814   5.246   8.911 -0.7924  0.0771  0.1519
    6SAPS  H14X  784   0.852   5.336   8.963  0.0667  0.3292 -0.8765
    6SAPS  H14Y  785   0.703   5.240   8.918 -0.6988 -0.5990  1.2893
    6SAPS  C315  786   0.838   5.257   8.766 -0.2025 -0.0823  0.0610
    6SAPS  H15X  787   0.773   5.334   8.719  0.1845  0.6894  0.7543
    6SAPS  H15Y  788   0.806   5.161   8.721  0.2947  0.2829 -1.0915
    6SAPS  C316  789   0.988   5.272   8.739  0.1533 -0.5595  0.2656
    6SAPS  H16X  790   0.992   5.256   8.629 -2.2701 -0.3413  0.0937
    6SAPS  H16Y  791   1.042   5.192   8.796  1.7957 -1.2313 -2.0802
    6SAPS  C317  792   1.048   5.415   8.776 -0.4964 -0.3980  0.3779
    6SAPS  H17X  793   1.027   5.437   8.883  1.5600  0.8634  0.5755
    6SAPS  H17Y  794   1.004   5.487   8.704  1.9277 -0.9397 -1.7898
    6SAPS  C318  795   1.208   5.422   8.755  0.8076 -0.0691  0.0444
    6SAPS  H18X  796   1.221   5.528   8.786 -0.2344 -0.2335  1.1301
    6SAPS  H18Y  797   1.234   5.406   8.649  0.0151  0.0270 -0.1724
    6SAPS  H18Z  798   1.258   5.357   8.830  0.5292 -1.0178 -0.5803
    7SAPS     N  799   0.607   2.675  10.630  0.4499 -0.6053 -0.5106
    7SAPS   HN1  800   0.509   2.639  10.632  0.7068 -1.3044 -0.3738
    7SAPS   HN2  801   0.613   2.772  10.593 -0.9631 -0.0266  0.6295
    7SAPS   HN3  802   0.676   2.609  10.589  0.0073 -1.7252  0.4825
    7SAPS   C12  803   0.666   2.690  10.771  0.7158 -0.2785 -0.4386
    7SAPS  H12A  804   0.633   2.780  10.821  0.6853 -0.5277 -0.0071
    7SAPS   C13  805   0.632   2.578  10.873 -0.1775 -0.1986 -0.3982
    7SAPS  O13A  806   0.554   2.483  10.841  0.1878  0.0119 -0.2015
    7SAPS  O13B  807   0.667   2.597  10.994 -0.2681  0.3884  0.2363
    7SAPS   C11  808   0.814   2.713  10.763 -0.5483  0.1377 -0.0967
    7SAPS  H11A  809   0.860   2.633  10.701 -2.5985 -1.7403  0.6762
    7SAPS  H11B  810   0.849   2.701  10.867 -0.9978 -0.6553 -0.0300
    7SAPS     P  811   0.978   2.913  10.759  0.0511 -0.6087  0.1058
    7SAPS   O13  812   0.990   3.045  10.696  0.2443 -0.7895 -0.2175
    7SAPS   O14  813   0.996   2.900  10.911  0.4511 -0.6200  0.5670
    7SAPS   O12  814   0.836   2.843  10.719 -0.1991  0.1312  0.3744
    7SAPS   O11  815   1.091   2.826  10.694  0.6759 -0.2012 -0.4719
    7SAPS    C1  816   1.089   2.790  10.560  0.6390  0.1055  0.4020
    7SAPS    HA  817   1.047   2.687  10.555  1.9073 -0.3632 -2.1823
    7SAPS    HB  818   1.036   2.862  10.493 -0.0774 -0.7533  0.0129
    7SAPS    C2  819   1.239   2.787  10.525 -0.6998  0.0623 -0.2185
    7SAPS    HS  820   1.239   2.778  10.414  1.4360  3.2236 -0.6063
    7SAPS   O21  821   1.322   2.690  10.592  0.3233  0.0116  0.2403
    7SAPS   C21  822   1.299   2.563  10.553  0.0199  0.6397 -0.1864
    7SAPS   O22  823   1.234   2.530  10.454 -0.2676  0.1141 -0.0767
    7SAPS   C22  824   1.358   2.473  10.664 -0.5897 -0.7169 -0.0031
    7SAPS   H2R  825   1.351   2.522  10.764  2.3997 -1.9715  0.9347
    7SAPS   H2S  826   1.304   2.376  10.657 -0.4189 -0.7767 -0.5264
    7SAPS    C3  827   1.306   2.919  10.546 -0.8918 -0.8206  0.2995
    7SAPS    HX  828   1.412   2.899  10.520  0.2223  2.8979  1.3910
    7SAPS    HY  829   1.305   2.942  10.654  0.3273 -0.1303  0.1838
    7SAPS   O31  830   1.254   3.021  10.466  0.5454 -0.1477  0.3716
    7SAPS   C31  831   1.260   3.149  10.506 -0.4394 -0.1374 -0.2095
    7SAPS   O32  832   1.332   3.191  10.594  0.5725 -0.9235  0.5651
    7SAPS   C32  833   1.190   3.238  10.408  1.3317 -1.0797  0.4363
    7SAPS   H2X  834   1.232   3.340  10.404 -0.2535 -0.3949  0.3287
    7SAPS   H2Y  835   1.084   3.244  10.441  0.8612 -3.3691 -0.4574
    7SAPS   C23  836   1.502   2.448  10.634  0.4186  0.1458  0.3300
    7SAPS   H3R  837   1.553   2.396  10.718  0.1026 -0.0584  0.3969
    7SAPS   H3S  838   1.563   2.540  10.622  0.4152  0.3829  1.9124
    7SAPS   C24  839   1.526   2.379  10.494  0.6023 -0.0486  0.1427
    7SAPS   H4R  840   1.494   2.444  10.410 -3.1384  0.6379  1.8616
    7SAPS   H4S  841   1.460   2.289  10.495 -2.6004  2.0738  1.9725
    7SAPS   C25  842   1.667   2.340  10.493 -0.1887 -0.3947 -0.1672
    7SAPS   H5R  843   1.731   2.374  10.575 -1.6960  0.6305  0.6232
    7SAPS   C26  844   1.725   2.279  10.387 -0.2743 -0.1652 -1.0241
    7SAPS   H6R  845   1.823   2.231  10.399  0.3343  0.4689 -2.9715
    7SAPS   C27  846   1.657   2.243  10.262 -0.0469  0.3185  0.0543
    7SAPS   H7R  847   1.726   2.243  10.174 -0.3965 -0.0119 -0.2282
    7SAPS   H7S  848   1.569   2.307  10.240 -0.1256  1.1016  2.4519
    7SAPS   C28  849   1.611   2.100  10.263 -0.1933 -0.5162  0.1820
    7SAPS   H8R  850   1.641   2.049  10.356 -1.7691 -0.1164  0.9397
    7SAPS   C29  851   1.556   2.038  10.162 -0.2041  0.0611 -0.3096
    7SAPS   H9R  852   1.513   1.939  10.185 -0.1809  0.4193  1.4266
    7SAPS  C210  853   1.520   2.088  10.026 -0.1944  0.4678  0.4846
    7SAPS  H10R  854   1.490   2.004   9.960  1.4494  0.2727 -0.0400
    7SAPS  H10S  855   1.616   2.119   9.979  0.3418  0.1458  1.3436
    7SAPS  C211  856   1.420   2.201  10.018  0.0917 -0.2503 -0.5779
    7SAPS  H11R  857   1.378   2.234  10.114 -2.1643 -1.3696 -1.1183
    7SAPS  C212  858   1.372   2.267   9.913 -0.2170  0.0856  0.4907
    7SAPS  H12R  859   1.290   2.340   9.926  1.0923  1.6426  0.3428
    7SAPS  C213  860   1.407   2.248   9.766 -0.0998  0.2357  0.0918
    7SAPS  H13R  861   1.505   2.296   9.744 -0.5159 -0.0041 -2.6447
    7SAPS  H13S  862   1.339   2.320   9.717  0.8148  2.6598  2.1833
    7SAPS  C214  863   1.398   2.109   9.705  0.2077  0.5016  0.2846
    7SAPS  H14R  864   1.416   2.024   9.772 -0.9747 -0.0906 -0.1065
    7SAPS  C215  865   1.352   2.080   9.583  0.6217 -0.0772  0.1019
    7SAPS  H15R  866   1.362   1.979   9.541 -1.6235 -0.7403  0.9717
    7SAPS  C216  867   1.304   2.180   9.478 -0.5716  0.0796 -0.4559
    7SAPS  H16R  868   1.377   2.263   9.470  1.0525 -1.0232  1.7855
    7SAPS  H16S  869   1.207   2.222   9.513 -0.5722 -0.7103  0.5254
    7SAPS  C217  870   1.284   2.130   9.330  0.6047 -0.3957 -0.3288
    7SAPS  H17R  871   1.259   2.214   9.261  0.1307  0.1457  0.4900
    7SAPS  H17S  872   1.201   2.057   9.340 -0.6992  1.2930  1.9097
    7SAPS  C218  873   1.409   2.058   9.276 -0.0696 -0.1014 -0.3730
    7SAPS  H18R  874   1.448   1.981   9.346 -1.5083  0.5671  1.2256
    7SAPS  H18S  875   1.488   2.135   9.261  1.9993 -1.6714  1.7182
    7SAPS  C219  876   1.401   1.999   9.137  0.1012  0.1287 -0.1355
    7SAPS  H19R  877   1.347   2.068   9.069  2.1898  1.3353 -0.6560
    7SAPS  H19S  878   1.339   1.907   9.140 -1.7601  1.2918 -0.9069
    7SAPS  C220  879   1.534   1.950   9.084 -0.2117  0.1039  0.6921
    7SAPS  H20R  880   1.516   1.921   8.978 -1.5519  1.1029  0.6098
    7SAPS  H20S  881   1.573   1.861   9.137  2.0244  1.3769  1.3067
    7SAPS  H20T  882   1.612   2.028   9.096  0.5458 -0.8486  2.3251
    7SAPS   C33  883   1.185   3.193  10.263 -0.5298 -0.2015  0.2115
    7SAPS   H3X  884   1.114   3.261  10.210 -2.8916 -1.6631  1.3588
    7SAPS   H3Y  885   1.134   3.095  10.252 -2.2778  0.6005  0.6668
    7SAPS   C34  886   1.321   3.178  10.198 -0.3579 -0.4520  0.5162
    7SAPS   H4X  887   1.382   3.111  10.262  0.4280  1.0194  1.3495
    7SAPS   H4Y  888   1.378   3.273  10.195 -1.1758  0.0649  1.0875
    7SAPS   C35  889   1.319   3.109  10.059 -0.4667 -0.9771  0.3386
    7SAPS   H5X  890   1.249   3.023  10.061 -1.6968 -0.0172 -0.1607
    7SAPS   H5Y  891   1.423   3.073  10.041 -0.0101  0.9601 -1.3488
    7SAPS   C36  892   1.291   3.206   9.938  0.6272  0.4779 -0.4979
    7SAPS   H6X  893   1.357   3.294   9.949  1.0353  0.1955 -0.6524
    7SAPS   H6Y  894   1.187   3.242   9.947  0.8225  0.5349  3.3794
    7SAPS   C37  895   1.307   3.141   9.800  0.9307 -0.1852  0.1750
    7SAPS   H7X  896   1.237   3.055   9.791 -0.4309  0.7149  1.7382
    7SAPS   H7Y  897   1.414   3.111   9.793  0.8241 -1.0796  1.8486
    7SAPS   C38  898   1.279   3.248   9.689  0.3318 -0.0567 -0.1853
    7SAPS   H8X  899   1.344   3.332   9.721  0.6842 -1.1701  2.2538
    7SAPS   H8Y  900   1.173   3.282   9.692  0.7570  1.3279 -0.4652
    7SAPS   C39  901   1.308   3.210   9.543 -0.2722  0.4360  0.3334
    7SAPS   H9X  902   1.227   3.136   9.528 -0.1670  0.5652 -1.0554
    7SAPS   H9Y  903   1.408   3.162   9.537 -0.9835 -1.0171 -0.3004
    7SAPS  C310  904   1.300   3.322   9.435  0.8690 -0.6145 -0.6608
    7SAPS  H10X  905   1.384   3.395   9.443 -0.6083  0.9133  2.5856
    7SAPS  H10Y  906   1.203   3.375   9.446  1.0504 -0.2390 -0.8316
    7SAPS  C311  907   1.318   3.261   9.293 -0.4115 -0.5825  0.4777
    7SAPS  H11X  908   1.271   3.160   9.291  0.9753 -1.2325  0.1014
    7SAPS  H11Y  909   1.426   3.247   9.271 -0.6352  1.4225 -2.4847
    7SAPS  C312  910   1.243   3.345   9.185 -0.1258  1.2446  0.3000
    7SAPS  H12X  911   1.137   3.359   9.215 -0.4559 -0.0067 -0.2051
    7SAPS  H12Y  912   1.240   3.292   9.087  0.4999 -1.7313  1.7778
    7SAPS  C313  913   1.303   3.488   9.163  0.0362 -1.0604  0.4511
    7SAPS  H13X  914   1.283   3.538   9.260  0.4124 -0.3131  0.1462
    7SAPS  H13Y  915   1.240   3.540   9.088  2.0440  2.3187  0.9221
    7SAPS  C314  916   1.446   3.487   9.114  0.3927 -0.1237  0.4292
    7SAPS  H14X  917   1.516   3.432   9.181 -1.2512  0.1082  2.4307
    7SAPS  H14Y  918   1.478   3.593   9.127  1.6169 -0.3909 -0.2557
    7SAPS  C315  919   1.472   3.444   8.965  0.1861  0.3132 -0.5626
    7SAPS  H15X  920   1.414   3.508   8.896  1.6622 -0.1176 -2.2777
    7SAPS  H15Y  921   1.436   3.339   8.955 -0.5034  0.5350 -0.4434
    7SAPS  C316  922   1.623   3.464   8.944 -0.6432  0.3493 -0.3962
    7SAPS  H16X  923   1.675   3.395   9.014 -0.5385  1.5536  0.7541
    7SAPS  H16Y  924   1.655   3.568   8.968  0.1006 -0.1348  0.7891
    7SAPS  C317  925   1.660   3.437   8.796  0.4447 -0.2173 -0.3081
    7SAPS  H17X  926   1.609   3.495   8.716  2.4031 -0.6115 -1.9034
    7SAPS  H17Y  927   1.638   3.330   8.775 -0.7957 -0.2323  0.8747
    7SAPS  C318  928   1.811   3.449   8.776  0.4711 -0.4916  0.4503
    7SAPS  H18X  929   1.861   3.390   8.855  1.2815 -0.9185 -0.3512
    7SAPS  H18Y  930   1.849   3.553   8.786  1.3302 -0.5010 -1.8886
    7SAPS  H18Z  931   1.835   3.420   8.671  0.9440  0.6632  0.2233
    8SAPS     N  932   5.451   0.861  10.823 -0.0283 -0.2703 -0.4229
    8SAPS   HN1  933   5.436   0.825  10.726  1.6389  3.0756 -2.1114
    8SAPS   HN2  934   5.444   0.965  10.823 -0.2991 -0.2847  0.3906
    8SAPS   HN3  935   5.546   0.837  10.858  0.2507  2.1864  0.6957
    8SAPS   C12  936   5.352   0.821  10.931  0.7133 -0.2342  0.4879
    8SAPS  H12A  937   5.318   0.719  10.923 -0.6950 -0.0005  2.5955
    8SAPS   C13  938   5.423   0.833  11.061  0.3886 -0.2550 -0.0693
    8SAPS  O13A  939   5.524   0.899  11.075 -0.7720  0.2010  0.2976
    8SAPS  O13B  940   5.356   0.789  11.160 -0.5993 -0.2373  0.2104
    8SAPS   C11  941   5.228   0.916  10.916 -0.0694 -0.2772 -0.2563
    8SAPS  H11A  942   5.262   1.021  10.922 -0.8134 -0.0106 -0.5278
    8SAPS  H11B  943   5.162   0.891  11.002  1.7412 -0.9121  0.9831
    8SAPS     P  944   4.999   0.849  10.807 -0.1774  0.0921  0.5930
    8SAPS   O13  945   4.985   0.729  10.887 -0.2336 -0.3067 -0.8137
    8SAPS   O14  946   4.916   0.971  10.840  0.1982  0.2842 -0.4074
    8SAPS   O12  947   5.155   0.886  10.796 -0.4817 -1.0988  0.8123
    8SAPS   O11  948   4.967   0.810  10.660 -0.0246  0.2840  0.1498
    8SAPS    C1  949   5.027   0.701  10.595  0.5695 -0.0806  0.8670
    8SAPS    HA  950   5.064   0.616  10.657  1.1276 -0.5665 -0.1219
    8SAPS    HB  951   4.944   0.657  10.536 -0.1634  1.9466  0.2936
    8SAPS    C2  952   5.140   0.751  10.495  0.1975  0.3386  0.0387
    8SAPS    HS  953   5.229   0.787  10.552  1.1384 -3.3010  1.1397
    8SAPS   O21  954   5.085   0.859  10.414 -0.4220  1.0548 -0.0148
    8SAPS   C21  955   5.165   0.939  10.348 -1.0767  0.6973 -0.4827
    8SAPS   O22  956   5.287   0.933  10.353 -0.1772 -0.7609 -0.5914
    8SAPS   C22  957   5.096   1.044  10.261  0.1985  0.2325  0.4929
    8SAPS   H2R  958   5.006   0.990  10.226  0.4396  0.8997 -1.2482
    8SAPS   H2S  959   5.067   1.138  10.312 -1.1207  1.4361 -2.3058
    8SAPS    C3  960   5.174   0.621  10.406 -0.1883  0.2635  0.9563
    8SAPS    HX  961   5.208   0.541  10.475  0.1028 -0.2133  0.2767
    8SAPS    HY  962   5.261   0.647  10.342 -0.5113  2.4131  1.3266
    8SAPS   O31  963   5.065   0.585  10.318 -0.1712 -0.2495  0.4003
    8SAPS   C31  964   5.004   0.467  10.339  0.8591  0.6586  1.1739
    8SAPS   O32  965   5.031   0.397  10.433 -0.0423  0.4495  0.6005
    8SAPS   C32  966   4.914   0.428  10.224  0.3286 -0.3724  0.0943
    8SAPS   H2X  967   4.881   0.514  10.162  0.4682  0.2071  0.7957
    8SAPS   H2Y  968   4.818   0.393  10.267 -0.8515  2.0861 -0.3956
    8SAPS   C23  969   5.175   1.073  10.130  0.1828 -0.3761  0.2381
    8SAPS   H3R  970   5.200   0.975  10.085  1.3302  0.2334 -0.5238
    8SAPS   H3S  971   5.271   1.120  10.161  0.2201 -0.4876  0.2916
    8SAPS   C24  972   5.092   1.167  10.035 -0.0329  0.8289 -0.1941
    8SAPS   H4R  973   5.065   1.262  10.086 -0.9592  0.4688  0.0185
    8SAPS   H4S  974   4.995   1.119  10.009  0.7472 -2.6943  2.5154
    8SAPS   C25  975   5.174   1.194   9.918  0.4915  0.1442  0.1196
    8SAPS   H5R  976   5.254   1.266   9.939 -1.1235  1.9841  0.2767
    8SAPS   C26  977   5.147   1.154   9.788 -0.7309 -0.4197 -0.3864
    8SAPS   H6R  978   5.219   1.179   9.708  0.7934 -4.7348 -0.6592
    8SAPS   C27  979   5.043   1.054   9.744 -0.1361  0.0873 -0.3737
    8SAPS   H7R  980   5.014   0.998   9.835  0.3684  0.7873  0.2367
    8SAPS   H7S  981   5.089   0.985   9.670  0.2579 -0.6694  0.5498
    8SAPS   C28  982   4.928   1.132   9.695  0.2745  0.1669  0.0205
    8SAPS   H8R  983   4.905   1.226   9.748 -1.7211 -0.0242 -0.4276
    8SAPS   C29  984   4.849   1.103   9.588 -0.2142 -0.3095 -0.7168
    8SAPS   H9R  985   4.775   1.178   9.558  1.3258  0.8986 -1.6542
    8SAPS  C210  986   4.858   0.986   9.495  0.3051 -0.2802 -0.5012
    8SAPS  H10R  987   4.964   0.954   9.494  0.1731 -0.7360 -1.7153
    8SAPS  H10S  988   4.841   1.022   9.391 -0.0996  0.3351 -0.2272
    8SAPS  C211  989   4.780   0.862   9.532 -0.3452 -0.1647 -0.1883
    8SAPS  H11R  990   4.724   0.867   9.626  1.2289  1.7100  0.7397
    8SAPS  C212  991   4.777   0.755   9.448  0.2986  0.2788 -0.0006
    8SAPS  H12R  992   4.697   0.683   9.472  0.0217 -0.3808 -2.5939
    8SAPS  C213  993   4.835   0.741   9.312  0.2483 -0.2080  0.7397
    8SAPS  H13R  994   4.881   0.838   9.285  0.6168 -0.3135  0.9802
    8SAPS  H13S  995   4.746   0.731   9.246  1.1101 -1.3696 -0.2794
    8SAPS  C214  996   4.932   0.620   9.307 -0.4512 -0.1209  0.2708
    8SAPS  H14R  997   4.890   0.534   9.360 -2.5174  0.5385 -0.2077
    8SAPS  C215  998   5.048   0.614   9.240 -0.3382  0.1217 -0.0578
    8SAPS  H15R  999   5.082   0.513   9.215  0.0907  0.1226  0.4756
    8SAPS  C216 1000   5.115   0.731   9.169 -0.8473  0.2738 -0.9596
    8SAPS  H16R 1001   5.030   0.794   9.134 -1.9178  0.4085  1.6228
    8SAPS  H16S 1002   5.176   0.697   9.083  0.4890 -1.9111  0.7319
    8SAPS  C217 1003   5.203   0.803   9.272  0.1172 -0.1337  0.3729
    8SAPS  H17R 1004   5.142   0.838   9.358 -0.3545 -0.5892  0.2294
    8SAPS  H17S 1005   5.248   0.895   9.227 -0.0725 -0.2514 -0.0698
    8SAPS  C218 1006   5.323   0.726   9.333 -0.0017 -0.5205 -0.3538
    8SAPS  H18R 1007   5.376   0.680   9.247 -0.2625 -2.0511  0.2656
    8SAPS  H18S 1008   5.286   0.646   9.401  0.1489  0.4368  0.8929
    8SAPS  C219 1009   5.407   0.820   9.423 -0.4693  0.5473 -0.3649
    8SAPS  H19R 1010   5.477   0.758   9.484 -0.9386  0.9260  0.5757
    8SAPS  H19S 1011   5.341   0.853   9.506  0.6746 -0.4217  0.9633
    8SAPS  C220 1012   5.479   0.934   9.349  0.3626  0.1596  0.3899
    8SAPS  H20R 1013   5.404   1.002   9.303  1.4458  0.9308 -0.2573
    8SAPS  H20S 1014   5.550   0.908   9.268  0.1763  2.0612 -0.4378
    8SAPS  H20T 1015   5.530   0.997   9.425  0.7469  1.7830 -1.1450
    8SAPS   C33 1016   4.964   0.315  10.134 -0.2698  0.5380 -0.3202
    8SAPS   H3X 1017   5.015   0.242  10.201  0.8028  1.1590 -0.4251
    8SAPS   H3Y 1018   5.041   0.348  10.061  0.0009  0.0309 -0.2761
    8SAPS   C34 1019   4.864   0.231  10.055  0.2392 -0.1301  0.4020
    8SAPS   H4X 1020   4.789   0.297  10.006 -1.3823 -0.9281  1.6755
    8SAPS   H4Y 1021   4.802   0.177  10.130 -0.6510 -0.4234 -0.5165
    8SAPS   C35 1022   4.924   0.130   9.956 -0.2906  0.4195  0.3793
    8SAPS   H5X 1023   4.921   0.029  10.002  0.5028  0.6875  1.0403
    8SAPS   H5Y 1024   5.029   0.166   9.945  0.8156 -1.8170  2.7544
    8SAPS   C36 1025   4.847   0.123   9.822 -0.2354 -0.1253 -0.0863
    8SAPS   H6X 1026   4.740   0.115   9.849 -1.3964  1.7861 -3.5124
    8SAPS   H6Y 1027   4.888   0.038   9.763  0.4124 -1.0582  1.6425
    8SAPS   C37 1028   4.841   0.253   9.734  0.2203  0.2294  0.4262
    8SAPS   H7X 1029   4.945   0.266   9.695  1.0678 -1.3313  1.9784
    8SAPS   H7Y 1030   4.800   0.343   9.784  1.6341  2.0348 -1.4843
    8SAPS   C38 1031   4.741   0.234   9.615  0.3439  0.3025 -0.4684
    8SAPS   H8X 1032   4.653   0.172   9.641  1.4622 -1.5897 -1.0050
    8SAPS   H8Y 1033   4.783   0.159   9.545  1.6740  0.7151 -0.1564
    8SAPS   C39 1034   4.700   0.358   9.540 -0.1770  0.3694  0.7543
    8SAPS   H9X 1035   4.790   0.422   9.532 -0.0815  0.1463 -0.0653
    8SAPS   H9Y 1036   4.629   0.419   9.600 -1.7812  1.1028 -1.7124
    8SAPS  C310 1037   4.630   0.327   9.404 -0.3437 -0.4205  0.3722
    8SAPS  H10X 1038   4.565   0.414   9.382 -2.4805 -1.5276  1.9543
    8SAPS  H10Y 1039   4.563   0.245   9.437 -1.2857  0.0296 -0.3783
    8SAPS  C311 1040   4.718   0.293   9.284  0.2307 -1.0022 -0.0384
    8SAPS  H11X 1041   4.777   0.201   9.303 -1.6603 -2.5423 -1.1911
    8SAPS  H11Y 1042   4.793   0.374   9.270  0.2580 -1.2651 -1.5627
    8SAPS  C312 1043   4.631   0.285   9.153 -0.5193  0.0868  0.3155
    8SAPS  H12X 1044   4.562   0.371   9.141 -1.3221 -0.2441  2.1599
    8SAPS  H12Y 1045   4.557   0.204   9.171  1.2013 -1.2612  1.6321
    8SAPS  C313 1046   4.712   0.256   9.024 -0.3147  0.2252 -0.3137
    8SAPS  H13X 1047   4.644   0.268   8.936 -1.7784  0.2399  0.7790
    8SAPS  H13Y 1048   4.748   0.152   9.038 -1.7976 -0.2432  0.3011
    8SAPS  C314 1049   4.835   0.355   9.011  0.4872 -0.1352 -0.8395
    8SAPS  H14X 1050   4.911   0.351   9.092 -1.1016  0.6489  0.7680
    8SAPS  H14Y 1051   4.788   0.456   9.019  0.8139  0.4911 -4.9088
    8SAPS  C315 1052   4.919   0.343   8.890 -0.8843  0.0309 -0.1758
    8SAPS  H15X 1053   4.857   0.341   8.798 -0.0355  3.7853 -0.9879
    8SAPS  H15Y 1054   4.990   0.258   8.885  0.4098  0.9221  1.7578
    8SAPS  C316 1055   5.003   0.471   8.868  0.1503 -0.0950  0.3291
    8SAPS  H16X 1056   5.054   0.497   8.963  0.9222 -1.2017  0.2457
    8SAPS  H16Y 1057   4.928   0.552   8.867  0.3737  0.1107 -0.2585
    8SAPS  C317 1058   5.098   0.483   8.746 -0.4282 -0.6531  0.5118
    8SAPS  H17X 1059   5.169   0.564   8.773  0.8275 -1.5361  0.0038
    8SAPS  H17Y 1060   5.045   0.514   8.653 -1.6156 -2.2885  0.6006
    8SAPS  C318 1061   5.182   0.364   8.708 -0.1107 -0.3199 -0.2466
    8SAPS  H18X 1062   5.230   0.312   8.794 -1.6618 -0.8305  0.3448
    8SAPS  H18Y 1063   5.260   0.386   8.633  1.3016 -0.2147  1.2093
    8SAPS  H18Z 1064   5.108   0.291   8.669 -0.9938 -0.2340  1.2081
    9SAPS     N 1065   5.919   1.487   6.307 -0.1439 -0.5876  0.2482
    9SAPS   HN1 1066   5.960   1.581   6.322  0.6681 -1.1072  1.4685
    9SAPS   HN2 1067   5.878   1.449   6.395 -1.4021 -0.2615 -0.1689
    9SAPS   HN3 1068   5.989   1.414   6.282  1.0560 -0.0710  1.9087
    9SAPS   C12 1069   5.804   1.494   6.204  0.7961  0.4413 -0.1197
    9SAPS  H12A 1070   5.732   1.565   6.241  0.4615 -0.2671  0.6227
    9SAPS   C13 1071   5.856   1.527   6.064 -0.4594  0.7199 -0.5432
    9SAPS  O13A 1072   5.980   1.532   6.048 -0.8034 -0.1328 -0.2555
    9SAPS  O13B 1073   5.774   1.581   5.980 -0.2399  0.0270 -0.1365
    9SAPS   C11 1074   5.733   1.359   6.199 -0.0015 -0.4121 -0.4810
    9SAPS  H11A 1075   5.812   1.281   6.195  1.3471  0.8955 -0.6627
    9SAPS  H11B 1076   5.674   1.347   6.107 -0.0070 -3.9834 -0.1392
    9SAPS     P 1077   5.528   1.246   6.326 -0.4679 -0.5344 -0.2236
    9SAPS   O13 1078   5.519   1.171   6.198 -0.7124  0.0617 -0.2433
    9SAPS   O14 1079   5.557   1.162   6.445 -0.5044  0.2901 -0.2857
    9SAPS   O12 1080   5.655   1.344   6.314 -0.5300 -0.2732  0.3714
    9SAPS   O11 1081   5.414   1.344   6.345  0.0186 -0.0176 -0.1709
    9SAPS    C1 1082   5.411   1.481   6.358  0.5709  0.0256  0.3246
    9SAPS    HA 1083   5.449   1.525   6.264  1.6307  0.2359  0.8360
    9SAPS    HB 1084   5.304   1.508   6.375  1.0552  0.6605  2.7610
    9SAPS    C2 1085   5.487   1.541   6.483 -0.1695 -0.6287  0.3925
    9SAPS    HS 1086   5.592   1.524   6.449 -0.4857 -1.4083 -0.2290
    9SAPS   O21 1087   5.440   1.473   6.597  0.2707  0.0134 -0.4096
    9SAPS   C21 1088   5.530   1.445   6.691  0.3369 -0.3306 -0.0622
    9SAPS   O22 1089   5.651   1.468   6.693  0.0161 -0.6971  0.4661
    9SAPS   C22 1090   5.456   1.403   6.819  0.2887 -0.5239  0.0054
    9SAPS   H2R 1091   5.502   1.462   6.901  0.5564  2.6914 -2.2775
    9SAPS   H2S 1092   5.351   1.440   6.816  0.5772  0.2769 -0.1497
    9SAPS    C3 1093   5.466   1.698   6.492 -0.2021  0.3054 -0.0217
    9SAPS    HX 1094   5.359   1.709   6.520  0.1363  0.8805  1.1265
    9SAPS    HY 1095   5.476   1.743   6.391 -0.6288 -0.2445 -0.3148
    9SAPS   O31 1096   5.564   1.747   6.588 -0.1169  0.0551  0.0243
    9SAPS   C31 1097   5.690   1.769   6.545  0.3448 -0.0792  0.3315
    9SAPS   O32 1098   5.724   1.769   6.428  0.2930 -0.4835 -0.0825
    9SAPS   C32 1099   5.775   1.825   6.653 -0.0152 -0.7772  0.0963
    9SAPS   H2X 1100   5.709   1.854   6.738 -1.7688 -0.5911 -1.2620
    9SAPS   H2Y 1101   5.812   1.926   6.623  1.4960 -0.9205  1.3520
    9SAPS   C23 1102   5.448   1.256   6.830 -0.7111  0.9128  0.4542
    9SAPS   H3R 1103   5.548   1.211   6.815 -1.5889 -0.8006 -0.6706
    9SAPS   H3S 1104   5.389   1.210   6.747  1.4961  0.0544 -0.7178
    9SAPS   C24 1105   5.394   1.213   6.965  0.0561  0.0887 -0.1006
    9SAPS   H4R 1106   5.432   1.287   7.038  0.7414 -1.1193  0.8254
    9SAPS   H4S 1107   5.431   1.112   6.994 -0.8975 -0.0461  0.6864
    9SAPS   C25 1108   5.238   1.203   6.962 -0.2249  0.4497 -0.4716
    9SAPS   H5R 1109   5.178   1.136   6.898 -5.1750  2.4229  1.6322
    9SAPS   C26 1110   5.148   1.270   7.039  0.3426 -0.0273  0.0718
    9SAPS   H6R 1111   5.043   1.253   7.010  0.5247 -0.3470 -0.4187
    9SAPS   C27 1112   5.187   1.369   7.147  0.2470 -0.5025 -0.5298
    9SAPS   H7R 1113   5.099   1.433   7.170 -0.3565 -0.6032 -2.3964
    9SAPS   H7S 1114   5.250   1.454   7.113 -0.1604  0.3544  0.7857
    9SAPS   C28 1115   5.221   1.295   7.272 -0.2831 -0.6206  0.0791
    9SAPS   H8R 1116   5.324   1.257   7.277  0.5329  1.4260 -0.0649
    9SAPS   C29 1117   5.135   1.277   7.371  0.1142 -0.1691 -0.7188
    9SAPS   H9R 1118   5.174   1.234   7.464 -2.1364 -0.3920  0.1895
    9SAPS  C210 1119   4.994   1.329   7.375  0.1590  0.1014  1.2694
    9SAPS  H10R 1120   4.940   1.323   7.278 -0.2503  0.6044  1.4601
    9SAPS  H10S 1121   4.996   1.436   7.403 -0.1919  0.2363  0.7928
    9SAPS  C211 1122   4.916   1.253   7.477 -0.6847  0.4672  0.2585
    9SAPS  H11R 1123   4.885   1.153   7.443  0.7912 -0.7114  2.1737
    9SAPS  C212 1124   4.865   1.298   7.597  0.0720 -0.0583 -0.5101
    9SAPS  H12R 1125   4.796   1.245   7.665 -1.1490  1.4536 -0.5181
    9SAPS  C213 1126   4.885   1.442   7.652 -0.0424  0.4241  0.2311
    9SAPS  H13R 1127   4.788   1.495   7.648 -1.7366 -2.5209 -0.5369
    9SAPS  H13S 1128   4.948   1.506   7.586 -1.2000  0.1983 -1.1417
    9SAPS  C214 1129   4.946   1.439   7.792  0.0339 -0.6416  0.2959
    9SAPS  H14R 1130   5.053   1.416   7.787  0.0352 -0.3571 -2.3667
    9SAPS  C215 1131   4.874   1.448   7.906 -0.9680  0.4019 -0.5314
    9SAPS  H15R 1132   4.930   1.469   7.999 -2.3121 -0.8890  0.6347
    9SAPS  C216 1133   4.718   1.464   7.911  0.0118 -0.0777 -0.0642
    9SAPS  H16R 1134   4.675   1.504   7.817 -0.9864  0.6520  0.6852
    9SAPS  H16S 1135   4.702   1.544   7.986 -0.6188  1.6295 -1.9396
    9SAPS  C217 1136   4.646   1.333   7.946  0.2695  0.0900 -0.3318
    9SAPS  H17R 1137   4.696   1.248   7.896  1.7442  0.6301  0.1650
    9SAPS  H17S 1138   4.539   1.342   7.917 -0.7114  3.9312  3.4411
    9SAPS  C218 1139   4.661   1.302   8.091  0.2186 -0.3761  0.3326
    9SAPS  H18R 1140   4.639   1.395   8.147  2.2535  1.3377 -1.5203
    9SAPS  H18S 1141   4.768   1.289   8.119 -0.2042  0.3501  2.4685
    9SAPS  C219 1142   4.563   1.187   8.132 -0.5450  0.6947  0.0346
    9SAPS  H19R 1143   4.607   1.127   8.215 -0.5409  1.4367  0.5777
    9SAPS  H19S 1144   4.559   1.106   8.056 -1.4428  0.1439  0.6397
    9SAPS  C220 1145   4.420   1.226   8.171 -0.0881  0.4543  0.5814
    9SAPS  H20R 1146   4.387   1.304   8.100  0.9516 -0.8940 -1.4934
    9SAPS  H20S 1147   4.410   1.272   8.272 -0.4351 -1.1431  1.3166
    9SAPS  H20T 1148   4.351   1.139   8.172 -1.8007  1.7431 -0.3988
    9SAPS   C33 1149   5.877   1.723   6.688 -0.1204 -0.1762  0.4783
    9SAPS   H3X 1150   5.932   1.683   6.600 -0.0831  0.5902  0.1411
    9SAPS   H3Y 1151   5.851   1.626   6.734  2.3655 -0.2058  2.0127
    9SAPS   C34 1152   5.981   1.774   6.789  0.7874  0.1814 -0.1733
    9SAPS   H4X 1153   6.019   1.872   6.751  0.8292  0.9187  1.6619
    9SAPS   H4Y 1154   6.068   1.709   6.813  0.4322 -0.0500  0.5059
    9SAPS   C35 1155   5.916   1.796   6.928  0.2628 -0.5373 -0.1078
    9SAPS   H5X 1156   5.915   1.697   6.978  0.8861 -1.3063 -1.5690
    9SAPS   H5Y 1157   5.811   1.830   6.915  0.7528  0.5670 -1.4335
    9SAPS   C36 1158   5.993   1.898   7.017 -0.0641 -0.3200 -0.0424
    9SAPS   H6X 1159   5.980   1.997   6.969  0.5758  0.4036  1.2231
    9SAPS   H6Y 1160   6.102   1.875   7.022  0.3237  1.2273 -0.7411
    9SAPS   C37 1161   5.937   1.916   7.152  0.0628 -0.2988 -0.1020
    9SAPS   H7X 1162   5.826   1.921   7.145  0.1975  1.1524 -2.2981
    9SAPS   H7Y 1163   5.958   2.016   7.196 -3.4602  0.3769  0.3722
    9SAPS   C38 1164   5.982   1.811   7.255 -0.1971 -0.7081 -0.6839
    9SAPS   H8X 1165   6.092   1.798   7.258 -0.0889 -0.2940 -1.9455
    9SAPS   H8Y 1166   5.947   1.710   7.225 -0.5612 -1.2059  1.2890
    9SAPS   C39 1167   5.922   1.846   7.397  0.0230 -0.7491  0.2276
    9SAPS   H9X 1168   5.816   1.877   7.401  0.5044  0.8603  2.4239
    9SAPS   H9Y 1169   5.976   1.940   7.418 -1.3412  0.9015 -3.0043
    9SAPS  C310 1170   5.939   1.734   7.506 -0.2585 -0.5914 -0.1919
    9SAPS  H10X 1171   6.046   1.709   7.523  0.1157 -0.5791 -2.2244
    9SAPS  H10Y 1172   5.887   1.646   7.464 -1.7636  0.8367 -1.4948
    9SAPS  C311 1173   5.883   1.781   7.644 -0.3409  0.5872  0.3141
    9SAPS  H11X 1174   5.775   1.797   7.626 -0.2634 -0.0328 -0.7366
    9SAPS  H11Y 1175   5.932   1.879   7.664 -0.1762  0.1121  2.4846
    9SAPS  C312 1176   5.920   1.680   7.749 -0.0339 -0.4874 -0.1978
    9SAPS  H12X 1177   6.030   1.683   7.762  0.0844  0.3122 -1.2965
    9SAPS  H12Y 1178   5.890   1.583   7.703  0.7464  0.6234 -3.2829
    9SAPS  C313 1179   5.839   1.700   7.879 -1.0049 -0.9090  0.4950
    9SAPS  H13X 1180   5.744   1.642   7.877 -1.4803 -0.1418  0.5361
    9SAPS  H13Y 1181   5.816   1.808   7.881  0.3914 -0.5993  1.2346
    9SAPS  C314 1182   5.920   1.674   8.003  0.6651  1.1938  0.1624
    9SAPS  H14X 1183   6.010   1.739   7.997  0.9138  0.8391  0.0068
    9SAPS  H14Y 1184   5.960   1.570   8.007 -1.7295  0.2456  2.8726
    9SAPS  C315 1185   5.839   1.695   8.129 -0.0548  0.1043  0.0714
    9SAPS  H15X 1186   5.739   1.648   8.119 -1.3547  2.7821 -0.3049
    9SAPS  H15Y 1187   5.815   1.803   8.129  1.5878  0.5370 -2.1369
    9SAPS  C316 1188   5.894   1.642   8.264  0.0361  0.1841 -0.4797
    9SAPS  H16X 1189   5.990   1.690   8.291 -0.7877  1.4573  0.3431
    9SAPS  H16Y 1190   5.903   1.532   8.268 -3.4512 -0.2921 -1.7313
    9SAPS  C317 1191   5.795   1.687   8.377 -0.6158  0.1825  0.5720
    9SAPS  H17X 1192   5.768   1.793   8.360 -0.2839  0.3671  1.1675
    9SAPS  H17Y 1193   5.852   1.683   8.472  2.9018 -1.8284 -1.4080
    9SAPS  C318 1194   5.666   1.601   8.398  0.0556  0.2556  0.0907
    9SAPS  H18X 1195   5.596   1.662   8.459 -1.4009  0.2821 -1.5135
    9SAPS  H18Y 1196   5.676   1.506   8.455  0.2582 -0.0896 -0.5090
    9SAPS  H18Z 1197   5.621   1.572   8.300 -1.3713 -0.2639  0.8639
   10SAPS     N 1198   6.358   0.856   6.445  0.2531  0.1728 -0.1861
   10SAPS   HN1 1199   6.267   0.815   6.473  0.5258  0.3817  1.0962
   10SAPS   HN2 1200   6.432   0.791   6.479 -1.3445 -0.4894  2.3137
   10SAPS   HN3 1201   6.371   0.945   6.499 -0.4989  0.6057 -0.7060
   10SAPS   C12 1202   6.360   0.882   6.301 -0.0889 -0.2941  0.6215
   10SAPS  H12A 1203   6.452   0.929   6.270 -0.0563 -0.7952 -0.0488
   10SAPS   C13 1204   6.353   0.768   6.202 -0.2064 -0.0329 -0.1967
   10SAPS  O13A 1205   6.355   0.648   6.247  0.5180  0.3944  0.1564
   10SAPS  O13B 1206   6.330   0.791   6.082  0.3505  0.1332  0.1939
   10SAPS   C11 1207   6.234   0.973   6.281 -0.2379 -0.1887  0.8376
   10SAPS  H11A 1208   6.138   0.923   6.305 -1.4661  1.7271  0.1675
   10SAPS  H11B 1209   6.228   1.001   6.174 -0.6560 -1.9836  0.3639
   10SAPS     P 1210   6.129   1.175   6.412 -0.0851 -0.4029 -0.0322
   10SAPS   O13 1211   6.113   1.295   6.324 -0.0403 -0.1894  0.6508
   10SAPS   O14 1212   6.013   1.080   6.424  0.0296 -0.3133 -0.2406
   10SAPS   O12 1213   6.257   1.095   6.356  0.0294  0.3622  0.0566
   10SAPS   O11 1214   6.172   1.223   6.553 -0.0284 -0.3120 -0.0309
   10SAPS    C1 1215   6.204   1.129   6.660  0.1705 -0.0419  0.2814
   10SAPS    HA 1216   6.240   1.029   6.627 -0.7951 -0.5487  0.7517
   10SAPS    HB 1217   6.293   1.170   6.712  0.0927  0.4763  0.0215
   10SAPS    C2 1218   6.085   1.120   6.768 -0.3939 -0.4377  0.2428
   10SAPS    HS 1219   6.000   1.087   6.704  0.3451  0.6393 -1.3525
   10SAPS   O21 1220   6.067   1.247   6.825  1.0854 -0.1523 -0.0686
   10SAPS   C21 1221   5.939   1.283   6.844 -0.0825 -0.4000  0.2691
   10SAPS   O22 1222   5.839   1.224   6.803  0.1210  0.4013 -0.7666
   10SAPS   C22 1223   5.940   1.412   6.935  0.0314  0.2419  0.3836
   10SAPS   H2R 1224   6.024   1.468   6.890 -0.9326  2.1582  0.8674
   10SAPS   H2S 1225   5.847   1.470   6.916  0.6747  1.3256  0.5034
   10SAPS    C3 1226   6.110   1.021   6.882  0.1499 -0.7116  0.1375
   10SAPS    HX 1227   6.201   1.056   6.936 -1.6644  2.6590  1.3089
   10SAPS    HY 1228   6.140   0.922   6.840  1.3259 -0.8551  1.2368
   10SAPS   O31 1229   6.003   1.009   6.981 -0.1465  0.3004  0.5085
   10SAPS   C31 1230   6.025   0.916   7.074 -0.3797  0.0569  0.1415
   10SAPS   O32 1231   6.121   0.844   7.073 -0.2613  0.4902  0.1450
   10SAPS   C32 1232   5.910   0.912   7.174  0.0716 -0.3068  0.9287
   10SAPS   H2X 1233   5.929   0.984   7.257 -1.3849 -0.0281  1.0535
   10SAPS   H2Y 1234   5.917   0.812   7.221  1.1518 -0.1219  1.1948
   10SAPS   C23 1235   5.971   1.380   7.086  0.0354  0.2595  0.8660
   10SAPS   H3R 1236   5.989   1.473   7.143 -1.2843  1.1924 -0.1735
   10SAPS   H3S 1237   6.066   1.322   7.082  1.1891  2.0598  1.1775
   10SAPS   C24 1238   5.862   1.294   7.154 -0.5801 -0.1022  0.0493
   10SAPS   H4R 1239   5.910   1.264   7.250 -0.8983 -0.1394  0.1995
   10SAPS   H4S 1240   5.866   1.201   7.094  0.6369 -0.6700  0.9716
   10SAPS   C25 1241   5.721   1.343   7.168 -0.8276  0.1139 -0.5097
   10SAPS   H5R 1242   5.682   1.427   7.108 -0.9635  0.5785  0.2164
   10SAPS   C26 1243   5.631   1.293   7.258  0.0259  0.6027 -0.2595
   10SAPS   H6R 1244   5.530   1.335   7.272  0.4205  1.4887  0.0538
   10SAPS   C27 1245   5.660   1.177   7.353 -0.0846 -0.5601 -0.7080
   10SAPS   H7R 1246   5.678   1.225   7.451 -0.2855  0.4268 -1.1484
   10SAPS   H7S 1247   5.750   1.121   7.322  0.8925  1.2802 -1.3145
   10SAPS   C28 1248   5.550   1.069   7.365 -0.5887  0.1175  0.1785
   10SAPS   H8R 1249   5.466   1.084   7.295 -0.1745 -0.3052 -0.4158
   10SAPS   C29 1250   5.533   0.968   7.447  0.4701 -0.3739 -0.1724
   10SAPS   H9R 1251   5.446   0.903   7.431  0.1779 -0.2684  0.9555
   10SAPS  C210 1252   5.634   0.922   7.552  0.1849  0.0518  0.9450
   10SAPS  H10R 1253   5.659   1.001   7.625  2.2852  0.5750 -0.2680
   10SAPS  H10S 1254   5.726   0.889   7.500 -0.9266 -0.2485 -0.9224
   10SAPS  C211 1255   5.572   0.800   7.617 -0.0817  0.1637  0.3145
   10SAPS  H11R 1256   5.606   0.709   7.565 -0.1612  0.0050  0.5355
   10SAPS  C212 1257   5.484   0.793   7.719 -0.1901  0.0424 -0.2428
   10SAPS  H12R 1258   5.451   0.693   7.751 -0.5702  0.4239  0.5780
   10SAPS  C213 1259   5.436   0.919   7.788  0.2041  0.2087 -0.1875
   10SAPS  H13R 1260   5.369   0.987   7.732 -1.7467 -1.9745 -0.6931
   10SAPS  H13S 1261   5.520   0.991   7.789 -1.4586  2.3306 -1.9489
   10SAPS  C214 1262   5.392   0.893   7.925  0.1993 -0.8676 -0.5175
   10SAPS  H14R 1263   5.466   0.847   7.992 -1.0777 -1.2664  0.6769
   10SAPS  C215 1264   5.269   0.929   7.974 -0.0455 -0.0285 -0.1586
   10SAPS  H15R 1265   5.262   0.913   8.082  2.4554 -2.4606 -0.2125
   10SAPS  C216 1266   5.156   1.005   7.912 -0.6565  0.2632  0.0046
   10SAPS  H16R 1267   5.073   0.933   7.894  0.0017 -0.5375  0.1309
   10SAPS  H16S 1268   5.196   1.044   7.816  1.1669  0.3307  0.7667
   10SAPS  C217 1269   5.123   1.123   8.003 -0.0253  0.6530  0.1444
   10SAPS  H17R 1270   5.108   1.214   7.940 -2.0150 -0.0565 -0.4886
   10SAPS  H17S 1271   5.204   1.169   8.063  0.1646  1.5248 -0.7417
   10SAPS  C218 1272   5.006   1.103   8.104  0.0031 -0.6540  0.7507
   10SAPS  H18R 1273   4.929   1.052   8.043 -0.0749  0.7758 -0.3930
   10SAPS  H18S 1274   4.971   1.196   8.154  1.5750  0.3841 -0.0120
   10SAPS  C219 1275   5.039   1.013   8.226  0.4208 -0.6450  0.6524
   10SAPS  H19R 1276   5.068   0.910   8.194  2.4987 -0.4642  1.7962
   10SAPS  H19S 1277   4.945   0.995   8.283 -1.5883 -0.9081 -2.5015
   10SAPS  C220 1278   5.141   1.067   8.328 -0.0428  0.6025 -0.5353
   10SAPS  H20R 1279   5.125   1.176   8.342  0.6268  0.3667  3.0679
   10SAPS  H20S 1280   5.244   1.059   8.286  0.8943 -1.8096  1.8801
   10SAPS  H20T 1281   5.129   1.015   8.426 -1.8796 -0.3915 -1.2451
   10SAPS   C33 1282   5.771   0.928   7.099  0.3659  0.1016 -0.3604
   10SAPS   H3X 1283   5.774   1.020   7.036  1.4490  1.0331  0.9846
   10SAPS   H3Y 1284   5.687   0.946   7.169  0.9560  2.2435 -0.1248
   10SAPS   C34 1285   5.736   0.803   7.023 -0.1051  0.3406  0.2982
   10SAPS   H4X 1286   5.833   0.766   6.982  0.4933  0.4729  1.5660
   10SAPS   H4Y 1287   5.672   0.831   6.937  0.3666  1.0650  0.1752
   10SAPS   C35 1288   5.660   0.692   7.099 -0.3242  0.3708 -0.1142
   10SAPS   H5X 1289   5.646   0.608   7.028  3.3324  1.2381 -2.0706
   10SAPS   H5Y 1290   5.561   0.740   7.119 -0.9235 -1.1625  0.8470
   10SAPS   C36 1291   5.719   0.631   7.230 -0.3358 -0.6487  0.7241
   10SAPS   H6X 1292   5.726   0.719   7.297  1.9444 -1.1708  1.2528
   10SAPS   H6Y 1293   5.823   0.598   7.210 -0.6356  0.2777 -3.2076
   10SAPS   C37 1294   5.630   0.524   7.291 -0.4855 -0.1336 -0.3131
   10SAPS   H7X 1295   5.602   0.442   7.222 -1.7054  1.4808 -1.8615
   10SAPS   H7Y 1296   5.530   0.566   7.316  0.3826  1.8698  0.0317
   10SAPS   C38 1297   5.694   0.458   7.421  0.2136  0.1916  0.0820
   10SAPS   H8X 1298   5.706   0.528   7.507 -1.2046 -0.2308  0.6511
   10SAPS   H8Y 1299   5.794   0.427   7.383  0.4745  1.2999 -0.1628
   10SAPS   C39 1300   5.612   0.343   7.480  0.1017  0.1504 -0.0598
   10SAPS   H9X 1301   5.672   0.284   7.552 -3.6987 -1.3116  2.2503
   10SAPS   H9Y 1302   5.588   0.276   7.394  0.3338  2.9560 -2.4776
   10SAPS  C310 1303   5.485   0.390   7.543  0.0103 -0.1724  0.1782
   10SAPS  H10X 1304   5.433   0.450   7.465 -0.8247 -2.0401 -0.7617
   10SAPS  H10Y 1305   5.522   0.458   7.622  2.5901  1.9617 -2.6227
   10SAPS  C311 1306   5.392   0.287   7.594  0.1438  0.4417  0.6087
   10SAPS  H11X 1307   5.359   0.228   7.505  2.3422  1.1418 -0.7456
   10SAPS  H11Y 1308   5.303   0.333   7.642 -1.7042 -1.8454 -0.4127
   10SAPS  C312 1309   5.453   0.195   7.704  0.3270  0.2808  0.1848
   10SAPS  H12X 1310   5.540   0.154   7.650 -0.6094  0.0486 -1.2121
   10SAPS  H12Y 1311   5.379   0.114   7.724  0.4784  0.4821  1.6573
   10SAPS  C313 1312   5.478   0.261   7.842 -0.5865  0.2236  0.0374
   10SAPS  H13X 1313   5.381   0.289   7.887  0.4816 -2.0415  4.2363
   10SAPS  H13Y 1314   5.552   0.344   7.834 -0.6592  0.4462  1.4953
   10SAPS  C314 1315   5.534   0.148   7.924  0.5271  0.0061 -0.4476
   10SAPS  H14X 1316   5.628   0.113   7.875  1.0855  1.4020 -0.4085
   10SAPS  H14Y 1317   5.457   0.070   7.944 -2.0443  2.5809  0.2984
   10SAPS  C315 1318   5.582   0.201   8.060 -0.8270 -0.5320 -0.2257
   10SAPS  H15X 1319   5.587   0.312   8.067 -0.3012 -0.6106  0.8587
   10SAPS  H15Y 1320   5.684   0.159   8.079 -2.3129 -3.6041  1.7238
   10SAPS  C316 1321   5.490   0.168   8.176  0.9880  1.0047 -0.5068
   10SAPS  H16X 1322   5.482   0.057   8.182  0.7595  1.0833  0.7981
   10SAPS  H16Y 1323   5.386   0.206   8.162  0.8304  0.4706 -0.8183
   10SAPS  C317 1324   5.545   0.205   8.316  0.6248 -0.3652  0.3427
   10SAPS  H17X 1325   5.546   0.316   8.325  0.9995 -0.1616 -1.7693
   10SAPS  H17Y 1326   5.649   0.166   8.320  1.4213  1.1894 -2.4256
   10SAPS  C318 1327   5.458   0.142   8.429 -0.3193 -0.2016 -0.2619
   10SAPS  H18X 1328   5.352   0.176   8.426 -0.2579  0.0785  0.4278
   10SAPS  H18Y 1329   5.497   0.160   8.532 -0.8592 -0.7503  0.0464
   10SAPS  H18Z 1330   5.469   0.033   8.410 -0.4073 -0.2709  0.0785
   11SAPS     N 1331   3.128   2.779   5.718  0.4558  0.1123  0.4744
   11SAPS   HN1 1332   3.148   2.755   5.618  1.0959 -1.7914  1.0092
   11SAPS   HN2 1333   3.201   2.837   5.762 -0.5170  1.0261  0.9226
   11SAPS   HN3 1334   3.130   2.691   5.774 -0.2155  0.0716  0.4495
   11SAPS   C12 1335   2.997   2.849   5.719  0.7105 -0.6729  0.3473
   11SAPS  H12A 1336   2.983   2.887   5.820 -1.8211  2.4753 -0.9782
   11SAPS   C13 1337   3.006   2.975   5.633 -0.4247 -0.7658  0.1904
   11SAPS  O13A 1338   3.122   3.021   5.605  0.4412 -0.3966  0.1799
   11SAPS  O13B 1339   2.909   3.051   5.627  0.1265 -0.8666 -0.0548
   11SAPS   C11 1340   2.879   2.753   5.680 -0.1360  0.5699 -0.0709
   11SAPS  H11A 1341   2.918   2.680   5.607  1.9600 -0.7739  2.2043
   11SAPS  H11B 1342   2.795   2.795   5.621 -1.3791 -0.7117  0.7240
   11SAPS     P 1343   2.841   2.535   5.828 -0.1173 -0.3131  0.2523
   11SAPS   O13 1344   2.857   2.456   5.707 -0.4120  0.4165 -0.6062
   11SAPS   O14 1345   2.941   2.520   5.933  0.0505  0.1840 -0.2620
   11SAPS   O12 1346   2.819   2.689   5.796 -0.3903 -0.0649 -0.3936
   11SAPS   O11 1347   2.698   2.488   5.887 -0.3824  0.2220  0.0686
   11SAPS    C1 1348   2.603   2.586   5.945 -0.2159  0.3708  0.4535
   11SAPS    HA 1349   2.595   2.675   5.878 -1.3121 -0.6025 -0.7571
   11SAPS    HB 1350   2.501   2.544   5.957 -0.2742  0.6988  1.1166
   11SAPS    C2 1351   2.649   2.626   6.092 -0.0127  0.0967  0.6851
   11SAPS    HS 1352   2.757   2.651   6.091  0.1616 -0.5698  1.6246
   11SAPS   O21 1353   2.609   2.517   6.174 -0.4090 -0.0867  0.0490
   11SAPS   C21 1354   2.692   2.504   6.282 -0.6009 -0.2466  0.8592
   11SAPS   O22 1355   2.798   2.565   6.293  0.2479  0.0095  0.0480
   11SAPS   C22 1356   2.642   2.400   6.376 -0.1719  0.0372  0.5686
   11SAPS   H2R 1357   2.533   2.384   6.359 -0.4377 -0.1089  2.3005
   11SAPS   H2S 1358   2.704   2.307   6.375 -3.0531 -2.1161  2.8812
   11SAPS    C3 1359   2.583   2.763   6.129  0.5580 -0.5205  0.3558
   11SAPS    HX 1360   2.476   2.764   6.102  0.6378  0.3624  0.0439
   11SAPS    HY 1361   2.634   2.834   6.060  1.5628 -2.8874 -1.5267
   11SAPS   O31 1362   2.594   2.790   6.269 -0.4559  0.3800  0.4334
   11SAPS   C31 1363   2.580   2.921   6.298  0.8844 -0.0233 -0.3640
   11SAPS   O32 1364   2.566   3.008   6.215  0.9618  0.0295 -0.7908
   11SAPS   C32 1365   2.601   2.944   6.447  0.1805  0.3078 -0.5573
   11SAPS   H2X 1366   2.649   2.853   6.491 -0.8405  0.5339  1.1107
   11SAPS   H2Y 1367   2.507   2.957   6.504  1.0576 -2.6399  1.8605
   11SAPS   C23 1368   2.642   2.455   6.528 -0.0107  0.7428  0.9837
   11SAPS   H3R 1369   2.566   2.535   6.539 -0.0015  0.4532  3.9637
   11SAPS   H3S 1370   2.740   2.506   6.545  1.3339 -0.8056 -1.5063
   11SAPS   C24 1371   2.629   2.343   6.623  1.0639  0.4601  0.2379
   11SAPS   H4R 1372   2.720   2.279   6.634  2.6187  2.8531  2.3788
   11SAPS   H4S 1373   2.543   2.289   6.578  0.2285  1.4071  0.6659
   11SAPS   C25 1374   2.602   2.387   6.760 -0.0636 -0.4404 -0.7184
   11SAPS   H5R 1375   2.609   2.495   6.783  2.7754 -1.1385  2.3732
   11SAPS   C26 1376   2.582   2.306   6.865 -0.1951 -1.1157  0.8135
   11SAPS   H6R 1377   2.538   2.345   6.958 -2.0419  0.9128 -0.8024
   11SAPS   C27 1378   2.577   2.164   6.851 -0.0868 -0.1345  0.0758
   11SAPS   H7R 1379   2.679   2.128   6.876  1.0164  1.8107 -1.3714
   11SAPS   H7S 1380   2.558   2.135   6.745  3.8673 -2.9568 -0.0988
   11SAPS   C28 1381   2.475   2.085   6.930 -0.3851 -0.4871  0.5050
   11SAPS   H8R 1382   2.390   2.042   6.875 -1.5013  0.5853  1.3347
   11SAPS   C29 1383   2.487   2.072   7.067  0.0445 -0.3056  0.0095
   11SAPS   H9R 1384   2.406   2.025   7.124 -1.1411 -1.0247 -2.1624
   11SAPS  C210 1385   2.602   2.121   7.150  0.2327 -0.3266 -0.8224
   11SAPS  H10R 1386   2.553   2.181   7.230 -0.6981 -0.1229 -1.5253
   11SAPS  H10S 1387   2.672   2.188   7.096 -0.4687 -0.0585 -1.4143
   11SAPS  C211 1388   2.676   2.008   7.217 -0.4661 -0.3509 -0.6736
   11SAPS  H11R 1389   2.703   1.924   7.151 -1.2590 -1.5005  0.4277
   11SAPS  C212 1390   2.678   1.983   7.352  0.6841 -0.1102 -0.1125
   11SAPS  H12R 1391   2.729   1.892   7.386 -1.5052 -0.7783  1.6431
   11SAPS  C213 1392   2.612   2.062   7.465  0.3779 -0.1970  0.3064
   11SAPS  H13R 1393   2.549   2.146   7.428 -1.2295 -0.3555  2.4584
   11SAPS  H13S 1394   2.694   2.103   7.529 -0.7559 -0.0723  1.7270
   11SAPS  C214 1395   2.532   1.973   7.556  0.8415 -0.5748  0.0881
   11SAPS  H14R 1396   2.450   1.922   7.502  2.2451  0.1213 -2.9287
   11SAPS  C215 1397   2.531   1.963   7.686 -0.1045 -0.0379  0.2529
   11SAPS  H15R 1398   2.472   1.882   7.732  0.1222  0.6658  1.8701
   11SAPS  C216 1399   2.626   2.034   7.778  0.1557  0.0895 -0.3233
   11SAPS  H16R 1400   2.643   2.136   7.739  0.3725  0.0878 -0.2321
   11SAPS  H16S 1401   2.728   1.989   7.779 -0.8228 -2.3324 -0.9264
   11SAPS  C217 1402   2.560   2.045   7.911 -0.0473 -0.9969 -0.1295
   11SAPS  H17R 1403   2.451   2.063   7.897  0.2667  0.5710 -0.6521
   11SAPS  H17S 1404   2.606   2.133   7.960 -0.3400 -0.4238 -0.8752
   11SAPS  C218 1405   2.583   1.926   8.005  0.3369  0.2276 -0.2367
   11SAPS  H18R 1406   2.555   1.827   7.962  1.0521  0.2574 -0.7875
   11SAPS  H18S 1407   2.508   1.943   8.085  1.1666  2.4007  0.1583
   11SAPS  C219 1408   2.724   1.898   8.055 -0.0297  0.4133 -0.2327
   11SAPS  H19R 1409   2.784   1.876   7.964 -2.5829  0.3016 -1.9692
   11SAPS  H19S 1410   2.726   1.821   8.135 -1.5895  2.4443  1.9039
   11SAPS  C220 1411   2.777   2.024   8.133 -0.3119  0.3687 -0.2336
   11SAPS  H20R 1412   2.843   2.000   8.219  0.7024  2.8479 -0.2383
   11SAPS  H20S 1413   2.687   2.084   8.157  1.5043  4.3056 -2.2643
   11SAPS  H20T 1414   2.841   2.077   8.060  0.9452  1.2640  1.4461
   11SAPS   C33 1415   2.690   3.058   6.486 -0.5390 -0.3275 -0.5914
   11SAPS   H3X 1416   2.642   3.158   6.488  0.9138  0.4466  2.8936
   11SAPS   H3Y 1417   2.782   3.059   6.424  1.6870  0.5759  2.4496
   11SAPS   C34 1418   2.740   3.042   6.636 -0.1654 -0.4411  0.1993
   11SAPS   H4X 1419   2.826   3.112   6.645 -0.0022 -0.7293  0.9209
   11SAPS   H4Y 1420   2.784   2.940   6.646  0.6796 -0.3138 -1.7480
   11SAPS   C35 1421   2.639   3.047   6.759  0.3344 -0.2883  0.3270
   11SAPS   H5X 1422   2.709   3.053   6.845  1.4958  0.1579 -0.6249
   11SAPS   H5Y 1423   2.582   2.952   6.758  3.3842 -2.2740 -0.7596
   11SAPS   C36 1424   2.547   3.172   6.755 -0.3764 -0.4595  0.1894
   11SAPS   H6X 1425   2.495   3.176   6.657 -0.2451 -3.3190 -0.0685
   11SAPS   H6Y 1426   2.622   3.253   6.759  1.7592 -2.3640  0.5124
   11SAPS   C37 1427   2.435   3.168   6.853 -0.7533 -0.4684 -0.0548
   11SAPS   H7X 1428   2.353   3.102   6.818 -1.2957 -0.8542  1.8358
   11SAPS   H7Y 1429   2.390   3.269   6.867 -0.4017 -0.5874  2.3241
   11SAPS   C38 1430   2.456   3.101   6.994  0.6011  0.4328 -1.2817
   11SAPS   H8X 1431   2.516   3.007   6.984 -1.5794 -0.8684 -3.0622
   11SAPS   H8Y 1432   2.360   3.066   7.037  1.6741 -0.8406  0.1998
   11SAPS   C39 1433   2.527   3.182   7.099  0.0568 -0.6491 -0.2163
   11SAPS   H9X 1434   2.455   3.253   7.146 -0.4155 -1.9967  1.1716
   11SAPS   H9Y 1435   2.602   3.246   7.047  0.8751  0.5622  2.2914
   11SAPS  C310 1436   2.587   3.108   7.225 -0.4223  0.2745  0.7504
   11SAPS  H10X 1437   2.661   3.031   7.193  0.9047  1.1742  1.5261
   11SAPS  H10Y 1438   2.505   3.058   7.281 -0.0640 -0.8077  0.3396
   11SAPS  C311 1439   2.643   3.205   7.327 -0.0946  0.9104  0.6029
   11SAPS  H11X 1440   2.663   3.299   7.273  0.1993  1.1623  1.1429
   11SAPS  H11Y 1441   2.735   3.169   7.377  0.5646  2.8023  0.8088
   11SAPS  C312 1442   2.549   3.222   7.448  0.6774 -0.2341  0.6668
   11SAPS  H12X 1443   2.531   3.120   7.488  1.9633 -0.5405  0.4977
   11SAPS  H12Y 1444   2.457   3.269   7.406  0.2691 -0.0892  1.7018
   11SAPS  C313 1445   2.608   3.313   7.562  0.5155  0.3669  0.3961
   11SAPS  H13X 1446   2.626   3.411   7.512 -1.0447 -0.1563 -1.2784
   11SAPS  H13Y 1447   2.703   3.272   7.603  1.2289  1.0898 -0.4762
   11SAPS  C314 1448   2.512   3.328   7.672 -0.4129 -0.8300 -0.4480
   11SAPS  H14X 1449   2.489   3.228   7.714 -1.2892  0.2928  1.9125
   11SAPS  H14Y 1450   2.417   3.371   7.634 -1.7088 -0.3592  2.9925
   11SAPS  C315 1451   2.569   3.415   7.781 -0.3941 -0.0887  0.1051
   11SAPS  H15X 1452   2.589   3.522   7.760 -2.3678  0.6063  1.4819
   11SAPS  H15Y 1453   2.666   3.380   7.820 -1.2361 -0.3452  2.1079
   11SAPS  C316 1454   2.488   3.421   7.907  0.9665  0.1435 -0.1921
   11SAPS  H16X 1455   2.386   3.460   7.886  1.1225  0.8708  0.3857
   11SAPS  H16Y 1456   2.533   3.495   7.976  1.7663  0.5386 -1.1165
   11SAPS  C317 1457   2.477   3.283   7.984 -0.3341 -0.6647 -0.8428
   11SAPS  H17X 1458   2.580   3.244   7.997 -0.3809 -0.4437  0.2291
   11SAPS  H17Y 1459   2.415   3.215   7.921 -2.1593  1.8390 -1.9264
   11SAPS  C318 1460   2.414   3.306   8.121 -0.3027  0.9390  0.7058
   11SAPS  H18X 1461   2.305   3.323   8.124 -0.4245  0.3162  0.0313
   11SAPS  H18Y 1462   2.462   3.392   8.172  0.5119  1.3337 -0.6765
   11SAPS  H18Z 1463   2.421   3.210   8.177  0.3421  0.9719  0.6920
   12SAPS     N 1464   1.186   3.779   6.053  0.2200  0.1005  0.3660
   12SAPS   HN1 1465   1.148   3.713   6.123  1.5170 -3.1056 -1.7121
   12SAPS   HN2 1466   1.147   3.747   5.962  1.0008  1.7956 -0.6308
   12SAPS   HN3 1467   1.290   3.788   6.047  0.1730 -0.2702 -1.6303
   12SAPS   C12 1468   1.116   3.916   6.079  0.8769 -0.2558  0.6601
   12SAPS  H12A 1469   1.137   3.983   5.997  0.7460 -1.6615 -0.5534
   12SAPS   C13 1470   0.969   3.897   6.099 -0.6131 -0.3846  0.3586
   12SAPS  O13A 1471   0.911   3.787   6.079 -0.3309  0.3282  0.2007
   12SAPS  O13B 1472   0.901   4.004   6.103 -0.4333 -0.4208  0.4053
   12SAPS   C11 1473   1.173   3.979   6.207 -0.0057 -0.0387 -0.3329
   12SAPS  H11A 1474   1.149   3.907   6.289  1.9452 -0.4966 -0.1263
   12SAPS  H11B 1475   1.118   4.067   6.245 -1.4810 -0.7862 -0.6252
   12SAPS     P 1476   1.376   4.113   6.124 -0.0888  0.3428  0.0214
   12SAPS   O13 1477   1.468   4.065   6.022  0.1000 -0.2880 -0.0252
   12SAPS   O14 1478   1.275   4.213   6.091  1.0122 -0.3045  0.0952
   12SAPS   O12 1479   1.315   3.987   6.195  0.1091  0.1553 -0.2023
   12SAPS   O11 1480   1.468   4.172   6.244 -0.2079  0.0004  0.5092
   12SAPS    C1 1481   1.425   4.265   6.344 -0.2983 -0.6080 -0.2244
   12SAPS    HA 1482   1.505   4.337   6.370 -0.3169 -0.1460 -1.3554
   12SAPS    HB 1483   1.343   4.334   6.312 -0.4549 -0.4945  0.4133
   12SAPS    C2 1484   1.366   4.199   6.468  0.2677 -0.6823  0.0998
   12SAPS    HS 1485   1.291   4.122   6.438 -0.6870  1.1485 -2.5877
   12SAPS   O21 1486   1.310   4.304   6.554 -0.1008  0.0336 -0.4391
   12SAPS   C21 1487   1.208   4.258   6.631  0.0491 -0.1722  0.6374
   12SAPS   O22 1488   1.160   4.147   6.624  0.0542 -0.1454  0.2512
   12SAPS   C22 1489   1.180   4.364   6.737  0.4830  0.3109 -0.0672
   12SAPS   H2R 1490   1.270   4.417   6.774  0.7904 -0.5270  0.4166
   12SAPS   H2S 1491   1.126   4.441   6.678  1.6256  1.3824  0.2463
   12SAPS    C3 1492   1.483   4.134   6.552  0.3482 -0.0236  0.0217
   12SAPS    HX 1493   1.559   4.214   6.566 -0.3977  0.8814 -0.9785
   12SAPS    HY 1494   1.506   4.055   6.478  0.0439  0.2497 -0.3679
   12SAPS   O31 1495   1.445   4.068   6.672 -0.0278 -0.0017 -0.1262
   12SAPS   C31 1496   1.515   3.966   6.711  0.4363 -0.0201  0.2197
   12SAPS   O32 1497   1.612   3.923   6.652  0.0406  0.2838  0.4701
   12SAPS   C32 1498   1.473   3.918   6.854  0.2106  0.2235  0.3434
   12SAPS   H2X 1499   1.518   3.818   6.869 -2.4211 -1.2774 -1.0206
   12SAPS   H2Y 1500   1.364   3.908   6.869  0.3470  0.5780  1.6351
   12SAPS   C23 1501   1.090   4.311   6.846 -0.0213 -0.7895 -0.1040
   12SAPS   H3R 1502   1.102   4.201   6.850 -0.3086 -0.9829 -2.8187
   12SAPS   H3S 1503   0.981   4.325   6.828  0.0345 -1.9860 -1.6131
   12SAPS   C24 1504   1.128   4.354   6.989 -0.2088 -0.3151  0.7232
   12SAPS   H4R 1505   1.236   4.335   7.008  0.0656  1.7634  1.4998
   12SAPS   H4S 1506   1.077   4.290   7.064  0.8394 -1.1410  0.7663
   12SAPS   C25 1507   1.083   4.490   7.019  0.3780  0.3089  0.0714
   12SAPS   H5R 1508   1.115   4.568   6.948 -1.3162  1.7880  0.8389
   12SAPS   C26 1509   0.998   4.528   7.119  0.0843  0.6094 -0.1464
   12SAPS   H6R 1510   0.977   4.636   7.130 -2.5930  0.2223 -0.7360
   12SAPS   C27 1511   0.927   4.447   7.232  0.6387  0.0627  0.1818
   12SAPS   H7R 1512   0.850   4.382   7.184  0.2658  1.0716 -0.6129
   12SAPS   H7S 1513   0.872   4.514   7.301 -0.9489 -0.0471 -0.9282
   12SAPS   C28 1514   1.018   4.363   7.327 -0.6074 -0.2809 -0.3258
   12SAPS   H8R 1515   1.075   4.292   7.265 -0.7027  1.6944 -2.8354
   12SAPS   C29 1516   1.049   4.370   7.462 -1.0116  0.2314  0.6507
   12SAPS   H9R 1517   1.104   4.286   7.507  1.4827  1.8814  0.8946
   12SAPS  C210 1518   0.993   4.465   7.566  0.7113 -0.0518  0.1830
   12SAPS  H10R 1519   1.004   4.564   7.517 -1.7505  0.3177  0.2851
   12SAPS  H10S 1520   1.068   4.468   7.648  1.0685  3.5745 -0.1085
   12SAPS  C211 1521   0.847   4.444   7.602 -0.2370 -0.1429 -0.8225
   12SAPS  H11R 1522   0.765   4.469   7.532 -1.0415 -0.6447 -0.0815
   12SAPS  C212 1523   0.805   4.397   7.721  0.7223  0.3098 -0.6297
   12SAPS  H12R 1524   0.697   4.386   7.739  0.8440 -1.8237 -0.9706
   12SAPS  C213 1525   0.898   4.353   7.830  0.2779  0.4781  0.0117
   12SAPS  H13R 1526   0.879   4.412   7.922 -2.1613 -1.8426  1.1381
   12SAPS  H13S 1527   1.007   4.356   7.809  0.6164 -0.5783  1.4472
   12SAPS  C214 1528   0.876   4.204   7.872 -0.0881  0.2074  0.1386
   12SAPS  H14R 1529   0.792   4.181   7.939 -0.2626 -1.3925 -0.5862
   12SAPS  C215 1530   0.942   4.098   7.823  0.2093 -0.2411  0.9238
   12SAPS  H15R 1531   0.907   3.999   7.855 -0.4557  0.2696  1.8329
   12SAPS  C216 1532   1.057   4.092   7.732  0.3789 -0.5700 -0.1464
   12SAPS  H16R 1533   1.122   4.014   7.777  0.2914 -0.2722  0.5067
   12SAPS  H16S 1534   1.124   4.181   7.726  2.5017 -2.0192  0.7151
   12SAPS  C217 1535   1.022   4.050   7.582  0.1939 -0.2487  0.3680
   12SAPS  H17R 1536   1.107   4.041   7.511 -0.3568 -2.2021 -0.1029
   12SAPS  H17S 1537   0.955   4.118   7.525 -0.4394 -1.1801 -0.0386
   12SAPS  C218 1538   0.959   3.912   7.573 -0.1848  0.1108 -0.0475
   12SAPS  H18R 1539   0.853   3.917   7.607 -0.0468  0.6521  0.3124
   12SAPS  H18S 1540   1.015   3.832   7.627 -1.3594 -1.2120 -0.7208
   12SAPS  C219 1541   0.954   3.860   7.428 -0.9577 -0.5602  0.2224
   12SAPS  H19R 1542   1.061   3.850   7.401 -1.4192 -0.8645 -1.6612
   12SAPS  H19S 1543   0.917   3.948   7.371  1.0995  0.4640  0.3834
   12SAPS  C220 1544   0.873   3.737   7.393 -0.4984  0.4288  0.1148
   12SAPS  H20R 1545   0.925   3.641   7.414  1.2134  1.5010  1.0480
   12SAPS  H20S 1546   0.853   3.736   7.283 -0.1405  1.9605  0.0092
   12SAPS  H20T 1547   0.776   3.729   7.445 -0.6355  1.8467  0.1280
   12SAPS   C33 1548   1.525   4.021   6.957 -0.8564  0.4284  0.9782
   12SAPS   H3X 1549   1.516   4.122   6.911  4.9220  1.4826  1.3585
   12SAPS   H3Y 1550   1.634   4.001   6.962 -1.0231 -0.6589  0.6168
   12SAPS   C34 1551   1.453   4.024   7.095 -0.2194  0.3275 -0.2597
   12SAPS   H4X 1552   1.432   3.924   7.139  1.9020  0.3325  0.8602
   12SAPS   H4Y 1553   1.353   4.070   7.078  0.5920  1.7738 -1.2961
   12SAPS   C35 1554   1.517   4.113   7.197 -0.2412  0.5520  0.5560
   12SAPS   H5X 1555   1.574   4.195   7.149  0.5631  0.4604  1.3417
   12SAPS   H5Y 1556   1.596   4.058   7.251  0.1672  0.6497  0.0620
   12SAPS   C36 1557   1.411   4.158   7.299 -0.8176  0.6903 -0.3116
   12SAPS   H6X 1558   1.345   4.078   7.340  1.3697 -1.6470 -1.1134
   12SAPS   H6Y 1559   1.344   4.232   7.250  0.9634  3.0492  0.6517
   12SAPS   C37 1560   1.479   4.229   7.414 -0.0303  0.6612  0.1566
   12SAPS   H7X 1561   1.554   4.300   7.373  0.1299  0.6417  0.4153
   12SAPS   H7Y 1562   1.544   4.161   7.474 -1.0802 -0.5614 -0.0483
   12SAPS   C38 1563   1.391   4.304   7.511 -0.3242  0.1262  0.0385
   12SAPS   H8X 1564   1.301   4.243   7.532 -0.8924  0.1933 -2.0123
   12SAPS   H8Y 1565   1.353   4.390   7.450  0.5076 -0.7425 -1.7921
   12SAPS   C39 1566   1.454   4.352   7.647 -0.1218 -0.3309  0.1621
   12SAPS   H9X 1567   1.526   4.434   7.627  1.2983 -1.0163  2.2372
   12SAPS   H9Y 1568   1.516   4.271   7.690 -0.2655 -1.3094 -1.4031
   12SAPS  C310 1569   1.351   4.387   7.745  0.6812 -0.0425 -0.2882
   12SAPS  H10X 1570   1.302   4.292   7.779  1.1013  0.8302  3.1551
   12SAPS  H10Y 1571   1.289   4.460   7.688  2.3401  0.8180 -1.0611
   12SAPS  C311 1572   1.408   4.445   7.869  0.1328  0.3618  0.2108
   12SAPS  H11X 1573   1.427   4.552   7.848 -2.8923  1.1008  0.8170
   12SAPS  H11Y 1574   1.507   4.404   7.899  0.4116  1.3991  0.7486
   12SAPS  C312 1575   1.320   4.425   7.996  0.2655 -0.6734 -0.2069
   12SAPS  H12X 1576   1.383   4.440   8.087  0.4184 -0.9382 -0.2676
   12SAPS  H12Y 1577   1.292   4.318   8.006 -2.3385  0.0729  2.1561
   12SAPS  C313 1578   1.190   4.514   8.010 -0.7371  0.3492  0.6583
   12SAPS  H13X 1579   1.128   4.481   7.923 -2.5922  1.7936  1.3776
   12SAPS  H13Y 1580   1.202   4.624   8.000 -1.4547  0.3581 -0.2877
   12SAPS  C314 1581   1.113   4.485   8.136 -1.1201 -0.0895 -0.3364
   12SAPS  H14X 1582   1.074   4.381   8.138 -1.9713  0.1944  2.9486
   12SAPS  H14Y 1583   1.021   4.547   8.128 -1.6075 -0.8655 -0.9288
   12SAPS  C315 1584   1.186   4.519   8.271  0.2679 -0.6518  0.2244
   12SAPS  H15X 1585   1.219   4.623   8.293  0.1474 -0.8631  1.4266
   12SAPS  H15Y 1586   1.289   4.478   8.274  0.1210 -0.9420  1.6739
   12SAPS  C316 1587   1.106   4.472   8.390 -0.7237  0.4903 -0.1026
   12SAPS  H16X 1588   1.026   4.546   8.409  2.3632  3.8225  1.0517
   12SAPS  H16Y 1589   1.182   4.482   8.471  0.1940 -0.8749 -0.7537
   12SAPS  C317 1590   1.076   4.317   8.398 -0.7131  0.7125  0.2970
   12SAPS  H17X 1591   0.998   4.288   8.324 -0.7121 -0.1908  0.6330
   12SAPS  H17Y 1592   1.025   4.307   8.496  0.0295 -1.1955  0.5383
   12SAPS  C318 1593   1.200   4.228   8.411  0.0173 -0.5115 -0.0724
   12SAPS  H18X 1594   1.175   4.120   8.418  0.2895 -0.5640  0.0883
   12SAPS  H18Y 1595   1.250   4.241   8.509 -1.2782 -1.8735  0.8119
   12SAPS  H18Z 1596   1.271   4.252   8.329  0.1625 -1.2645 -0.1747
   13SAPS     N 1597   3.221   0.290   6.107 -0.3717 -0.8084  0.1940
   13SAPS   HN1 1598   3.164   0.323   6.188 -0.9298 -0.6834 -0.2454
   13SAPS   HN2 1599   3.162   0.269   6.024 -1.1259  0.5792  0.3513
   13SAPS   HN3 1600   3.276   0.206   6.136  0.3494  0.7206  3.8446
   13SAPS   C12 1601   3.324   0.401   6.068  0.7167 -0.5210 -0.9293
   13SAPS  H12A 1602   3.368   0.431   6.161 -0.1635 -0.2967 -0.5768
   13SAPS   C13 1603   3.439   0.357   5.973 -0.4393  0.5627 -0.3165
   13SAPS  O13A 1604   3.437   0.239   5.928 -0.0925 -0.0949 -0.7946
   13SAPS  O13B 1605   3.514   0.442   5.934  0.0053  0.1262 -0.2478
   13SAPS   C11 1606   3.242   0.517   6.028  0.9673 -0.5670 -0.3966
   13SAPS  H11A 1607   3.189   0.517   5.931  0.4497  2.5092 -0.1948
   13SAPS  H11B 1608   3.313   0.602   6.016 -0.2220  0.5034  0.0463
   13SAPS     P 1609   3.105   0.705   6.159 -0.0059 -0.4755  0.3746
   13SAPS   O13 1610   3.167   0.802   6.060 -0.6101  0.2654  0.3520
   13SAPS   O14 1611   2.958   0.699   6.176 -0.4019  0.0394 -0.0293
   13SAPS   O12 1612   3.150   0.562   6.128  0.1235  0.9345 -0.0952
   13SAPS   O11 1613   3.175   0.738   6.293  0.5449 -0.5305 -0.0481
   13SAPS    C1 1614   3.186   0.636   6.395 -0.1716  0.3078  0.8175
   13SAPS    HA 1615   3.087   0.604   6.434  0.0898 -1.1723  0.3305
   13SAPS    HB 1616   3.228   0.539   6.360 -0.9462 -0.0976  0.9791
   13SAPS    C2 1617   3.264   0.695   6.509  0.5888  0.0423 -0.1790
   13SAPS    HS 1618   3.358   0.735   6.465 -1.0895  0.1775 -4.0193
   13SAPS   O21 1619   3.278   0.588   6.611 -0.0440 -0.2122  0.1892
   13SAPS   C21 1620   3.375   0.611   6.702 -0.0446  0.3996  0.1374
   13SAPS   O22 1621   3.459   0.697   6.702 -0.6814  0.1479 -0.2786
   13SAPS   C22 1622   3.349   0.501   6.817 -0.3128 -0.4223  0.4716
   13SAPS   H2R 1623   3.247   0.460   6.801  0.6494 -1.9802 -2.4638
   13SAPS   H2S 1624   3.427   0.425   6.796 -1.4045 -1.5280  0.3384
   13SAPS    C3 1625   3.182   0.814   6.573  0.4395 -0.1553  0.8099
   13SAPS    HX 1626   3.074   0.787   6.581  0.2412  0.2886 -0.1697
   13SAPS    HY 1627   3.189   0.889   6.491 -0.4462 -0.0408  0.8274
   13SAPS   O31 1628   3.219   0.869   6.701 -0.3729  0.0753 -0.5736
   13SAPS   C31 1629   3.254   1.002   6.713 -0.0398 -0.3807  0.0227
   13SAPS   O32 1630   3.258   1.083   6.620  0.0615 -0.4596  0.0768
   13SAPS   C32 1631   3.300   1.022   6.851  0.2958 -0.5273  0.2976
   13SAPS   H2X 1632   3.407   0.995   6.861  0.4324  0.5700  2.6090
   13SAPS   H2Y 1633   3.258   0.946   6.921  0.0650 -0.3583  0.3438
   13SAPS   C23 1634   3.380   0.567   6.953  0.2264 -0.4706  0.0338
   13SAPS   H3R 1635   3.319   0.659   6.964  0.5253 -0.3549  0.7572
   13SAPS   H3S 1636   3.479   0.614   6.968  0.4602 -0.4115 -1.5045
   13SAPS   C24 1637   3.375   0.464   7.065  0.4291  0.9488 -0.1390
   13SAPS   H4R 1638   3.444   0.482   7.150 -0.3135 -0.4913  0.8083
   13SAPS   H4S 1639   3.412   0.372   7.015  1.1309  0.6718  0.8651
   13SAPS   C25 1640   3.228   0.436   7.112 -0.3367 -0.4443  0.2940
   13SAPS   H5R 1641   3.168   0.416   7.022 -0.2726 -4.7470  0.9643
   13SAPS   C26 1642   3.178   0.414   7.229  0.1808 -0.6732 -0.4728
   13SAPS   H6R 1643   3.070   0.410   7.248  0.3010  1.7004  1.1232
   13SAPS   C27 1644   3.257   0.420   7.360  0.0933  0.4062  1.0947
   13SAPS   H7R 1645   3.363   0.446   7.338 -0.2397  0.8186 -0.0819
   13SAPS   H7S 1646   3.270   0.316   7.399  0.2950  0.3580  0.9045
   13SAPS   C28 1647   3.198   0.507   7.470  0.3785  0.8181 -0.3946
   13SAPS   H8R 1648   3.092   0.535   7.464  0.8889  2.9505 -0.1007
   13SAPS   C29 1649   3.260   0.549   7.582 -0.9857 -0.2289  0.1977
   13SAPS   H9R 1650   3.208   0.617   7.652 -0.7474  0.8694 -0.6554
   13SAPS  C210 1651   3.406   0.513   7.618  0.9601 -0.5785  0.1878
   13SAPS  H10R 1652   3.457   0.612   7.625 -0.1051 -0.1015  1.5882
   13SAPS  H10S 1653   3.459   0.470   7.531  0.0831 -0.3803 -0.4537
   13SAPS  C211 1654   3.413   0.418   7.741 -0.1810 -0.4772 -0.1969
   13SAPS  H11R 1655   3.387   0.315   7.715 -1.4747 -0.7972  2.0771
   13SAPS  C212 1656   3.434   0.449   7.871 -0.8380  0.4128  0.5437
   13SAPS  H12R 1657   3.410   0.369   7.942 -0.9883 -2.7165 -2.7224
   13SAPS  C213 1658   3.479   0.577   7.922 -0.3507 -0.3385 -0.1520
   13SAPS  H13R 1659   3.520   0.634   7.837  1.6788  0.5966  1.3722
   13SAPS  H13S 1660   3.564   0.575   7.994 -1.4308 -1.4816  1.1812
   13SAPS  C214 1661   3.363   0.647   7.990  0.3000 -0.1298  0.0800
   13SAPS  H14R 1662   3.276   0.661   7.925  0.0760 -0.0457  0.3983
   13SAPS  C215 1663   3.353   0.685   8.116  0.3098 -0.2126  0.9295
   13SAPS  H15R 1664   3.263   0.737   8.154  1.0182 -0.3817  2.9323
   13SAPS  C216 1665   3.456   0.677   8.227  0.5664 -0.2442  0.2444
   13SAPS  H16R 1666   3.541   0.743   8.203  0.3802 -0.0515  0.1070
   13SAPS  H16S 1667   3.486   0.570   8.234 -2.5271 -1.2257  0.2669
   13SAPS  C217 1668   3.402   0.707   8.370 -0.2100 -0.2015  0.3483
   13SAPS  H17R 1669   3.493   0.687   8.431 -0.5918 -1.5614  0.5052
   13SAPS  H17S 1670   3.324   0.630   8.384  0.3826 -0.5898  1.7606
   13SAPS  C218 1671   3.367   0.856   8.378  0.2785 -0.9583 -0.0138
   13SAPS  H18R 1672   3.332   0.871   8.482 -1.1816 -3.5172 -0.0601
   13SAPS  H18S 1673   3.280   0.873   8.311 -0.3017 -1.8231  0.4913
   13SAPS  C219 1674   3.473   0.960   8.341 -0.0867  0.3726  0.3444
   13SAPS  H19R 1675   3.504   0.949   8.235 -0.0404 -1.8488  0.5321
   13SAPS  H19S 1676   3.564   0.937   8.400 -0.4529 -0.7920  0.4931
   13SAPS  C220 1677   3.425   1.104   8.340  0.1856 -0.2569 -0.3300
   13SAPS  H20R 1678   3.382   1.136   8.437 -0.6353  1.5320 -1.2243
   13SAPS  H20S 1679   3.345   1.121   8.264  0.4084  0.2908 -0.4478
   13SAPS  H20T 1680   3.515   1.167   8.327 -0.1283  0.8101  2.0786
   13SAPS   C33 1681   3.261   1.166   6.901 -0.8992 -0.1133 -0.3918
   13SAPS   H3X 1682   3.186   1.213   6.834  0.0224 -0.4338 -1.6814
   13SAPS   H3Y 1683   3.351   1.231   6.902 -1.8415  1.2428 -0.3214
   13SAPS   C34 1684   3.205   1.163   7.043 -0.1631  0.1551 -0.3866
   13SAPS   H4X 1685   3.213   1.265   7.087 -0.1317  1.5244 -3.3335
   13SAPS   H4Y 1686   3.259   1.093   7.111  0.0790 -0.6484 -1.3875
   13SAPS   C35 1687   3.051   1.136   7.040  0.5996  0.1365 -0.1614
   13SAPS   H5X 1688   3.040   1.032   7.001  0.5013 -0.1322  0.5569
   13SAPS   H5Y 1689   3.010   1.198   6.958  2.9722 -0.3683 -1.8082
   13SAPS   C36 1690   2.975   1.155   7.170  0.9328  0.1416  0.3419
   13SAPS   H6X 1691   2.904   1.070   7.170  0.8234  0.1951  2.2786
   13SAPS   H6Y 1692   2.908   1.243   7.182 -0.8678 -1.0488 -0.4783
   13SAPS   C37 1693   3.057   1.141   7.297 -0.6480  0.4030 -0.5121
   13SAPS   H7X 1694   3.141   1.215   7.295  1.5631 -1.9696 -1.1580
   13SAPS   H7Y 1695   3.102   1.041   7.310 -0.7310  0.4226 -0.0622
   13SAPS   C38 1696   2.960   1.164   7.419 -0.3011 -0.3171 -0.2904
   13SAPS   H8X 1697   2.883   1.085   7.407  0.3817 -0.9640 -0.5043
   13SAPS   H8Y 1698   2.919   1.267   7.432 -0.5833 -0.6594  2.0393
   13SAPS   C39 1699   3.039   1.139   7.550 -0.3588  0.0431 -0.0291
   13SAPS   H9X 1700   3.123   1.211   7.549 -0.0927 -0.2256 -2.2842
   13SAPS   H9Y 1701   3.082   1.036   7.542 -0.1445  0.2502 -1.8416
   13SAPS  C310 1702   2.963   1.140   7.684 -0.1756  0.4062  0.1561
   13SAPS  H10X 1703   2.874   1.074   7.681 -0.4069  0.7320 -0.2367
   13SAPS  H10Y 1704   2.928   1.245   7.689 -1.5806 -0.0125 -0.4345
   13SAPS  C311 1705   3.052   1.095   7.797 -0.5227  0.3471 -0.2593
   13SAPS  H11X 1706   3.145   1.148   7.768  1.0939 -2.3797 -0.3922
   13SAPS  H11Y 1707   3.068   0.985   7.792  0.8638  0.5573 -0.8047
   13SAPS  C312 1708   2.996   1.149   7.932 -0.0003  0.1693 -0.1434
   13SAPS  H12X 1709   2.886   1.129   7.936 -0.6283  3.2284 -0.0076
   13SAPS  H12Y 1710   2.999   1.259   7.943 -0.2142  0.0809  0.9087
   13SAPS  C313 1711   3.050   1.086   8.063  0.1337 -0.3967  0.6060
   13SAPS  H13X 1712   3.151   1.121   8.093  0.5113  0.4666 -1.4920
   13SAPS  H13Y 1713   3.064   0.977   8.046  2.8261 -0.0011 -0.2439
   13SAPS  C314 1714   2.955   1.116   8.180  0.0168 -0.0238  0.9270
   13SAPS  H14X 1715   2.859   1.066   8.155  1.3627 -3.6203  2.2218
   13SAPS  H14Y 1716   2.951   1.227   8.192  0.3827  0.1642 -0.6179
   13SAPS  C315 1717   3.000   1.048   8.311 -0.3977 -0.2368 -0.4627
   13SAPS  H15X 1718   3.104   1.081   8.333 -1.2664  2.3013  0.1972
   13SAPS  H15Y 1719   3.003   0.938   8.293  1.4394 -0.9144  3.0677
   13SAPS  C316 1720   2.916   1.091   8.439 -0.6525 -0.3253  0.5422
   13SAPS  H16X 1721   2.812   1.099   8.400 -0.7123 -1.8187  0.3554
   13SAPS  H16Y 1722   2.951   1.193   8.466  1.0702  0.0205 -2.5489
   13SAPS  C317 1723   2.938   0.987   8.544 -0.0629  0.6003  0.1921
   13SAPS  H17X 1724   3.047   0.988   8.564  0.0627 -0.9043 -0.2892
   13SAPS  H17Y 1725   2.928   0.888   8.495  2.0988 -0.1605  1.1866
   13SAPS  C318 1726   2.867   0.997   8.680 -0.2541  0.1541 -0.3243
   13SAPS  H18X 1727   2.845   1.099   8.718 -2.3500 -1.1044  2.1146
   13SAPS  H18Y 1728   2.929   0.943   8.753 -0.3194  0.1578 -0.2650
   13SAPS  H18Z 1729   2.767   0.948   8.676 -1.3512  2.3275 -2.0215
   14SAPS     N 1730   3.463   4.483   5.598  0.1378 -0.0513  0.1444
   14SAPS   HN1 1731   3.531   4.537   5.655  0.5618  0.5862 -0.9379
   14SAPS   HN2 1732   3.523   4.445   5.523 -0.6763  0.2000 -0.6582
   14SAPS   HN3 1733   3.395   4.549   5.555 -1.0041 -1.7229 -0.7121
   14SAPS   C12 1734   3.394   4.373   5.668 -0.2597  0.1038 -0.6136
   14SAPS  H12A 1735   3.313   4.358   5.598  1.2023 -0.9009 -2.1563
   14SAPS   C13 1736   3.478   4.250   5.675 -0.2296  1.3082 -0.5189
   14SAPS  O13A 1737   3.585   4.245   5.610 -0.1871  0.1583 -0.5510
   14SAPS  O13B 1738   3.430   4.145   5.728 -0.1471 -0.2034 -0.4776
   14SAPS   C11 1739   3.336   4.412   5.810 -0.0231 -0.4926  0.2982
   14SAPS  H11A 1740   3.426   4.425   5.872 -0.5508  0.0371  0.9719
   14SAPS  H11B 1741   3.276   4.325   5.845  1.3027 -0.8061  1.8672
   14SAPS     P 1742   3.255   4.634   5.925 -0.3172  0.0173  0.2378
   14SAPS   O13 1743   3.384   4.696   5.937 -0.0804 -0.8818  0.2445
   14SAPS   O14 1744   3.133   4.719   5.911 -0.3576  0.2696 -0.4295
   14SAPS   O12 1745   3.260   4.532   5.800  0.5543 -0.2110  0.6274
   14SAPS   O11 1746   3.249   4.535   6.051  0.1610 -0.2032  0.7861
   14SAPS    C1 1747   3.133   4.484   6.112  0.4328  0.0307 -0.1615
   14SAPS    HA 1748   3.050   4.450   6.047 -0.0057 -3.4055  1.9650
   14SAPS    HB 1749   3.162   4.393   6.167 -1.9379 -1.0389 -0.5696
   14SAPS    C2 1750   3.082   4.589   6.214  0.2493  0.1312 -0.9477
   14SAPS    HS 1751   3.046   4.674   6.152  0.3305 -0.2294 -1.5042
   14SAPS   O21 1752   3.190   4.636   6.296  0.2144 -0.5001 -0.3526
   14SAPS   C21 1753   3.173   4.756   6.345  0.5121  0.5493  0.3251
   14SAPS   O22 1754   3.085   4.840   6.317 -0.2823 -0.0387  0.0340
   14SAPS   C22 1755   3.279   4.768   6.454  0.2095  1.6177 -0.1295
   14SAPS   H2R 1756   3.305   4.674   6.506 -2.5172 -1.1668 -3.3559
   14SAPS   H2S 1757   3.367   4.809   6.401  0.0932  1.2619 -0.5994
   14SAPS    C3 1758   2.958   4.530   6.288  0.1720 -0.1726 -0.5332
   14SAPS    HX 1759   2.981   4.429   6.328  3.2731 -0.7067 -3.2727
   14SAPS    HY 1760   2.883   4.523   6.207 -0.8246  0.3982  0.3086
   14SAPS   O31 1761   2.908   4.622   6.385 -0.3623  0.2230  0.5187
   14SAPS   C31 1762   2.936   4.598   6.508 -0.1588  0.8381  0.4277
   14SAPS   O32 1763   3.017   4.507   6.543  0.3985  0.1124 -0.3588
   14SAPS   C32 1764   2.855   4.693   6.592 -0.0718  0.6890 -0.4933
   14SAPS   H2X 1765   2.746   4.673   6.578  0.2692 -1.7931 -0.0612
   14SAPS   H2Y 1766   2.863   4.799   6.560 -0.7891  0.2594 -2.2330
   14SAPS   C23 1767   3.236   4.870   6.560 -0.0667 -0.7829 -0.0922
   14SAPS   H3R 1768   3.125   4.869   6.559 -0.0767 -0.8479  0.3737
   14SAPS   H3S 1769   3.277   4.964   6.517 -1.8547 -0.5731 -1.4436
   14SAPS   C24 1770   3.290   4.843   6.705 -0.2185 -0.2481 -0.1042
   14SAPS   H4R 1771   3.401   4.829   6.699 -0.1582  0.3317 -0.3825
   14SAPS   H4S 1772   3.256   4.747   6.750  0.7925  0.2528  1.8403
   14SAPS   C25 1773   3.256   4.959   6.788 -0.0838 -0.2633 -0.1483
   14SAPS   H5R 1774   3.225   5.051   6.736  0.3005 -0.2712 -0.3982
   14SAPS   C26 1775   3.255   4.954   6.925 -0.0612 -0.0016  0.5466
   14SAPS   H6R 1776   3.229   5.051   6.968  2.4456  0.6255  0.8207
   14SAPS   C27 1777   3.288   4.841   7.019 -0.2827 -0.0056 -0.6224
   14SAPS   H7R 1778   3.351   4.882   7.102  0.9159 -0.9873 -1.0163
   14SAPS   H7S 1779   3.358   4.774   6.965 -0.3375  0.3557 -1.1430
   14SAPS   C28 1780   3.184   4.747   7.065  0.0667 -0.3062 -0.2054
   14SAPS   H8R 1781   3.162   4.669   6.990  0.1172 -0.9023  0.3986
   14SAPS   C29 1782   3.136   4.723   7.186  0.2435 -0.1000 -0.6304
   14SAPS   H9R 1783   3.068   4.638   7.179  0.4841 -0.4301  0.6652
   14SAPS  C210 1784   3.165   4.797   7.318  0.4570 -0.0813  0.5234
   14SAPS  H10R 1785   3.075   4.846   7.361 -0.8771  0.2382 -2.3366
   14SAPS  H10S 1786   3.241   4.876   7.301 -1.2406  0.9846 -3.0040
   14SAPS  C211 1787   3.228   4.696   7.418 -0.2745 -0.1070 -0.5566
   14SAPS  H11R 1788   3.324   4.661   7.376  0.2701  0.6614  0.0153
   14SAPS  C212 1789   3.167   4.645   7.523 -0.4582  0.7488  0.0007
   14SAPS  H12R 1790   3.217   4.574   7.589  0.3136  2.1199  0.9334
   14SAPS  C213 1791   3.027   4.666   7.566 -0.6373 -0.1181  0.0622
   14SAPS  H13R 1792   2.958   4.652   7.480 -1.7397  4.1418  0.0167
   14SAPS  H13S 1793   3.020   4.773   7.596  1.1298  0.4682 -1.4493
   14SAPS  C214 1794   2.968   4.590   7.682  0.0964  0.3205 -0.6485
   14SAPS  H14R 1795   2.918   4.495   7.656  2.6641 -0.8598 -1.6204
   14SAPS  C215 1796   2.963   4.617   7.812  0.5129 -0.5712 -0.1176
   14SAPS  H15R 1797   2.912   4.541   7.873  1.1186 -0.5909  0.3728
   14SAPS  C216 1798   3.025   4.733   7.892 -0.2314  0.3381 -0.4938
   14SAPS  H16R 1799   2.946   4.773   7.958  0.2512  2.2514 -1.0219
   14SAPS  H16S 1800   3.042   4.823   7.829 -1.0072  1.7793  1.2954
   14SAPS  C217 1801   3.156   4.700   7.981  0.1620 -0.1543  0.3217
   14SAPS  H17R 1802   3.132   4.613   8.045 -1.0656 -0.6419 -0.7674
   14SAPS  H17S 1803   3.182   4.791   8.038  0.2288  0.5048 -0.7377
   14SAPS  C218 1804   3.271   4.674   7.881 -0.2542  0.9035  0.1414
   14SAPS  H18R 1805   3.300   4.750   7.805  2.3268  0.7462  0.8688
   14SAPS  H18S 1806   3.245   4.589   7.814  1.3703 -0.2854  0.9506
   14SAPS  C219 1807   3.393   4.641   7.961  0.4834  0.4444 -0.0664
   14SAPS  H19R 1808   3.472   4.599   7.896  0.6997  0.9670 -0.1435
   14SAPS  H19S 1809   3.375   4.562   8.037 -0.2730 -0.2174 -0.9145
   14SAPS  C220 1810   3.460   4.757   8.029  0.7604 -0.0864  0.3474
   14SAPS  H20R 1811   3.563   4.727   8.057  0.7378  0.3070  0.8681
   14SAPS  H20S 1812   3.408   4.787   8.123  0.7452  0.2560  0.2312
   14SAPS  H20T 1813   3.453   4.847   7.964  1.4025  0.6344  1.2572
   14SAPS   C33 1814   2.901   4.685   6.740 -0.5769  0.1942  1.4561
   14SAPS   H3X 1815   3.009   4.709   6.737 -0.4530 -0.3365 -1.7096
   14SAPS   H3Y 1816   2.875   4.586   6.783  0.7439 -0.5218  0.6772
   14SAPS   C34 1817   2.847   4.796   6.831  0.7487 -0.6725  0.6432
   14SAPS   H4X 1818   2.879   4.893   6.787  0.6459 -0.5158  0.9142
   14SAPS   H4Y 1819   2.880   4.787   6.936 -1.1540  1.8970  1.5468
   14SAPS   C35 1820   2.695   4.801   6.837  0.5085 -0.1291 -0.3790
   14SAPS   H5X 1821   2.648   4.703   6.860 -2.0883  1.8451  4.2017
   14SAPS   H5Y 1822   2.661   4.854   6.745 -1.4235 -0.4430  0.1017
   14SAPS   C36 1823   2.654   4.890   6.958 -0.4939  0.6851  0.0015
   14SAPS   H6X 1824   2.556   4.940   6.939 -0.9086 -0.0136  0.2775
   14SAPS   H6Y 1825   2.731   4.969   6.972 -0.4619  0.7698 -0.6301
   14SAPS   C37 1826   2.657   4.810   7.084  0.1688  0.0103  0.4812
   14SAPS   H7X 1827   2.756   4.770   7.114  0.4014 -0.4688 -0.8855
   14SAPS   H7Y 1828   2.605   4.713   7.069  1.5282 -0.4630 -1.5634
   14SAPS   C38 1829   2.600   4.884   7.205 -0.1391  0.1716 -0.3277
   14SAPS   H8X 1830   2.491   4.865   7.204 -0.3960  1.0437  2.1775
   14SAPS   H8Y 1831   2.621   4.991   7.183  1.1348 -0.1112 -0.5512
   14SAPS   C39 1832   2.661   4.847   7.340  0.8305 -0.0119 -0.0284
   14SAPS   H9X 1833   2.763   4.889   7.339  0.4716  0.9526  1.3195
   14SAPS   H9Y 1834   2.667   4.738   7.357  0.2109 -0.0043  0.2690
   14SAPS  C310 1835   2.582   4.903   7.467 -0.3937 -0.7364  0.0749
   14SAPS  H10X 1836   2.484   4.851   7.465 -0.2592 -1.0135  0.5117
   14SAPS  H10Y 1837   2.568   5.012   7.449  3.1701 -0.5020 -2.1006
   14SAPS  C311 1838   2.636   4.878   7.606 -0.1403 -0.0481 -0.0539
   14SAPS  H11X 1839   2.744   4.903   7.604  0.1631 -1.2254 -2.5686
   14SAPS  H11Y 1840   2.625   4.770   7.630 -0.8325  0.4258  1.9978
   14SAPS  C312 1841   2.582   4.964   7.714  0.0615 -0.7196  0.2329
   14SAPS  H12X 1842   2.471   4.973   7.706 -0.0211  0.3801  1.9092
   14SAPS  H12Y 1843   2.628   5.065   7.715  2.2840 -1.6739 -0.7362
   14SAPS  C313 1844   2.616   4.905   7.852 -0.3022  0.0305 -0.3145
   14SAPS  H13X 1845   2.638   4.985   7.925  1.9458 -1.2402  0.5106
   14SAPS  H13Y 1846   2.712   4.848   7.858 -0.0558  0.4766  0.0662
   14SAPS  C314 1847   2.497   4.821   7.913  0.4650  0.2282  1.3067
   14SAPS  H14X 1848   2.478   4.741   7.839  3.4890  0.4613  0.1538
   14SAPS  H14Y 1849   2.401   4.874   7.929 -0.9814 -1.8920  0.2022
   14SAPS  C315 1850   2.525   4.758   8.045  0.0839  0.2832  0.3723
   14SAPS  H15X 1851   2.533   4.839   8.121  0.6216 -0.5367  1.2078
   14SAPS  H15Y 1852   2.612   4.688   8.039 -0.4396 -0.5767  2.0384
   14SAPS  C316 1853   2.409   4.663   8.091 -0.6033  0.3613 -0.5521
   14SAPS  H16X 1854   2.375   4.603   8.004 -1.9970  1.2268 -0.6376
   14SAPS  H16Y 1855   2.321   4.721   8.125 -0.4677  0.5681 -0.5494
   14SAPS  C317 1856   2.442   4.575   8.213  0.7626 -0.0961  0.1324
   14SAPS  H17X 1857   2.504   4.620   8.293 -0.7367 -1.4856  2.2046
   14SAPS  H17Y 1858   2.503   4.501   8.156  0.1635 -1.6814  1.4457
   14SAPS  C318 1859   2.325   4.494   8.272 -0.4624  0.4719 -0.1466
   14SAPS  H18X 1860   2.231   4.553   8.279 -0.6809  0.4534 -2.2539
   14SAPS  H18Y 1861   2.356   4.460   8.373  1.4309  1.5357 -0.3121
   14SAPS  H18Z 1862   2.295   4.408   8.209 -0.6989 -0.4846  1.2393
   15SAPS     N 1863   3.640   3.947   5.660 -0.6190  0.1208  0.0521
   15SAPS   HN1 1864   3.639   3.894   5.571 -0.8244  0.2596 -0.0300
   15SAPS   HN2 1865   3.576   4.028   5.649  0.7706  1.0655 -1.2921
   15SAPS   HN3 1866   3.737   3.982   5.671  0.8374 -2.7611 -2.4243
   15SAPS   C12 1867   3.589   3.871   5.780 -0.2432  0.3083  0.0457
   15SAPS  H12A 1868   3.563   3.943   5.856 -0.8138  0.7349 -0.5493
   15SAPS   C13 1869   3.468   3.780   5.758 -0.0472  0.6454  0.1591
   15SAPS  O13A 1870   3.394   3.794   5.661  0.1997 -0.0145 -0.1788
   15SAPS  O13B 1871   3.430   3.717   5.860 -0.2666  0.2556  0.0751
   15SAPS   C11 1872   3.703   3.775   5.835 -0.8456 -0.2381 -0.1735
   15SAPS  H11A 1873   3.734   3.696   5.763  0.0304  1.0345 -1.2590
   15SAPS  H11B 1874   3.658   3.725   5.923 -0.9054 -1.1421 -0.7059
   15SAPS     P 1875   3.899   3.815   6.001  0.1214  0.0593 -0.0768
   15SAPS   O13 1876   3.886   3.668   6.033 -0.1392 -0.0214 -0.2047
   15SAPS   O14 1877   4.038   3.871   5.995  0.4754  0.2702  0.2799
   15SAPS   O12 1878   3.829   3.835   5.861 -0.6667 -0.4563  0.5046
   15SAPS   O11 1879   3.807   3.897   6.105 -0.4673  0.1531  0.2089
   15SAPS    C1 1880   3.814   3.881   6.246  0.2143 -0.5638  0.1025
   15SAPS    HA 1881   3.815   3.772   6.267  2.8920 -0.9258 -1.3083
   15SAPS    HB 1882   3.911   3.919   6.284 -0.3374  1.0205  0.0106
   15SAPS    C2 1883   3.700   3.966   6.308 -0.4787 -0.7363  0.7301
   15SAPS    HS 1884   3.696   4.058   6.245 -1.7570 -1.5641 -0.4639
   15SAPS   O21 1885   3.743   3.996   6.442  0.2484  0.2118 -0.1470
   15SAPS   C21 1886   3.704   4.112   6.491 -0.9233 -0.2362  0.2843
   15SAPS   O22 1887   3.633   4.191   6.438  0.1848  0.5966  0.2069
   15SAPS   C22 1888   3.789   4.145   6.614 -1.1312 -0.2512 -0.1664
   15SAPS   H2R 1889   3.845   4.058   6.652 -0.9469  0.6128  1.6165
   15SAPS   H2S 1890   3.864   4.221   6.583 -1.2284  1.3835  3.2160
   15SAPS    C3 1891   3.560   3.905   6.291  0.0592  0.3102  0.1387
   15SAPS    HX 1892   3.549   3.856   6.192 -0.7454 -0.5044  0.6261
   15SAPS    HY 1893   3.487   3.988   6.298  1.8117  1.8818  0.8125
   15SAPS   O31 1894   3.554   3.793   6.389  0.1442 -0.3595 -0.0730
   15SAPS   C31 1895   3.484   3.823   6.502 -0.0274  0.0288  0.6042
   15SAPS   O32 1896   3.432   3.928   6.534 -0.0136 -0.0454  0.0371
   15SAPS   C32 1897   3.514   3.706   6.593 -0.2554 -0.4387 -0.3490
   15SAPS   H2X 1898   3.624   3.711   6.609 -0.3868 -1.8642  1.2512
   15SAPS   H2Y 1899   3.494   3.618   6.528 -1.8925 -0.2160 -0.1727
   15SAPS   C23 1900   3.694   4.215   6.717 -0.2272  0.2071  0.5517
   15SAPS   H3R 1901   3.650   4.309   6.678  0.7451  0.3912 -0.1523
   15SAPS   H3S 1902   3.767   4.263   6.785  0.0528  1.6773 -0.7513
   15SAPS   C24 1903   3.588   4.127   6.787 -0.3770 -0.2178 -0.6725
   15SAPS   H4R 1904   3.505   4.105   6.717  0.5284 -0.2587 -1.7514
   15SAPS   H4S 1905   3.550   4.185   6.875 -0.3168 -0.4259 -0.5096
   15SAPS   C25 1906   3.647   4.000   6.840 -0.2281 -0.5349 -0.5773
   15SAPS   H5R 1907   3.650   3.923   6.761 -0.7508 -1.9988  0.7914
   15SAPS   C26 1908   3.695   3.974   6.965  0.1718 -0.3897  0.3865
   15SAPS   H6R 1909   3.739   3.874   6.976  2.0990  0.3386 -0.3394
   15SAPS   C27 1910   3.703   4.073   7.082 -0.3040 -0.2694 -1.0914
   15SAPS   H7R 1911   3.600   4.090   7.118  0.4009 -0.5082  1.2440
   15SAPS   H7S 1912   3.729   4.175   7.046 -2.5992 -0.1290 -2.4936
   15SAPS   C28 1913   3.793   4.028   7.203 -0.7500 -0.6270 -0.8712
   15SAPS   H8R 1914   3.752   3.956   7.275  1.2112  0.6399  1.6535
   15SAPS   C29 1915   3.919   4.073   7.225  0.4680 -0.3821 -0.5842
   15SAPS   H9R 1916   3.967   4.023   7.310 -0.0222 -0.3428 -0.2782
   15SAPS  C210 1917   4.010   4.167   7.143  0.8694 -0.8118  0.6866
   15SAPS  H10R 1918   4.088   4.206   7.211 -0.6815 -1.2496  2.8217
   15SAPS  H10S 1919   3.954   4.257   7.109  1.3982 -0.4610  0.7414
   15SAPS  C211 1920   4.077   4.102   7.028  0.5420  0.2340 -0.1607
   15SAPS  H11R 1921   4.029   4.092   6.929  1.3496 -1.0769 -0.4400
   15SAPS  C212 1922   4.200   4.046   7.046  0.1140 -0.0352 -0.3876
   15SAPS  H12R 1923   4.234   3.989   6.958 -4.0454 -0.0712 -2.2348
   15SAPS  C213 1924   4.288   4.051   7.171  0.1093 -0.7436 -0.5112
   15SAPS  H13R 1925   4.351   3.960   7.182 -0.5937 -1.0134  1.6863
   15SAPS  H13S 1926   4.221   4.063   7.258  0.4663  0.4040 -0.3729
   15SAPS  C214 1927   4.384   4.169   7.177  0.0689  0.4348 -0.3858
   15SAPS  H14R 1928   4.429   4.200   7.081 -2.4292  0.6391 -1.5795
   15SAPS  C215 1929   4.423   4.231   7.291  0.0935  0.3066  0.0029
   15SAPS  H15R 1930   4.489   4.318   7.279 -3.6247  3.5178  0.5480
   15SAPS  C216 1931   4.383   4.217   7.444  0.0957 -0.0016  1.3107
   15SAPS  H16R 1932   4.293   4.153   7.452 -0.4357  0.6487  0.6274
   15SAPS  H16S 1933   4.361   4.320   7.480 -0.4054 -0.2524  1.7384
   15SAPS  C217 1934   4.481   4.148   7.543 -0.1664 -0.2578  0.1795
   15SAPS  H17R 1935   4.498   4.044   7.509  0.4235  0.2996 -1.3468
   15SAPS  H17S 1936   4.434   4.138   7.643  1.4462 -2.7332  0.7870
   15SAPS  C218 1937   4.615   4.223   7.550  0.5871  0.0438  0.4678
   15SAPS  H18R 1938   4.674   4.223   7.456  3.2069 -1.6170  1.9894
   15SAPS  H18S 1939   4.681   4.167   7.620  0.2189  0.1104  0.8785
   15SAPS  C219 1940   4.598   4.356   7.618 -0.9350  0.4993  0.0169
   15SAPS  H19R 1941   4.551   4.341   7.718 -2.1724  0.7962 -0.5017
   15SAPS  H19S 1942   4.546   4.423   7.546 -0.4499 -0.0409 -0.8474
   15SAPS  C220 1943   4.734   4.427   7.649  0.5020 -0.6544  0.1743
   15SAPS  H20R 1944   4.808   4.416   7.567  1.8830 -1.0461  1.4404
   15SAPS  H20S 1945   4.795   4.387   7.732  0.5912  1.8746  1.4311
   15SAPS  H20T 1946   4.725   4.538   7.660  1.7456 -0.6109  0.9146
   15SAPS   C33 1947   3.434   3.704   6.725 -0.5679  1.0533 -1.0265
   15SAPS   H3X 1948   3.326   3.689   6.705 -1.2469  1.2363  1.9211
   15SAPS   H3Y 1949   3.468   3.801   6.768 -0.4496  0.1116  1.1257
   15SAPS   C34 1950   3.474   3.596   6.825  0.0543  0.1901  0.2726
   15SAPS   H4X 1951   3.492   3.500   6.772 -0.3353  0.5186 -0.4639
   15SAPS   H4Y 1952   3.391   3.584   6.898  0.4281  0.7513  0.8048
   15SAPS   C35 1953   3.595   3.633   6.913  0.1913  0.4681 -0.3085
   15SAPS   H5X 1954   3.574   3.718   6.980 -0.2399  1.1728 -1.3242
   15SAPS   H5Y 1955   3.676   3.651   6.840 -0.7702  1.4477 -1.1626
   15SAPS   C36 1956   3.635   3.522   7.010 -0.7424 -0.1853 -0.7004
   15SAPS   H6X 1957   3.735   3.535   7.054 -0.5803 -0.5710 -0.9508
   15SAPS   H6Y 1958   3.635   3.426   6.954 -1.3070 -0.9190  0.5101
   15SAPS   C37 1959   3.534   3.501   7.135 -0.3541 -0.3390  0.5662
   15SAPS   H7X 1960   3.550   3.400   7.177  1.5120 -1.1458 -1.8255
   15SAPS   H7Y 1961   3.436   3.497   7.085 -0.3453 -0.4789  0.5590
   15SAPS   C38 1962   3.537   3.606   7.250 -0.2100 -0.7206 -0.1956
   15SAPS   H8X 1963   3.455   3.573   7.318 -0.5813  0.9113  0.1877
   15SAPS   H8Y 1964   3.521   3.712   7.221  2.2444 -0.6938 -1.6613
   15SAPS   C39 1965   3.664   3.608   7.340 -0.6431  0.1628  0.6457
   15SAPS   H9X 1966   3.752   3.645   7.284 -1.3986 -2.2463 -2.3790
   15SAPS   H9Y 1967   3.684   3.503   7.372  2.4252 -0.0409 -1.4675
   15SAPS  C310 1968   3.642   3.689   7.469  0.3082  1.0095  0.2262
   15SAPS  H10X 1969   3.539   3.668   7.505 -0.1084  0.9798 -0.9355
   15SAPS  H10Y 1970   3.650   3.798   7.446 -1.6392  1.0322 -0.5234
   15SAPS  C311 1971   3.747   3.662   7.582 -0.7099  0.0916  0.0732
   15SAPS  H11X 1972   3.751   3.552   7.599 -2.9262 -0.0541 -0.0140
   15SAPS  H11Y 1973   3.705   3.699   7.678 -1.0652  1.7982 -0.6997
   15SAPS  C312 1974   3.886   3.721   7.563 -0.3978 -0.5266 -0.2016
   15SAPS  H12X 1975   3.925   3.724   7.459  3.3786 -2.5313  0.9574
   15SAPS  H12Y 1976   3.957   3.660   7.622 -0.4317 -0.5760 -0.2121
   15SAPS  C313 1977   3.905   3.867   7.609  0.5191  0.7708 -0.6211
   15SAPS  H13X 1978   3.874   3.863   7.715  2.1322 -0.5822 -0.1686
   15SAPS  H13Y 1979   3.836   3.936   7.555  2.1242  1.3412 -2.0406
   15SAPS  C314 1980   4.048   3.913   7.606 -0.0050 -0.9176  0.0968
   15SAPS  H14X 1981   4.090   3.919   7.504  0.1475  0.2423  0.2066
   15SAPS  H14Y 1982   4.109   3.833   7.652 -1.8668 -1.3414  2.0258
   15SAPS  C315 1983   4.066   4.048   7.673  0.2534 -0.0443 -0.4588
   15SAPS  H15X 1984   4.171   4.081   7.688 -0.0673  0.2644  1.4075
   15SAPS  H15Y 1985   4.013   4.054   7.770 -1.2691 -0.1454 -1.2570
   15SAPS  C316 1986   4.005   4.152   7.579  0.4154  0.2056  0.0674
   15SAPS  H16X 1987   3.894   4.148   7.584  0.4806 -0.9408  3.1381
   15SAPS  H16Y 1988   4.023   4.127   7.472  3.1730 -1.2440  0.7639
   15SAPS  C317 1989   4.061   4.294   7.604  0.3271 -0.4392 -0.0150
   15SAPS  H17X 1990   4.170   4.307   7.589  0.4506 -1.8915 -0.5319
   15SAPS  H17Y 1991   4.036   4.324   7.708  0.9552  0.2743 -0.0621
   15SAPS  C318 1992   3.999   4.386   7.499  0.0450 -0.4638  0.1381
   15SAPS  H18X 1993   4.022   4.493   7.520 -0.3107 -0.0756 -1.3737
   15SAPS  H18Y 1994   3.889   4.375   7.495 -0.0483  0.4401 -0.0273
   15SAPS  H18Z 1995   4.043   4.368   7.399 -0.7945 -0.2841 -0.2683
   16SAPS     N 1996   4.897   4.985   6.080  0.0789  0.7515 -1.4252
   16SAPS   HN1 1997   4.864   4.937   6.166  3.8715 -2.3047 -1.4140
   16SAPS   HN2 1998   4.837   4.979   5.995 -0.1091 -2.3662 -1.1654
   16SAPS   HN3 1999   4.983   4.928   6.070  0.3968 -0.0339  3.3406
   16SAPS   C12 2000   4.921   5.135   6.103 -0.6613  0.4145 -0.5871
   16SAPS  H12A 2001   4.993   5.166   6.029  1.7879  0.7868  1.8243
   16SAPS   C13 2002   4.795   5.225   6.097 -0.1381 -0.1293 -0.3341
   16SAPS  O13A 2003   4.681   5.170   6.110  0.5295 -0.4339  0.4967
   16SAPS  O13B 2004   4.808   5.346   6.139  0.2921  0.4361  0.2198
   16SAPS   C11 2005   4.986   5.162   6.240  1.0917 -0.3136  0.0375
   16SAPS  H11A 2006   4.915   5.128   6.318 -0.1472 -0.0478 -0.9299
   16SAPS  H11B 2007   4.996   5.271   6.263  0.5608  0.0917 -1.5128
   16SAPS     P 2008   5.245   5.145   6.201 -0.2134 -0.0704  0.0118
   16SAPS   O13 2009   5.353   5.044   6.214  0.4347  0.4688 -0.1330
   16SAPS   O14 2010   5.226   5.196   6.061  0.2097  0.3315  0.3507
   16SAPS   O12 2011   5.108   5.088   6.254 -0.1062  0.4860 -0.3522
   16SAPS   O11 2012   5.279   5.265   6.296  0.0265 -0.1124  0.1721
   16SAPS    C1 2013   5.267   5.239   6.436  0.3877 -0.4053  0.0050
   16SAPS    HA 2014   5.212   5.329   6.472 -3.8172 -2.5367 -0.4666
   16SAPS    HB 2015   5.206   5.152   6.468  0.0993  0.3609  1.6509
   16SAPS    C2 2016   5.407   5.219   6.508  1.1844 -0.2120 -0.7031
   16SAPS    HS 2017   5.459   5.130   6.466  1.4999 -0.6709  0.6219
   16SAPS   O21 2018   5.387   5.206   6.651 -0.6077  0.3320 -0.1438
   16SAPS   C21 2019   5.362   5.085   6.692  0.2714 -0.0670  0.2071
   16SAPS   O22 2020   5.368   4.989   6.617  0.1677  0.2502 -0.0920
   16SAPS   C22 2021   5.309   5.087   6.840 -0.8751 -0.3708 -0.4140
   16SAPS   H2R 2022   5.349   5.182   6.882  0.1435 -0.0992 -1.8891
   16SAPS   H2S 2023   5.198   5.082   6.839 -0.9291  0.5707 -0.1157
   16SAPS    C3 2024   5.503   5.345   6.496 -0.2176 -1.0702  1.0772
   16SAPS    HX 2025   5.442   5.423   6.546 -0.1253 -1.4559  1.8034
   16SAPS    HY 2026   5.521   5.365   6.388 -0.1211 -0.0439  1.2707
   16SAPS   O31 2027   5.621   5.321   6.577 -0.0050 -0.6051 -0.1662
   16SAPS   C31 2028   5.677   5.437   6.627  0.4699  0.2764 -0.4150
   16SAPS   O32 2029   5.639   5.548   6.592  0.3997 -0.2274  0.4108
   16SAPS   C32 2030   5.809   5.406   6.702  0.4949 -0.4405 -0.2871
   16SAPS   H2X 2031   5.847   5.504   6.738 -0.1025 -0.7738  1.3288
   16SAPS   H2Y 2032   5.877   5.346   6.638  0.7587 -0.8197  0.3426
   16SAPS   C23 2033   5.363   4.962   6.912  0.5424 -0.4700 -0.1051
   16SAPS   H3R 2034   5.473   4.972   6.916  0.6047  3.6183 -3.9260
   16SAPS   H3S 2035   5.339   4.874   6.849  0.6264 -0.7357  0.2267
   16SAPS   C24 2036   5.323   4.950   7.059  0.4353  0.7030  0.5345
   16SAPS   H4R 2037   5.213   4.943   7.070  0.1653  1.1011 -1.4735
   16SAPS   H4S 2038   5.357   5.045   7.104 -1.4500  1.5125  0.3443
   16SAPS   C25 2039   5.379   4.819   7.117 -0.6557  0.0500  0.7898
   16SAPS   H5R 2040   5.381   4.741   7.041 -3.0057 -0.3679  1.1024
   16SAPS   C26 2041   5.430   4.793   7.236 -0.0422 -0.2666 -0.4480
   16SAPS   H6R 2042   5.475   4.695   7.254  3.4150  1.3950  0.7701
   16SAPS   C27 2043   5.443   4.888   7.353  0.7149 -0.0067 -0.7761
   16SAPS   H7R 2044   5.367   4.969   7.354  1.1830  0.4505  1.2674
   16SAPS   H7S 2045   5.541   4.940   7.358  0.7098 -0.1329  1.1430
   16SAPS   C28 2046   5.411   4.796   7.472  0.5068 -0.7715  0.7036
   16SAPS   H8R 2047   5.322   4.734   7.455 -1.7447  2.6591 -1.3606
   16SAPS   C29 2048   5.451   4.801   7.599  0.4836  0.0828 -0.0240
   16SAPS   H9R 2049   5.422   4.717   7.664  0.3082 -0.9971 -1.4388
   16SAPS  C210 2050   5.547   4.900   7.668 -0.1064 -0.4283 -0.0323
   16SAPS  H10R 2051   5.492   4.968   7.736  1.4557  3.5821 -2.4451
   16SAPS  H10S 2052   5.604   4.955   7.590 -1.7657 -0.4474 -1.3241
   16SAPS  C211 2053   5.652   4.824   7.754  0.1941  0.3876  0.3560
   16SAPS  H11R 2054   5.609   4.755   7.829 -1.2371  0.7756 -0.0664
   16SAPS  C212 2055   5.787   4.850   7.768  0.0822 -0.0111  1.4505
   16SAPS  H12R 2056   5.839   4.779   7.834 -0.2019 -0.2837  1.3802
   16SAPS  C213 2057   5.864   4.958   7.692 -1.1989  0.8553  0.0713
   16SAPS  H13R 2058   5.877   5.049   7.755  1.6067  0.8749 -0.4110
   16SAPS  H13S 2059   5.804   4.985   7.602 -0.9922  2.6594  0.4360
   16SAPS  C214 2060   6.000   4.922   7.640 -0.5354  0.0750  0.6692
   16SAPS  H14R 2061   6.088   4.965   7.690 -0.9760  3.5050 -1.2259
   16SAPS  C215 2062   6.027   4.863   7.520  0.1516 -0.0996 -0.0368
   16SAPS  H15R 2063   6.131   4.862   7.483  0.3793  4.2651  0.0249
   16SAPS  C216 2064   5.922   4.825   7.412  0.6880 -0.4246 -0.2247
   16SAPS  H16R 2065   5.817   4.818   7.449  0.0044  1.9473 -1.5032
   16SAPS  H16S 2066   5.947   4.727   7.368  2.2686  0.0344 -0.4086
   16SAPS  C217 2067   5.919   4.923   7.298 -0.0244  0.1099 -0.6452
   16SAPS  H17R 2068   6.024   4.942   7.267  0.1684 -1.8329 -1.3656
   16SAPS  H17S 2069   5.868   5.015   7.335 -2.0234 -2.1957  2.9446
   16SAPS  C218 2070   5.837   4.871   7.178 -0.1654  0.4187 -0.3049
   16SAPS  H18R 2071   5.735   4.858   7.221  0.0425 -1.9476 -0.3934
   16SAPS  H18S 2072   5.873   4.767   7.164  2.4789  0.9896  1.5604
   16SAPS  C219 2073   5.861   4.961   7.057  0.5326  0.2514 -0.3979
   16SAPS  H19R 2074   5.970   4.975   7.041  0.3849 -1.0868 -3.2494
   16SAPS  H19S 2075   5.817   5.061   7.079  0.2350  0.3750 -1.4979
   16SAPS  C220 2076   5.800   4.908   6.928 -0.0650 -0.5151  0.0618
   16SAPS  H20R 2077   5.689   4.908   6.926 -0.3241  2.1896  3.5231
   16SAPS  H20S 2078   5.826   4.802   6.908  0.3644 -0.1769 -1.2758
   16SAPS  H20T 2079   5.842   4.963   6.842  0.4274 -3.0387 -1.4111
   16SAPS   C33 2080   5.793   5.331   6.843 -0.6546  0.5155  0.7684
   16SAPS   H3X 2081   5.892   5.284   6.862 -0.8250 -1.0763 -1.7727
   16SAPS   H3Y 2082   5.733   5.238   6.834 -0.5447  0.4017  1.1504
   16SAPS   C34 2083   5.748   5.425   6.957 -0.3905 -0.6535  0.0232
   16SAPS   H4X 2084   5.647   5.460   6.927 -0.4086 -1.4624 -0.9011
   16SAPS   H4Y 2085   5.817   5.513   6.957 -1.4892  0.2504  1.2904
   16SAPS   C35 2086   5.746   5.358   7.094  0.0878  0.2300  0.3916
   16SAPS   H5X 2087   5.776   5.428   7.174  2.3467 -1.0632  0.7613
   16SAPS   H5Y 2088   5.819   5.276   7.114 -1.6948 -0.9839  2.3857
   16SAPS   C36 2089   5.608   5.311   7.134 -0.9653 -0.3481  0.2743
   16SAPS   H6X 2090   5.548   5.275   7.048  1.8370 -2.5960 -0.9057
   16SAPS   H6Y 2091   5.561   5.407   7.165  1.1252  2.3285 -3.9028
   16SAPS   C37 2092   5.617   5.217   7.247  0.1503 -0.3582  0.1567
   16SAPS   H7X 2093   5.667   5.125   7.209 -0.6366 -0.4910 -0.5821
   16SAPS   H7Y 2094   5.512   5.185   7.261  0.0951  0.2902  1.2734
   16SAPS   C38 2095   5.682   5.258   7.381 -0.8304 -0.0662 -0.4609
   16SAPS   H8X 2096   5.790   5.273   7.360 -1.0522  1.1400 -0.8151
   16SAPS   H8Y 2097   5.683   5.175   7.454 -5.1319 -0.2977 -0.3998
   16SAPS   C39 2098   5.644   5.395   7.441 -0.6716  0.3079  0.3772
   16SAPS   H9X 2099   5.533   5.405   7.446 -0.5538  2.4056 -0.4241
   16SAPS   H9Y 2100   5.679   5.482   7.383 -0.2441  1.6970  2.6009
   16SAPS  C310 2101   5.692   5.401   7.582  0.2963  0.5829 -0.2293
   16SAPS  H10X 2102   5.659   5.497   7.627  1.2635  1.1865 -0.7542
   16SAPS  H10Y 2103   5.802   5.403   7.601  0.1118  0.9456  0.8638
   16SAPS  C311 2104   5.629   5.293   7.676 -0.2305  0.2458 -0.2033
   16SAPS  H11X 2105   5.670   5.190   7.664  0.3100  0.5165 -0.6561
   16SAPS  H11Y 2106   5.522   5.279   7.649  0.1400 -0.5076 -1.3568
   16SAPS  C312 2107   5.638   5.333   7.826  0.3716 -0.9571 -0.2299
   16SAPS  H12X 2108   5.575   5.424   7.822 -2.6335 -2.8957 -0.0232
   16SAPS  H12Y 2109   5.744   5.365   7.837  0.3148 -0.6429 -0.6069
   16SAPS  C313 2110   5.596   5.230   7.933  0.3222  0.0396 -0.2542
   16SAPS  H13X 2111   5.639   5.267   8.028  0.4516 -4.5605  1.7690
   16SAPS  H13Y 2112   5.647   5.136   7.903  0.3980 -0.0533  0.1641
   16SAPS  C314 2113   5.445   5.226   7.945 -0.8156  0.3768 -0.2388
   16SAPS  H14X 2114   5.410   5.190   7.846  2.5908  1.1691 -1.8646
   16SAPS  H14Y 2115   5.400   5.327   7.961 -1.2420  0.0991  0.3603
   16SAPS  C315 2116   5.409   5.124   8.052 -0.0447 -0.3392  0.4932
   16SAPS  H15X 2117   5.444   5.023   8.022 -0.2898 -0.4386  0.5358
   16SAPS  H15Y 2118   5.299   5.116   8.069 -0.1325 -0.1417  0.0410
   16SAPS  C316 2119   5.478   5.145   8.189 -0.1942 -0.8459 -0.0552
   16SAPS  H16X 2120   5.478   5.250   8.224 -2.4660 -1.1037  0.9099
   16SAPS  H16Y 2121   5.583   5.109   8.182 -0.3818 -1.1819 -1.3701
   16SAPS  C317 2122   5.406   5.063   8.293 -0.0977  0.1393 -0.1724
   16SAPS  H17X 2123   5.463   5.068   8.389 -2.8866  0.3235  1.6030
   16SAPS  H17Y 2124   5.392   4.955   8.271 -1.3249  0.2398  0.0213
   16SAPS  C318 2125   5.269   5.121   8.330  0.4887 -0.3999 -0.2306
   16SAPS  H18X 2126   5.280   5.231   8.318  2.7740 -0.3275  1.7213
   16SAPS  H18Y 2127   5.242   5.090   8.433 -0.5553 -0.0284 -0.3893
   16SAPS  H18Z 2128   5.193   5.085   8.258 -2.8570  1.1180  2.3111
   17SAPC     N 2129   3.730   4.401  10.496 -0.3236  0.7406 -0.4635
   17SAPC   C12 2130   3.775   4.379  10.358 -0.7380 -0.0165 -0.0860
   17SAPC  H12A 2131   3.810   4.278  10.344 -0.5092  0.2612 -1.6511
   17SAPC  H12B 2132   3.861   4.443  10.348 -1.1749  0.6828  0.5367
   17SAPC   C13 2133   3.844   4.372  10.595  0.7501 -0.2936  0.1027
   17SAPC  H13A 2134   3.826   4.409  10.695  1.6236 -1.6305  0.7753
   17SAPC  H13B 2135   3.872   4.269  10.605  3.0273  0.3915  1.7266
   17SAPC  H13C 2136   3.933   4.424  10.562 -0.0735  0.3658 -1.1479
   17SAPC   C14 2137   3.684   4.538  10.514  0.4929  0.2915 -0.2700
   17SAPC  H14A 2138   3.663   4.554  10.619  1.0210 -0.7518  0.0060
   17SAPC  H14B 2139   3.759   4.611  10.487  1.3215 -1.7415 -4.2558
   17SAPC  H14C 2140   3.591   4.554  10.461  1.0180  3.5454 -0.4342
   17SAPC   C15 2141   3.622   4.309  10.529  0.5823  0.2419  0.3041
   17SAPC  H15A 2142   3.601   4.306  10.634  2.4261  0.9846  0.7399
   17SAPC  H15B 2143   3.540   4.333  10.463 -0.2509  0.5257  1.4155
   17SAPC  H15C 2144   3.650   4.207  10.504  1.0347  0.3822  0.2155
   17SAPC   C11 2145   3.677   4.414  10.244  0.0419  0.3586  0.3526
   17SAPC  H11A 2146   3.581   4.358  10.238  0.2799  0.0853 -1.1643
   17SAPC  H11B 2147   3.718   4.370  10.151  0.9404 -2.6044  2.0203
   17SAPC     P 2148   3.771   4.642  10.173 -0.1937  0.3450  0.2721
   17SAPC   O13 2149   3.733   4.783  10.177 -0.5858 -0.2425  0.6168
   17SAPC   O14 2150   3.908   4.612  10.229  0.1347  0.1499 -0.7009
   17SAPC   O12 2151   3.653   4.556  10.238 -0.5599  0.2741  0.3521
   17SAPC   O11 2152   3.773   4.597  10.019  0.3510  0.0674 -0.0992
   17SAPC    C1 2153   3.652   4.599   9.949  0.7701  0.0688 -0.1965
   17SAPC    HA 2154   3.571   4.530   9.982 -0.7521  1.3861 -1.0116
   17SAPC    HB 2155   3.605   4.699   9.966 -0.2193 -0.5355  0.7285
   17SAPC    C2 2156   3.675   4.570   9.801  0.5904  0.7598 -0.0047
   17SAPC    HS 2157   3.578   4.536   9.759 -0.3374  1.1242  1.7412
   17SAPC   O21 2158   3.780   4.480   9.785 -0.2343  0.4922 -0.0754
   17SAPC   C21 2159   3.756   4.358   9.822  0.1285 -0.3054  0.1482
   17SAPC   O22 2160   3.644   4.316   9.846  0.1570 -0.1221  0.1610
   17SAPC   C22 2161   3.885   4.271   9.816  0.1770  0.2997  0.5708
   17SAPC   H2R 2162   3.962   4.327   9.873  0.3558  1.6284 -0.9177
   17SAPC   H2S 2163   3.863   4.172   9.862  0.4455 -0.2911 -0.5417
   17SAPC    C3 2164   3.727   4.702   9.737  0.0114 -0.0811 -0.5875
   17SAPC    HX 2165   3.836   4.704   9.757  0.0314  0.1623 -0.7255
   17SAPC    HY 2166   3.692   4.795   9.786  0.5938  0.5388 -1.3249
   17SAPC   O31 2167   3.694   4.714   9.593  0.2370 -0.2449 -0.1445
   17SAPC   C31 2168   3.793   4.716   9.505 -0.3845  0.9271 -0.3145
   17SAPC   O32 2169   3.910   4.694   9.512 -0.4995 -0.4911 -0.3264
   17SAPC   C32 2170   3.744   4.731   9.359 -0.0843 -0.5447 -0.0059
   17SAPC   H2X 2171   3.795   4.822   9.321  2.4155 -1.2843  1.3596
   17SAPC   H2Y 2172   3.634   4.744   9.353  0.2124  2.0522 -0.9024
   17SAPC   C23 2173   3.953   4.262   9.676  1.3324 -0.2053 -0.3229
   17SAPC   H3R 2174   4.049   4.209   9.692  0.6243 -1.9259 -1.5410
   17SAPC   H3S 2175   3.955   4.369   9.646 -3.5168 -0.3198 -1.9778
   17SAPC   C24 2176   3.867   4.187   9.568 -0.3153 -0.4926  0.0208
   17SAPC   H4R 2177   3.902   4.221   9.468 -0.8770  0.2643  0.0768
   17SAPC   H4S 2178   3.761   4.215   9.581 -0.3030 -0.0027 -0.8774
   17SAPC   C25 2179   3.878   4.034   9.576  0.3189 -0.4751 -0.7929
   17SAPC   H5R 2180   3.823   3.988   9.659 -0.1596  1.9404  0.3161
   17SAPC   C26 2181   3.939   3.964   9.480 -0.5729 -0.4909 -0.0175
   17SAPC   H6R 2182   3.972   3.864   9.512  1.6593  0.9282  2.5659
   17SAPC   C27 2183   3.999   4.002   9.344 -0.7474  0.6240  0.7540
   17SAPC   H7R 2184   4.096   3.950   9.328 -1.2336  0.0033 -0.2958
   17SAPC   H7S 2185   4.032   4.107   9.329  1.1770 -0.2369 -1.5035
   17SAPC   C28 2186   3.909   3.976   9.231  0.0575  0.3663  0.4043
   17SAPC   H8R 2187   3.807   3.947   9.258 -0.4097  1.6475  0.0894
   17SAPC   C29 2188   3.929   3.970   9.094 -0.0313 -0.0983  0.2773
   17SAPC   H9R 2189   3.845   3.952   9.024  0.1342  0.0444  0.0433
   17SAPC  C210 2190   4.064   3.992   9.028 -0.0778 -0.6888 -0.6189
   17SAPC  H10R 2191   4.092   3.891   8.990 -0.2291 -0.3018 -1.8126
   17SAPC  H10S 2192   4.137   4.019   9.108 -0.8167 -2.6919  0.8172
   17SAPC  C211 2193   4.064   4.090   8.914  0.3981  0.4231 -0.9402
   17SAPC  H11R 2194   4.033   4.194   8.934  0.8526  0.7700 -1.9967
   17SAPC  C212 2195   4.086   4.055   8.783 -0.5254 -0.2921 -0.3777
   17SAPC  H12R 2196   4.102   4.138   8.712  1.3796 -1.8418 -1.8996
   17SAPC  C213 2197   4.110   3.915   8.726 -0.4174  0.4179 -0.4709
   17SAPC  H13R 2198   4.002   3.893   8.710 -1.0711  3.7001 -1.2572
   17SAPC  H13S 2199   4.160   3.849   8.799  1.4091  1.6056 -0.5999
   17SAPC  C214 2200   4.183   3.914   8.596  0.0268 -0.9838 -0.5837
   17SAPC  H14R 2201   4.262   3.991   8.594 -0.2285 -0.7160 -0.5720
   17SAPC  C215 2202   4.166   3.843   8.485 -0.3570 -0.0064  0.3046
   17SAPC  H15R 2203   4.225   3.861   8.394 -0.9041  0.7454  0.0907
   17SAPC  C216 2204   4.066   3.730   8.465  0.6439 -0.1485  0.6001
   17SAPC  H16R 2205   4.037   3.693   8.566  1.1833 -0.7926  0.5232
   17SAPC  H16S 2206   4.111   3.645   8.410  1.2607  2.1515 -2.7696
   17SAPC  C217 2207   3.941   3.780   8.390 -0.9050  0.2162 -0.1239
   17SAPC  H17R 2208   3.903   3.873   8.437  3.1208  1.4332  1.1071
   17SAPC  H17S 2209   3.862   3.702   8.385 -0.2557 -0.5286  0.9200
   17SAPC  C218 2210   3.965   3.813   8.238  0.1096  0.3287 -0.2362
   17SAPC  H18R 2211   4.044   3.890   8.229  2.1669 -1.7280 -0.7454
   17SAPC  H18S 2212   3.877   3.868   8.199 -0.9997  0.3226  2.0651
   17SAPC  C219 2213   4.005   3.696   8.153  0.4863  0.1895  0.8840
   17SAPC  H19R 2214   3.956   3.598   8.173  1.1570 -0.9918 -2.6091
   17SAPC  H19S 2215   4.111   3.671   8.177  0.0671 -0.7787  1.8100
   17SAPC  C220 2216   3.989   3.740   8.006 -0.1013 -0.0354 -0.2827
   17SAPC  H20R 2217   4.038   3.837   7.982 -0.3865 -0.1481 -1.3673
   17SAPC  H20S 2218   3.881   3.761   7.992 -0.0040  0.1715 -0.7456
   17SAPC  H20T 2219   4.028   3.665   7.934  0.3015  1.7302 -1.9968
   17SAPC   C33 2220   3.803   4.616   9.273  0.0491 -0.2207  0.4928
   17SAPC   H3X 2221   3.768   4.525   9.327  0.6274  0.7525  2.6051
   17SAPC   H3Y 2222   3.914   4.613   9.275  0.1021 -1.3068 -1.4060
   17SAPC   C34 2223   3.758   4.612   9.126  0.5889 -0.3607 -0.1775
   17SAPC   H4X 2224   3.776   4.715   9.088  1.1176  0.6884  2.6938
   17SAPC   H4Y 2225   3.650   4.587   9.131  0.2063  1.1574 -0.3546
   17SAPC   C35 2226   3.834   4.498   9.048  0.2486  0.4778 -0.6146
   17SAPC   H5X 2227   3.815   4.416   9.119 -0.7307  0.7192 -0.5860
   17SAPC   H5Y 2228   3.939   4.529   9.028  0.5249 -0.9138 -1.4550
   17SAPC   C36 2229   3.752   4.492   8.917 -1.3610 -0.2591  0.0263
   17SAPC   H6X 2230   3.760   4.591   8.867  1.5383 -0.7520 -0.6966
   17SAPC   H6Y 2231   3.647   4.477   8.947 -1.1819 -1.0096  0.2966
   17SAPC   C37 2232   3.798   4.377   8.828 -0.8659 -0.1631 -0.1424
   17SAPC   H7X 2233   3.787   4.281   8.883  0.1089 -1.1050 -1.5084
   17SAPC   H7Y 2234   3.903   4.391   8.795 -0.5469 -1.1993  0.3856
   17SAPC   C38 2235   3.693   4.361   8.717 -0.1066 -0.6806  0.0655
   17SAPC   H8X 2236   3.675   4.455   8.661 -1.8100 -2.5796 -2.8127
   17SAPC   H8Y 2237   3.602   4.323   8.768 -0.8698 -1.0605 -1.5196
   17SAPC   C39 2238   3.733   4.250   8.614 -0.7285  1.0203 -0.0861
   17SAPC   H9X 2239   3.655   4.241   8.536 -0.1493  1.8101 -0.7674
   17SAPC   H9Y 2240   3.755   4.155   8.669  0.1659 -0.3856 -2.6760
   17SAPC  C310 2241   3.856   4.283   8.531  0.6971 -0.0071 -0.1743
   17SAPC  H10X 2242   3.944   4.282   8.599  0.4625  0.2312  0.1350
   17SAPC  H10Y 2243   3.847   4.388   8.494  0.4721  0.3669  0.8898
   17SAPC  C311 2244   3.877   4.186   8.420  0.1686 -0.3700  0.4597
   17SAPC  H11X 2245   3.789   4.157   8.359 -1.3452  2.4143  1.1628
   17SAPC  H11Y 2246   3.913   4.091   8.465 -0.4385 -1.0767 -0.5024
   17SAPC  C312 2247   3.987   4.233   8.329 -0.2371 -0.9878 -0.0025
   17SAPC  H12X 2248   3.955   4.321   8.269  2.7659 -0.3565 -0.8442
   17SAPC  H12Y 2249   4.007   4.154   8.254 -0.0185  0.0656 -1.0798
   17SAPC  C313 2250   4.116   4.272   8.394  0.1014 -0.5046 -0.3315
   17SAPC  H13X 2251   4.154   4.202   8.473 -1.0739 -1.1127 -0.2823
   17SAPC  H13Y 2252   4.108   4.372   8.441  1.2258 -0.2877 -0.5608
   17SAPC  C314 2253   4.218   4.291   8.284  0.2296  0.7645  0.0395
   17SAPC  H14X 2254   4.300   4.353   8.326 -0.2539  2.0400 -0.8442
   17SAPC  H14Y 2255   4.166   4.348   8.204  1.1688  1.2607 -0.2462
   17SAPC  C315 2256   4.293   4.164   8.238  0.1324  0.3171 -0.2361
   17SAPC  H15X 2257   4.211   4.096   8.206 -0.4364  0.1374  1.4887
   17SAPC  H15Y 2258   4.344   4.127   8.329  0.4946 -0.5255 -0.7739
   17SAPC  C316 2259   4.385   4.187   8.118 -0.0478 -0.1164 -0.7679
   17SAPC  H16X 2260   4.462   4.266   8.133  0.3635 -0.1849 -2.3412
   17SAPC  H16Y 2261   4.326   4.216   8.029  1.4527  0.3110 -1.6646
   17SAPC  C317 2262   4.470   4.071   8.073 -0.6546 -0.2383  0.1990
   17SAPC  H17X 2263   4.399   3.992   8.040 -0.4886 -0.8076  1.1759
   17SAPC  H17Y 2264   4.535   4.037   8.157 -0.7712  2.6467  1.5856
   17SAPC  C318 2265   4.552   4.105   7.945  0.4008 -0.1769 -0.7807
   17SAPC  H18X 2266   4.659   4.123   7.968  0.1338  0.6698 -0.1568
   17SAPC  H18Y 2267   4.529   4.031   7.866  0.1172 -3.0937  1.8330
   17SAPC  H18Z 2268   4.512   4.200   7.903 -1.1964 -0.4609  0.0358
   18SAPC     N 2269   2.860   4.592  10.436 -0.2667  0.3232  0.2443
   18SAPC   C12 2270   2.830   4.625  10.289  0.8063  0.5619 -0.3026
   18SAPC  H12A 2271   2.887   4.709  10.254  0.1163  1.3511  0.4058
   18SAPC  H12B 2272   2.731   4.669  10.284  0.3403 -0.3772  0.2796
   18SAPC   C13 2273   3.012   4.553  10.447 -0.2888  0.4845 -0.1627
   18SAPC  H13A 2274   3.074   4.636  10.418 -1.1474  1.8192  1.6488
   18SAPC  H13B 2275   3.031   4.510  10.544  0.1038 -1.2855 -0.9772
   18SAPC  H13C 2276   3.044   4.476  10.378  2.7315  0.9195  0.6043
   18SAPC   C14 2277   2.839   4.707  10.523  0.7765 -0.0611  0.0959
   18SAPC  H14A 2278   2.903   4.783  10.480  1.9137 -2.2639 -2.3690
   18SAPC  H14B 2279   2.735   4.729  10.542 -0.1867 -3.3846 -0.5672
   18SAPC  H14C 2280   2.884   4.693  10.621 -0.0695 -0.6982  0.4036
   18SAPC   C15 2281   2.784   4.481  10.491 -0.1161  0.1139  0.0693
   18SAPC  H15A 2282   2.819   4.385  10.456  0.3913  0.4770 -0.4300
   18SAPC  H15B 2283   2.789   4.475  10.599  1.0162 -2.0153 -0.0579
   18SAPC  H15C 2284   2.681   4.496  10.461 -0.1046  3.0581  1.1230
   18SAPC   C11 2285   2.867   4.508  10.197 -0.0570 -0.1171  0.3934
   18SAPC  H11A 2286   2.808   4.515  10.102  2.7294 -1.6863 -1.5938
   18SAPC  H11B 2287   2.835   4.408  10.234  0.4601 -1.5386 -2.6987
   18SAPC     P 2288   3.098   4.390  10.140 -0.0475  0.3011  0.1914
   18SAPC   O13 2289   3.242   4.428  10.143  0.2043  0.2731 -0.2234
   18SAPC   O14 2290   3.054   4.285  10.231  0.2448  0.4964  0.0805
   18SAPC   O12 2291   3.008   4.516  10.157  0.4155  0.3146  0.4375
   18SAPC   O11 2292   3.066   4.347   9.992  0.2008  0.1914  0.1665
   18SAPC    C1 2293   3.097   4.419   9.875  0.0912  0.0673 -0.0656
   18SAPC    HA 2294   2.998   4.454   9.839  0.1097 -0.8999 -1.1175
   18SAPC    HB 2295   3.159   4.509   9.894 -0.0314 -0.0576  1.0225
   18SAPC    C2 2296   3.161   4.326   9.772  0.1359 -0.2532 -0.1174
   18SAPC    HS 2297   3.195   4.395   9.692  2.0790  0.3509  1.1611
   18SAPC   O21 2298   3.089   4.211   9.736 -0.5378 -0.0146  0.3274
   18SAPC   C21 2299   2.991   4.238   9.653 -0.2770 -0.0987 -0.3137
   18SAPC   O22 2300   2.972   4.349   9.600  0.7760  0.5611 -0.0534
   18SAPC   C22 2301   2.918   4.105   9.621  0.6609 -0.2027 -0.5001
   18SAPC   H2R 2302   2.988   4.019   9.623 -1.5349 -2.1973  3.3293
   18SAPC   H2S 2303   2.851   4.099   9.710  0.9645  2.0183 -0.0543
   18SAPC    C3 2304   3.299   4.281   9.835 -0.2123  0.4538  0.8354
   18SAPC    HX 2305   3.291   4.217   9.925  0.2713 -0.8545 -0.0092
   18SAPC    HY 2306   3.363   4.365   9.869 -3.2665  2.5756  1.6693
   18SAPC   O31 2307   3.371   4.201   9.734 -1.1898 -0.4032 -0.3048
   18SAPC   C31 2308   3.429   4.277   9.629 -0.0429  0.9299  0.0334
   18SAPC   O32 2309   3.422   4.398   9.629 -0.3834 -0.1198 -0.4664
   18SAPC   C32 2310   3.497   4.196   9.523  1.3675 -0.1649 -0.1914
   18SAPC   H2X 2311   3.411   4.138   9.483  0.3229  1.1056  0.1686
   18SAPC   H2Y 2312   3.581   4.138   9.567 -0.5056 -1.1323  2.3438
   18SAPC   C23 2313   2.843   4.114   9.487  0.7424 -0.0250  0.3246
   18SAPC   H3R 2314   2.897   4.159   9.402 -0.2888 -0.5221 -0.6299
   18SAPC   H3S 2315   2.741   4.157   9.500  1.0943  1.2057 -0.8220
   18SAPC   C24 2316   2.802   3.968   9.433  0.1563  0.4317 -0.3528
   18SAPC   H4R 2317   2.895   3.909   9.439  0.4764  0.7371 -1.8634
   18SAPC   H4S 2318   2.774   3.994   9.329  1.4811 -0.1254 -0.8711
   18SAPC   C25 2319   2.686   3.924   9.520  0.1475  0.4702 -0.7386
   18SAPC   H5R 2320   2.596   3.987   9.516  0.7820  1.5698  0.9985
   18SAPC   C26 2321   2.678   3.811   9.598  0.6029 -0.4386  0.0018
   18SAPC   H6R 2322   2.590   3.781   9.656 -0.2503 -1.2099 -1.6243
   18SAPC   C27 2323   2.794   3.715   9.616  0.4161 -0.0007 -0.0222
   18SAPC   H7R 2324   2.771   3.667   9.713  1.1280  1.4336  0.8998
   18SAPC   H7S 2325   2.882   3.780   9.635  0.2464 -0.1854  1.4690
   18SAPC   C28 2326   2.811   3.624   9.500 -0.4760  0.5744  1.3178
   18SAPC   H8R 2327   2.792   3.673   9.403 -0.7047 -1.3408  0.3445
   18SAPC   C29 2328   2.831   3.493   9.509 -0.5800 -0.1395  0.0276
   18SAPC   H9R 2329   2.840   3.427   9.421 -0.7190  0.5269 -0.4971
   18SAPC  C210 2330   2.856   3.427   9.640 -0.1106  0.1006  0.1034
   18SAPC  H10R 2331   2.917   3.494   9.706 -1.2736  1.7145 -0.3783
   18SAPC  H10S 2332   2.926   3.341   9.633  0.9781  0.5968  3.1374
   18SAPC  C211 2333   2.718   3.396   9.701  0.1123  0.0397 -0.2671
   18SAPC  H11R 2334   2.679   3.474   9.769  2.5924  0.6229  0.5994
   18SAPC  C212 2335   2.653   3.281   9.688 -0.0553 -0.4069 -0.2023
   18SAPC  H12R 2336   2.551   3.265   9.725  0.2072 -1.6039  0.0462
   18SAPC  C213 2337   2.701   3.170   9.600 -0.7182  0.6738  0.7485
   18SAPC  H13R 2338   2.811   3.155   9.609  0.0491  4.1292 -1.2740
   18SAPC  H13S 2339   2.689   3.190   9.492 -0.3367  0.5830  0.6890
   18SAPC  C214 2340   2.621   3.044   9.638 -0.3639  0.2797 -0.4115
   18SAPC  H14R 2341   2.547   3.058   9.718  1.4503  2.3332  0.9879
   18SAPC  C215 2342   2.631   2.932   9.564 -0.6094 -0.2545  1.3142
   18SAPC  H15R 2343   2.573   2.840   9.581  1.0416 -1.3816  1.0065
   18SAPC  C216 2344   2.719   2.916   9.439 -0.5901  0.4991 -0.1660
   18SAPC  H16R 2345   2.813   2.873   9.481 -1.1552  0.4123  1.0527
   18SAPC  H16S 2346   2.762   3.006   9.391  1.1447  0.8296  1.8602
   18SAPC  C217 2347   2.654   2.829   9.328 -0.4359  0.5356  0.5889
   18SAPC  H17R 2348   2.551   2.868   9.318 -0.2549  0.8536 -0.0982
   18SAPC  H17S 2349   2.645   2.730   9.379  0.4978  1.6203  3.0506
   18SAPC  C218 2350   2.718   2.814   9.185  0.3044  0.1407 -0.0411
   18SAPC  H18R 2351   2.806   2.748   9.192  0.7234  0.8367  1.9243
   18SAPC  H18S 2352   2.749   2.918   9.160  0.6937 -0.0212 -0.2383
   18SAPC  C219 2353   2.618   2.767   9.069 -0.7333 -0.0629  0.8514
   18SAPC  H19R 2354   2.524   2.826   9.072  0.2372  1.6037 -0.1850
   18SAPC  H19S 2355   2.591   2.662   9.094  2.2258 -1.2184 -0.3424
   18SAPC  C220 2356   2.688   2.761   8.933  0.6167 -0.9551 -0.6274
   18SAPC  H20R 2357   2.629   2.704   8.858  2.0751 -2.5814 -0.6117
   18SAPC  H20S 2358   2.794   2.729   8.945  2.0030  2.6662 -1.8920
   18SAPC  H20T 2359   2.678   2.866   8.899 -1.3954 -0.0292  2.3820
   18SAPC   C33 2360   3.553   4.289   9.410  0.2140 -0.2824  0.0089
   18SAPC   H3X 2361   3.631   4.359   9.446 -0.7545  0.6798  0.2762
   18SAPC   H3Y 2362   3.470   4.347   9.363  2.2214  2.6094 -0.1826
   18SAPC   C34 2363   3.604   4.204   9.294 -0.5949  0.3248  0.5175
   18SAPC   H4X 2364   3.652   4.111   9.329 -0.0050  0.5277  0.2642
   18SAPC   H4Y 2365   3.678   4.258   9.230  0.0695  0.1548  1.1340
   18SAPC   C35 2366   3.499   4.155   9.199  0.3551  0.2181 -0.1718
   18SAPC   H5X 2367   3.433   4.242   9.177  1.3908  1.0153 -0.2319
   18SAPC   H5Y 2368   3.444   4.077   9.256 -1.4497  0.3348 -1.6583
   18SAPC   C36 2369   3.540   4.096   9.060  0.3692  0.7333 -0.6311
   18SAPC   H6X 2370   3.619   4.019   9.068  0.1207  0.4925 -0.4970
   18SAPC   H6Y 2371   3.587   4.180   9.004  1.2709  0.7534  0.1230
   18SAPC   C37 2372   3.419   4.050   8.979  0.4023  0.3236 -0.1211
   18SAPC   H7X 2373   3.345   4.129   8.952  1.0565  1.0189  0.0898
   18SAPC   H7Y 2374   3.372   3.974   9.046  1.6489  1.4916  2.2184
   18SAPC   C38 2375   3.483   3.989   8.852  0.4454  0.5250  0.1505
   18SAPC   H8X 2376   3.576   3.931   8.871  0.6407  0.9428  0.4954
   18SAPC   H8Y 2377   3.532   4.070   8.795 -1.6420  1.2926 -0.6706
   18SAPC   C39 2378   3.388   3.901   8.758  0.5930  0.3906  0.1991
   18SAPC   H9X 2379   3.285   3.940   8.774  0.5066  0.0197  0.5529
   18SAPC   H9Y 2380   3.400   3.793   8.781 -1.4039 -0.0866 -0.7258
   18SAPC  C310 2381   3.430   3.936   8.612  0.8539  0.0027  0.6104
   18SAPC  H10X 2382   3.541   3.936   8.608  0.9104 -1.3595  1.4741
   18SAPC  H10Y 2383   3.395   4.040   8.595  1.1054  0.1661  1.0665
   18SAPC  C311 2384   3.350   3.845   8.526  0.1219  0.5816 -0.0561
   18SAPC  H11X 2385   3.239   3.854   8.536 -0.0871 -1.0556 -0.6270
   18SAPC  H11Y 2386   3.377   3.741   8.555 -1.8325 -0.2366 -0.9223
   18SAPC  C312 2387   3.378   3.854   8.371  0.4320  0.0571  0.3527
   18SAPC  H12X 2388   3.304   3.929   8.337  0.9229 -0.3852 -1.8987
   18SAPC  H12Y 2389   3.343   3.754   8.337 -2.2680  1.1327 -0.2489
   18SAPC  C313 2390   3.520   3.895   8.322  0.8740  1.1638 -0.6151
   18SAPC  H13X 2391   3.594   3.839   8.382 -0.3349  1.1479  0.9126
   18SAPC  H13Y 2392   3.543   3.999   8.354 -0.4066  2.3012 -3.1321
   18SAPC  C314 2393   3.528   3.883   8.172  0.0936 -0.2565  0.2433
   18SAPC  H14X 2394   3.629   3.917   8.139 -1.1127  1.6236 -1.7788
   18SAPC  H14Y 2395   3.465   3.961   8.125  0.7134  0.0369 -0.1210
   18SAPC  C315 2396   3.491   3.738   8.121  0.1391  0.7404 -0.5085
   18SAPC  H15X 2397   3.392   3.703   8.158  0.4982  0.1585 -0.0946
   18SAPC  H15Y 2398   3.571   3.669   8.154 -1.3421 -0.4476  0.7211
   18SAPC  C316 2399   3.494   3.738   7.967 -0.0488 -0.2784 -0.0814
   18SAPC  H16X 2400   3.598   3.762   7.936 -1.4813  4.0439 -2.4931
   18SAPC  H16Y 2401   3.426   3.824   7.947  0.7426  0.7989  1.6633
   18SAPC  C317 2402   3.455   3.614   7.882  0.5553  0.5021 -0.3932
   18SAPC  H17X 2403   3.496   3.633   7.780  0.1373  1.4837 -0.3929
   18SAPC  H17Y 2404   3.344   3.612   7.885  0.5572  1.3382  1.7412
   18SAPC  C318 2405   3.510   3.480   7.935  0.0360  0.1363  0.2340
   18SAPC  H18X 2406   3.610   3.453   7.895 -0.3973 -0.4932 -0.4544
   18SAPC  H18Y 2407   3.445   3.394   7.907  0.3256 -0.4697  1.3556
   18SAPC  H18Z 2408   3.523   3.480   8.045 -1.8754 -1.5189  0.5240
   19SAPC     N 2409   4.102   5.373  10.580 -0.0895  0.3036  0.4015
   19SAPC   C12 2410   3.989   5.273  10.547 -0.3212  1.0287 -0.5165
   19SAPC  H12A 2411   3.995   5.252  10.441 -0.8322  1.0687 -0.5517
   19SAPC  H12B 2412   3.896   5.320  10.572 -0.1353  0.8150  0.5920
   19SAPC   C13 2413   4.037   5.506  10.566  0.3203 -0.3431  0.2317
   19SAPC  H13A 2414   4.090   5.587  10.615 -0.7419  0.8857 -0.5707
   19SAPC  H13B 2415   4.028   5.535  10.462  1.1534 -2.0934 -0.3584
   19SAPC  H13C 2416   3.935   5.504  10.602 -0.1077  0.1373 -0.9158
   19SAPC   C14 2417   4.151   5.352  10.725 -0.1157  0.4831  0.0439
   19SAPC  H14A 2418   4.065   5.330  10.787  0.1808  1.5055  0.8511
   19SAPC  H14B 2419   4.222   5.272  10.733 -0.2699 -0.0604 -2.8567
   19SAPC  H14C 2420   4.189   5.444  10.766 -1.9446  1.9858 -1.3994
   19SAPC   C15 2421   4.225   5.352  10.499  0.5848 -0.5306  0.6587
   19SAPC  H15A 2422   4.195   5.355  10.395 -0.1464 -0.8130  0.8565
   19SAPC  H15B 2423   4.302   5.425  10.519 -0.3437  0.1715  1.8053
   19SAPC  H15C 2424   4.267   5.253  10.504  0.3756 -0.7960 -1.6854
   19SAPC   C11 2425   3.992   5.131  10.617 -0.3330  0.4023  0.4495
   19SAPC  H11A 2426   3.904   5.065  10.597  0.8322 -0.6924 -1.4160
   19SAPC  H11B 2427   3.993   5.133  10.728  0.5058 -0.7947  0.4732
   19SAPC     P 2428   4.119   4.988  10.429 -0.2416 -0.2589 -0.0406
   19SAPC   O13 2429   4.264   4.987  10.407  0.3455  0.6019  0.1987
   19SAPC   O14 2430   4.044   4.861  10.437  0.3132  0.0038  0.1425
   19SAPC   O12 2431   4.107   5.058  10.567 -0.1478  0.2792  0.4501
   19SAPC   O11 2432   4.042   5.086  10.332  0.8181 -0.5300 -0.8121
   19SAPC    C1 2433   4.101   5.134  10.206  0.3036 -0.4609  0.3712
   19SAPC    HA 2434   4.017   5.194  10.166 -1.8257 -2.3263  1.8076
   19SAPC    HB 2435   4.189   5.198  10.231  1.2996 -1.8500  0.5437
   19SAPC    C2 2436   4.144   5.022  10.098 -0.0636  0.0539 -0.7095
   19SAPC    HS 2437   4.240   4.993  10.144  0.8527  0.7761 -2.0884
   19SAPC   O21 2438   4.157   5.081   9.973  0.0623 -0.1038  0.3307
   19SAPC   C21 2439   4.263   5.172   9.962  0.7224  0.5414  0.1241
   19SAPC   O22 2440   4.352   5.185  10.041  0.0285  0.1002 -0.2677
   19SAPC   C22 2441   4.253   5.244   9.826  0.1495  0.3481  0.1315
   19SAPC   H2R 2442   4.267   5.168   9.747  2.2979  1.6370 -0.8167
   19SAPC   H2S 2443   4.147   5.278   9.821 -0.8960 -2.5880  0.4190
   19SAPC    C3 2444   4.032   4.913  10.089 -0.0717  0.1596  0.3685
   19SAPC    HX 2445   3.935   4.966  10.075  1.0502  2.1330 -0.3161
   19SAPC    HY 2446   4.037   4.850  10.180 -0.2431 -3.1351 -1.7512
   19SAPC   O31 2447   4.050   4.838   9.970 -0.6009  0.6823 -0.7988
   19SAPC   C31 2448   4.132   4.740   9.983 -0.1060  0.6591  0.4427
   19SAPC   O32 2449   4.186   4.702  10.083 -0.2674  0.3488 -0.4652
   19SAPC   C32 2450   4.139   4.662   9.846  1.0481  0.0453 -0.3611
   19SAPC   H2X 2451   4.100   4.719   9.758 -2.5400 -3.3876 -1.2936
   19SAPC   H2Y 2452   4.068   4.578   9.857 -0.6577  1.1144 -2.4461
   19SAPC   C23 2453   4.347   5.360   9.822 -0.4074 -0.2635  0.4771
   19SAPC   H3R 2454   4.445   5.333   9.868 -0.9234  0.1082  1.8307
   19SAPC   H3S 2455   4.302   5.442   9.882  0.7993  0.9463 -0.2038
   19SAPC   C24 2456   4.372   5.428   9.687  0.6084 -0.1852  0.3943
   19SAPC   H4R 2457   4.438   5.516   9.699  1.0071 -0.5529  0.9273
   19SAPC   H4S 2458   4.273   5.466   9.651  0.8226  0.2465  0.2486
   19SAPC   C25 2459   4.442   5.338   9.588  0.2758  0.8338 -0.3274
   19SAPC   H5R 2460   4.462   5.233   9.615 -0.3852  0.5045 -1.0968
   19SAPC   C26 2461   4.497   5.363   9.464  0.6270 -0.2509  0.8596
   19SAPC   H6R 2462   4.546   5.279   9.413 -0.3411 -1.8569  2.4477
   19SAPC   C27 2463   4.482   5.491   9.384 -0.4283  0.4188  0.1625
   19SAPC   H7R 2464   4.564   5.492   9.309 -1.0779 -0.8466 -0.5957
   19SAPC   H7S 2465   4.519   5.573   9.449  1.0636 -1.6462  2.0943
   19SAPC   C28 2466   4.352   5.534   9.322  0.8022 -0.1505 -0.1097
   19SAPC   H8R 2467   4.258   5.506   9.373  0.2357 -1.7873 -1.9280
   19SAPC   C29 2468   4.337   5.593   9.200 -0.8344  0.4834 -0.8110
   19SAPC   H9R 2469   4.234   5.618   9.172 -0.9928  2.0864  0.9820
   19SAPC  C210 2470   4.450   5.632   9.110  0.0012  0.2692  0.3758
   19SAPC  H10R 2471   4.544   5.646   9.166 -0.0602  0.0332  0.5384
   19SAPC  H10S 2472   4.421   5.729   9.065 -0.8486  0.2217  0.8056
   19SAPC  C211 2473   4.483   5.534   9.000  0.8688  0.5941  0.3142
   19SAPC  H11R 2474   4.491   5.427   9.024  2.0383  0.1443 -1.8674
   19SAPC  C212 2475   4.525   5.571   8.874 -0.3942 -0.2796 -0.4146
   19SAPC  H12R 2476   4.537   5.496   8.795  3.2329  1.8305 -2.0742
   19SAPC  C213 2477   4.545   5.709   8.828  0.5397 -0.3764 -0.3891
   19SAPC  H13R 2478   4.616   5.763   8.894 -0.5757  0.1741  0.3902
   19SAPC  H13S 2479   4.457   5.777   8.836  0.3015 -0.8398  1.4734
   19SAPC  C214 2480   4.602   5.719   8.689 -0.1286  0.4053 -0.8187
   19SAPC  H14R 2481   4.675   5.644   8.656  2.3387  2.3506 -0.0620
   19SAPC  C215 2482   4.577   5.818   8.606  0.0034  0.5008 -0.4988
   19SAPC  H15R 2483   4.618   5.817   8.504 -0.6685 -2.0104 -0.8157
   19SAPC  C216 2484   4.492   5.940   8.637  0.3687  0.1757 -0.2998
   19SAPC  H16R 2485   4.529   6.020   8.570 -1.1490  0.7212 -0.5384
   19SAPC  H16S 2486   4.491   5.977   8.741 -1.8499  0.4268 -0.3557
   19SAPC  C217 2487   4.346   5.931   8.597 -0.2685  0.2445 -0.9216
   19SAPC  H17R 2488   4.290   6.027   8.607 -0.7428 -0.1477  0.3801
   19SAPC  H17S 2489   4.284   5.857   8.652 -2.9315  2.1548 -1.1436
   19SAPC  C218 2490   4.326   5.892   8.447 -0.2932  0.0323 -0.0706
   19SAPC  H18R 2491   4.216   5.903   8.439 -0.3918 -1.0732 -0.3154
   19SAPC  H18S 2492   4.358   5.788   8.427  0.8714  0.5106 -0.7779
   19SAPC  C219 2493   4.390   5.991   8.344  0.4064  0.4298 -0.4316
   19SAPC  H19R 2494   4.501   5.983   8.342  0.3308 -0.9211 -0.0316
   19SAPC  H19S 2495   4.367   6.094   8.381 -3.6724 -0.1206 -0.9825
   19SAPC  C220 2496   4.318   5.981   8.209  0.6002 -0.2289  0.0656
   19SAPC  H20R 2497   4.209   5.994   8.222  0.2893 -1.4488 -1.1633
   19SAPC  H20S 2498   4.342   5.882   8.164  1.5527 -0.3078  0.7068
   19SAPC  H20T 2499   4.343   6.057   8.132 -1.6520 -1.7972 -2.4022
   19SAPC   C33 2500   4.279   4.608   9.824 -0.4362 -0.3791  0.0967
   19SAPC   H3X 2501   4.320   4.567   9.919  1.4040  1.7360  0.2973
   19SAPC   H3Y 2502   4.340   4.700   9.808 -2.5213  1.7332  3.0365
   19SAPC   C34 2503   4.283   4.507   9.716 -0.0065 -0.0005  0.4607
   19SAPC   H4X 2504   4.224   4.415   9.738 -1.5990  0.2499 -2.2329
   19SAPC   H4Y 2505   4.388   4.470   9.706  0.8844  1.2881  3.7477
   19SAPC   C35 2506   4.212   4.542   9.584  0.5939  0.1484 -0.1553
   19SAPC   H5X 2507   4.244   4.646   9.564  0.9599 -0.1671 -1.2694
   19SAPC   H5Y 2508   4.102   4.549   9.580  0.6501  0.5480 -1.3616
   19SAPC   C36 2509   4.258   4.451   9.474 -0.3940 -0.5437  0.3260
   19SAPC   H6X 2510   4.218   4.348   9.471 -0.0024 -0.8182  2.5780
   19SAPC   H6Y 2511   4.369   4.440   9.473 -0.5120 -1.8942  0.4422
   19SAPC   C37 2512   4.229   4.519   9.336  0.1319  0.3855 -0.1164
   19SAPC   H7X 2513   4.284   4.615   9.330 -0.5664  0.7652 -0.4411
   19SAPC   H7Y 2514   4.122   4.547   9.329  0.2870  1.1821  0.5329
   19SAPC   C38 2515   4.277   4.441   9.215  0.9240 -0.0059 -0.1272
   19SAPC   H8X 2516   4.231   4.341   9.225  0.4619  0.1547 -0.6004
   19SAPC   H8Y 2517   4.388   4.434   9.212  0.8752 -1.3360  0.4147
   19SAPC   C39 2518   4.245   4.514   9.088  0.0383 -0.1583 -0.1192
   19SAPC   H9X 2519   4.310   4.604   9.080  0.0874 -0.2761 -1.0761
   19SAPC   H9Y 2520   4.142   4.553   9.101  0.4696  1.3714 -1.0560
   19SAPC  C310 2521   4.264   4.435   8.965  0.5087  0.7949  0.0310
   19SAPC  H10X 2522   4.190   4.352   8.958 -1.2479  2.3116 -0.4785
   19SAPC  H10Y 2523   4.363   4.387   8.951  1.1529  2.0577  0.0699
   19SAPC  C311 2524   4.261   4.534   8.848  0.3931 -0.5115 -0.4660
   19SAPC  H11X 2525   4.336   4.613   8.869  0.6817 -1.1343  0.9975
   19SAPC  H11Y 2526   4.165   4.590   8.859  1.8285  1.9112  0.5600
   19SAPC  C312 2527   4.286   4.464   8.711  1.1827 -0.0444 -0.3970
   19SAPC  H12X 2528   4.227   4.520   8.636  2.5387 -0.6298 -1.9694
   19SAPC  H12Y 2529   4.239   4.364   8.711 -0.9928  0.8977 -2.3342
   19SAPC  C313 2530   4.437   4.463   8.678 -0.9696  0.0471 -0.3015
   19SAPC  H13X 2531   4.500   4.408   8.751 -0.4618  1.5320  0.4358
   19SAPC  H13Y 2532   4.470   4.569   8.680  2.2702 -0.8387 -1.5952
   19SAPC  C314 2533   4.473   4.399   8.541  0.8384  0.2095  0.2822
   19SAPC  H14X 2534   4.445   4.478   8.468  0.0793 -0.1576  0.1673
   19SAPC  H14Y 2535   4.397   4.319   8.530  0.9563  0.0039  0.9230
   19SAPC  C315 2536   4.618   4.346   8.536  0.2140  0.5533 -0.2613
   19SAPC  H15X 2537   4.692   4.417   8.578 -0.7968  0.2368  2.1872
   19SAPC  H15Y 2538   4.633   4.314   8.430 -1.8783  0.0328 -0.4346
   19SAPC  C316 2539   4.638   4.213   8.621 -0.5453 -0.0506 -0.4697
   19SAPC  H16X 2540   4.559   4.139   8.596 -0.2957 -0.5891  0.2848
   19SAPC  H16Y 2541   4.640   4.232   8.731  2.9244 -2.0798 -0.0215
   19SAPC  C317 2542   4.768   4.151   8.595  0.0310  0.0219 -0.4924
   19SAPC  H17X 2543   4.838   4.237   8.587 -1.8938  1.6342 -1.0127
   19SAPC  H17Y 2544   4.771   4.105   8.494 -2.9146 -0.0058 -0.6431
   19SAPC  C318 2545   4.802   4.049   8.708 -0.0050  0.0874 -0.5628
   19SAPC  H18X 2546   4.768   4.089   8.806 -0.0424  1.4000 -1.0922
   19SAPC  H18Y 2547   4.910   4.032   8.728 -0.4081 -2.4807 -0.2277
   19SAPC  H18Z 2548   4.767   3.946   8.684  1.1758 -0.4391 -0.1391
   20SAPC     N 2549   2.612   1.170  11.048  0.0762  0.8137  0.2027
   20SAPC   C12 2550   2.610   1.194  10.897 -0.0277 -0.3255 -0.1872
   20SAPC  H12A 2551   2.513   1.223  10.860  0.6978  1.6237 -0.6730
   20SAPC  H12B 2552   2.636   1.103  10.845 -0.5610  0.5905 -2.1626
   20SAPC   C13 2553   2.505   1.065  11.090 -0.6139 -0.1480 -0.0748
   20SAPC  H13A 2554   2.515   1.057  11.198 -2.8383  2.5145  0.4507
   20SAPC  H13B 2555   2.402   1.091  11.070 -0.4527  0.1193 -0.5660
   20SAPC  H13C 2556   2.529   0.968  11.049 -0.0040 -0.7612  1.6424
   20SAPC   C14 2557   2.742   1.104  11.094 -1.0672 -0.2885 -0.3316
   20SAPC  H14A 2558   2.829   1.146  11.047  0.0157  0.4396  2.1722
   20SAPC  H14B 2559   2.761   1.134  11.196  1.7765  2.2608 -1.4481
   20SAPC  H14C 2560   2.742   0.998  11.071 -1.1736 -0.4989  0.6250
   20SAPC   C15 2561   2.577   1.293  11.118  0.7441 -0.4317  0.0675
   20SAPC  H15A 2562   2.473   1.313  11.101  0.6782  0.7370  1.6259
   20SAPC  H15B 2563   2.596   1.295  11.224  1.2144  1.2258 -0.0083
   20SAPC  H15C 2564   2.629   1.381  11.081  0.2641 -0.9623 -1.9628
   20SAPC   C11 2565   2.700   1.304  10.843 -0.3039 -0.1996  0.8400
   20SAPC  H11A 2566   2.705   1.297  10.732 -0.9723 -0.8296  0.8400
   20SAPC  H11B 2567   2.805   1.298  10.878 -0.1333  2.1383  0.8718
   20SAPC     P 2568   2.524   1.510  10.847  0.2411  0.4106 -0.3549
   20SAPC   O13 2569   2.412   1.412  10.871 -0.4522 -0.0464 -0.1566
   20SAPC   O14 2570   2.509   1.639  10.921 -0.1445  0.0395  0.3799
   20SAPC   O12 2571   2.660   1.436  10.889  0.1921 -0.3315  0.5117
   20SAPC   O11 2572   2.530   1.532  10.690  0.6297  0.4302 -0.5239
   20SAPC    C1 2573   2.617   1.628  10.637  0.2881  0.2539  0.9028
   20SAPC    HA 2574   2.580   1.728  10.667 -1.7414  0.2008 -1.2268
   20SAPC    HB 2575   2.721   1.607  10.673 -0.4292 -1.3689  2.1700
   20SAPC    C2 2576   2.617   1.625  10.482 -0.3209 -0.4238  0.1897
   20SAPC    HS 2577   2.515   1.631  10.440 -0.5532 -0.0121  0.7919
   20SAPC   O21 2578   2.684   1.512  10.431  0.1650 -0.3497  0.2906
   20SAPC   C21 2579   2.597   1.410  10.415 -0.5629  0.2502 -0.0549
   20SAPC   O22 2580   2.478   1.415  10.428 -0.5332 -0.1904  0.2902
   20SAPC   C22 2581   2.675   1.289  10.376  0.2911 -0.0240  0.1680
   20SAPC   H2R 2582   2.784   1.305  10.393  0.2234 -0.2583  0.8362
   20SAPC   H2S 2583   2.648   1.204  10.442  1.5305  0.2125  1.0134
   20SAPC    C3 2584   2.684   1.753  10.422 -0.1584 -0.0450 -0.7548
   20SAPC    HX 2585   2.781   1.756  10.474 -0.4521 -0.6750 -0.1569
   20SAPC    HY 2586   2.640   1.849  10.459  0.2663 -0.0314 -0.2819
   20SAPC   O31 2587   2.699   1.741  10.275  0.2273  0.0540  0.3873
   20SAPC   C31 2588   2.600   1.802  10.203  0.1715  0.0628 -0.0291
   20SAPC   O32 2589   2.502   1.856  10.246 -0.1186 -0.2576 -0.0611
   20SAPC   C32 2590   2.639   1.788  10.051 -0.6630  0.8185 -0.1217
   20SAPC   H2X 2591   2.629   1.680  10.029  0.3319  0.2592  1.8824
   20SAPC   H2Y 2592   2.739   1.833  10.033 -1.0310  2.0317  0.7171
   20SAPC   C23 2593   2.654   1.252  10.226  0.1526  0.2335 -0.4693
   20SAPC   H3R 2594   2.545   1.238  10.209  0.0436  0.2835  0.1698
   20SAPC   H3S 2595   2.711   1.158  10.206  2.0979  1.1665  0.4073
   20SAPC   C24 2596   2.705   1.363  10.134  1.0712  0.3863 -0.5063
   20SAPC   H4R 2597   2.671   1.461  10.173  1.3429 -0.5422  2.2149
   20SAPC   H4S 2598   2.652   1.367  10.036 -2.2681  2.5797  1.2262
   20SAPC   C25 2599   2.854   1.375  10.122 -0.4901  0.3793 -0.5878
   20SAPC   H5R 2600   2.911   1.369  10.216 -0.6777 -1.8558 -0.5544
   20SAPC   C26 2601   2.915   1.390  10.005 -0.4206  0.3786 -0.2637
   20SAPC   H6R 2602   3.025   1.390   9.997 -0.4260  1.2394 -0.4528
   20SAPC   C27 2603   2.840   1.394   9.874  0.4598 -0.4000 -0.1704
   20SAPC   H7R 2604   2.767   1.477   9.877 -0.7283 -1.4459  0.9747
   20SAPC   H7S 2605   2.775   1.306   9.855  0.1497 -0.0501 -0.7535
   20SAPC   C28 2606   2.936   1.416   9.757  0.8883 -0.3600  0.5427
   20SAPC   H8R 2607   3.041   1.403   9.788  0.8094 -0.9337  0.5632
   20SAPC   C29 2608   2.905   1.445   9.625 -0.6291 -0.2696 -0.3598
   20SAPC   H9R 2609   2.990   1.444   9.555 -0.1022  0.0013  0.2642
   20SAPC  C210 2610   2.774   1.466   9.556  0.6537  0.0912 -0.3574
   20SAPC  H10R 2611   2.770   1.574   9.528 -1.7729 -0.0470 -0.7349
   20SAPC  H10S 2612   2.689   1.458   9.627  0.2984  0.3592 -0.7518
   20SAPC  C211 2613   2.750   1.373   9.439 -0.1748  0.3011 -0.0671
   20SAPC  H11R 2614   2.774   1.267   9.458  1.7678  0.8015  0.4259
   20SAPC  C212 2615   2.715   1.411   9.318 -0.1996 -0.6269  0.4515
   20SAPC  H12R 2616   2.696   1.342   9.235 -0.5294 -0.8101  0.6769
   20SAPC  C213 2617   2.699   1.548   9.264  0.3730  0.2548  0.7821
   20SAPC  H13R 2618   2.782   1.607   9.310  0.6273  0.8878 -0.4577
   20SAPC  H13S 2619   2.596   1.577   9.292 -0.5810 -0.5665 -1.6641
   20SAPC  C214 2620   2.702   1.557   9.116  0.2227 -0.3584 -0.3270
   20SAPC  H14R 2621   2.601   1.569   9.072  0.5320  0.7169 -0.7784
   20SAPC  C215 2622   2.811   1.561   9.039 -0.0786  0.2040 -0.5654
   20SAPC  H15R 2623   2.795   1.572   8.931 -3.3856 -1.0273 -0.3264
   20SAPC  C216 2624   2.954   1.561   9.090  0.0749  0.3589 -0.5560
   20SAPC  H16R 2625   2.965   1.569   9.200  1.4312  0.8667 -0.7102
   20SAPC  H16S 2626   3.008   1.645   9.041 -2.6018  0.7659 -3.0927
   20SAPC  C217 2627   3.029   1.435   9.041 -0.0747 -0.2800  0.2588
   20SAPC  H17R 2628   2.986   1.340   9.079  0.3185 -1.0263 -1.1182
   20SAPC  H17S 2629   3.131   1.445   9.082  0.3632  1.2341 -1.0945
   20SAPC  C218 2630   3.037   1.432   8.884 -1.1857 -0.3216 -0.1203
   20SAPC  H18R 2631   3.066   1.535   8.852 -0.4168 -0.3116  0.5997
   20SAPC  H18S 2632   2.946   1.395   8.832 -1.7065 -0.0825  0.6073
   20SAPC  C219 2633   3.155   1.347   8.827  0.7116 -0.0676  0.8322
   20SAPC  H19R 2634   3.141   1.243   8.865 -2.4307  0.3989  1.1898
   20SAPC  H19S 2635   3.246   1.378   8.882  1.2111  2.3861 -1.2138
   20SAPC  C220 2636   3.155   1.363   8.678 -0.5591  0.0317  0.0487
   20SAPC  H20R 2637   3.116   1.465   8.656 -2.6325 -0.8746 -0.7920
   20SAPC  H20S 2638   3.075   1.302   8.631  0.3499 -0.4115 -0.9598
   20SAPC  H20T 2639   3.258   1.364   8.637 -0.4709  0.3952  0.2695
   20SAPC   C33 2640   2.536   1.858   9.966 -0.1232  0.4705  0.0003
   20SAPC   H3X 2641   2.492   1.952  10.008 -1.4589 -0.2118  0.1881
   20SAPC   H3Y 2642   2.444   1.796   9.960 -0.7110  1.1033  1.7246
   20SAPC   C34 2643   2.577   1.881   9.817  0.4446 -0.3570 -0.4440
   20SAPC   H4X 2644   2.615   1.785   9.776 -3.0784 -1.4617 -1.4561
   20SAPC   H4Y 2645   2.656   1.959   9.819 -0.5495  0.6713  1.2231
   20SAPC   C35 2646   2.471   1.946   9.726 -0.3321 -0.3734  0.3133
   20SAPC   H5X 2647   2.441   2.033   9.788  0.3323  1.0632 -1.3049
   20SAPC   H5Y 2648   2.387   1.874   9.721 -0.5415 -0.1921  1.0722
   20SAPC   C36 2649   2.518   2.006   9.595  0.0454  0.5994 -0.2552
   20SAPC   H6X 2650   2.614   2.055   9.624 -0.1943 -1.2713  4.6077
   20SAPC   H6Y 2651   2.449   2.089   9.569  1.9617  2.0792 -0.9415
   20SAPC   C37 2652   2.541   1.908   9.490  0.4403  0.4015  0.1042
   20SAPC   H7X 2653   2.455   1.836   9.490 -1.0490  2.0726 -1.8538
   20SAPC   H7Y 2654   2.638   1.855   9.499 -0.4350 -1.7663 -1.9808
   20SAPC   C38 2655   2.532   1.983   9.355  0.0455  0.2479  0.0280
   20SAPC   H8X 2656   2.613   2.058   9.360  1.9516 -1.7683  1.7692
   20SAPC   H8Y 2657   2.436   2.038   9.350  0.2054  0.5311  0.0721
   20SAPC   C39 2658   2.556   1.885   9.235  0.0185  0.5792  0.1722
   20SAPC   H9X 2659   2.475   1.809   9.224  0.8080  0.1294 -4.0481
   20SAPC   H9Y 2660   2.648   1.824   9.246 -0.3986 -0.0371  0.3109
   20SAPC  C310 2661   2.578   1.967   9.115  0.4201  0.2433  0.4848
   20SAPC  H10X 2662   2.593   1.891   9.036  0.1976 -1.4334  1.9970
   20SAPC  H10Y 2663   2.675   2.018   9.133  0.2485  0.2126  1.5486
   20SAPC  C311 2664   2.468   2.067   9.072 -0.0789  0.0113 -0.0922
   20SAPC  H11X 2665   2.483   2.163   9.126 -0.5509  1.3905 -2.2936
   20SAPC  H11Y 2666   2.367   2.030   9.099  0.3575  0.9396  3.4352
   20SAPC  C312 2667   2.481   2.122   8.927  0.4060 -0.8103 -0.6392
   20SAPC  H12X 2668   2.582   2.167   8.916  0.2468 -0.2256  0.1641
   20SAPC  H12Y 2669   2.400   2.197   8.909  1.8928  1.3762  1.1830
   20SAPC  C313 2670   2.470   2.020   8.818  0.4798  0.6517 -0.1029
   20SAPC  H13X 2671   2.543   1.936   8.825  0.7811  0.3128 -4.4209
   20SAPC  H13Y 2672   2.513   2.067   8.727  1.5375  1.8243  0.9628
   20SAPC  C314 2673   2.334   1.956   8.794  0.7948 -0.2181 -0.0744
   20SAPC  H14X 2674   2.257   2.004   8.858 -0.1595 -1.1777 -0.4776
   20SAPC  H14Y 2675   2.336   1.853   8.834  1.2021  0.8089  2.8136
   20SAPC  C315 2676   2.279   1.948   8.646 -0.0957  0.0223 -0.5281
   20SAPC  H15X 2677   2.270   2.049   8.603  0.4653 -0.0890 -0.9203
   20SAPC  H15Y 2678   2.180   1.899   8.646  0.6868 -1.6836 -2.1579
   20SAPC  C316 2679   2.384   1.861   8.568  0.3036 -0.3056 -0.0071
   20SAPC  H16X 2680   2.400   1.760   8.611  2.9660  0.3201  0.6587
   20SAPC  H16Y 2681   2.479   1.918   8.575 -0.3635  0.9731 -0.9098
   20SAPC  C317 2682   2.363   1.849   8.413  0.3684  0.5969 -0.3370
   20SAPC  H17X 2683   2.454   1.803   8.368  0.0566  0.2655 -0.6345
   20SAPC  H17Y 2684   2.342   1.951   8.374  2.1467  0.6337 -1.2938
   20SAPC  C318 2685   2.252   1.740   8.384 -0.2475 -0.6946 -0.2538
   20SAPC  H18X 2686   2.155   1.772   8.428 -0.7860 -0.1030 -1.7829
   20SAPC  H18Y 2687   2.285   1.645   8.430 -0.1519  0.5134  2.3413
   20SAPC  H18Z 2688   2.238   1.728   8.274 -0.7330 -0.4263 -0.2281
   21SAPC     N 2689   3.221   6.321  10.840 -0.0706  0.3995 -0.6094
   21SAPC   C12 2690   3.357   6.377  10.796  0.1815  0.0870  0.0676
   21SAPC  H12A 2691   3.419   6.293  10.769  0.0523 -0.4616  1.4047
   21SAPC  H12B 2692   3.415   6.419  10.877 -3.0536  1.6493  1.7677
   21SAPC   C13 2693   3.148   6.416  10.932  0.1224  0.7597 -0.4972
   21SAPC  H13A 2694   3.211   6.453  11.011  0.5536  2.9427 -1.7752
   21SAPC  H13B 2695   3.122   6.497  10.864 -0.4082  0.4191 -0.7062
   21SAPC  H13C 2696   3.060   6.370  10.973  0.1871 -0.0376 -1.2167
   21SAPC   C14 2697   3.144   6.282  10.718  0.4095  0.1477 -0.6470
   21SAPC  H14A 2698   3.193   6.201  10.666  0.1785  0.0301 -0.6809
   21SAPC  H14B 2699   3.049   6.236  10.739  0.7273 -0.2639 -0.0989
   21SAPC  H14C 2700   3.137   6.373  10.660 -0.3368 -0.7006 -1.9397
   21SAPC   C15 2701   3.255   6.192  10.924 -0.1654 -1.0902  0.3058
   21SAPC  H15A 2702   3.325   6.140  10.861 -0.3282 -0.3615 -0.4956
   21SAPC  H15B 2703   3.282   6.226  11.022 -1.8190  0.1815  0.3639
   21SAPC  H15C 2704   3.157   6.149  10.935 -0.9445  0.0876 -1.5028
   21SAPC   C11 2705   3.367   6.483  10.682 -0.1381 -0.1947  0.3698
   21SAPC  H11A 2706   3.325   6.429  10.595  0.8875 -0.2589 -0.0986
   21SAPC  H11B 2707   3.476   6.497  10.667 -0.1356  0.1102  0.6467
   21SAPC     P 2708   3.172   6.669  10.624  0.1343  0.1779 -0.0652
   21SAPC   O13 2709   3.046   6.602  10.661 -0.3222  0.5521 -0.0707
   21SAPC   O14 2710   3.179   6.814  10.655 -0.2786  0.0524 -0.7556
   21SAPC   O12 2711   3.291   6.603  10.705 -0.2500 -0.2608 -0.4577
   21SAPC   O11 2712   3.214   6.636  10.475 -0.4325 -0.2150  0.2995
   21SAPC    C1 2713   3.345   6.649  10.417 -0.0685 -0.7515  0.3441
   21SAPC    HA 2714   3.414   6.709  10.480 -0.0519 -1.7286  1.2870
   21SAPC    HB 2715   3.396   6.550  10.418  3.4619  0.8638  2.7515
   21SAPC    C2 2716   3.335   6.717  10.284 -0.1044  0.1535  0.4845
   21SAPC    HS 2717   3.438   6.736  10.247  0.4061  1.1203  2.2821
   21SAPC   O21 2718   3.276   6.852  10.292 -0.1898  0.1556  0.4708
   21SAPC   C21 2719   3.357   6.932  10.354 -0.0149 -0.5570 -1.3264
   21SAPC   O22 2720   3.470   6.915  10.400  0.1085  0.1661 -0.1863
   21SAPC   C22 2721   3.285   7.066  10.378 -0.0708  0.1166  0.7581
   21SAPC   H2R 2722   3.199   7.082  10.310 -0.7288 -4.0131  0.3197
   21SAPC   H2S 2723   3.239   7.061  10.479 -1.2855 -0.5612  0.1869
   21SAPC    C3 2724   3.267   6.627  10.181  0.7608  0.0750  0.0121
   21SAPC    HX 2725   3.164   6.611  10.217 -0.0300 -0.1581 -2.1683
   21SAPC    HY 2726   3.322   6.530  10.187  1.8984  0.4320 -2.9126
   21SAPC   O31 2727   3.269   6.678  10.055  0.0455 -0.4003  0.0764
   21SAPC   C31 2728   3.253   6.599   9.948  0.1782 -0.1052 -0.1946
   21SAPC   O32 2729   3.227   6.481   9.947 -0.3704 -0.4845  0.2390
   21SAPC   C32 2730   3.278   6.688   9.828 -0.1399 -0.0898 -0.2334
   21SAPC   H2X 2731   3.387   6.680   9.809  0.3694  1.3946  1.7591
   21SAPC   H2Y 2732   3.264   6.795   9.854  2.1605  0.4120 -0.8393
   21SAPC   C23 2733   3.385   7.187  10.395 -0.1574  0.0839  0.4195
   21SAPC   H3R 2734   3.470   7.173  10.467  0.7544  0.7590 -0.4950
   21SAPC   H3S 2735   3.343   7.275  10.447  1.9597 -0.7000  3.8476
   21SAPC   C24 2736   3.456   7.219  10.265  0.4372  1.0723 -0.0003
   21SAPC   H4R 2737   3.509   7.132  10.221  0.0472  1.8163 -2.0125
   21SAPC   H4S 2738   3.542   7.280  10.302  0.8370 -0.5598  1.9428
   21SAPC   C25 2739   3.359   7.287  10.174 -0.3191  0.0566  0.0528
   21SAPC   H5R 2740   3.304   7.367  10.227 -2.5275  0.2906 -2.3631
   21SAPC   C26 2741   3.333   7.274  10.044  0.0111 -0.0590 -1.1291
   21SAPC   H6R 2742   3.261   7.350  10.010 -0.0994 -0.5950 -2.1179
   21SAPC   C27 2743   3.395   7.183   9.943  0.5517 -0.6763 -0.2239
   21SAPC   H7R 2744   3.478   7.120   9.981 -0.2765 -2.6389 -1.5164
   21SAPC   H7S 2745   3.433   7.256   9.869  0.5807  1.2385  1.5945
   21SAPC   C28 2746   3.297   7.098   9.876 -0.7423 -0.2144  0.7013
   21SAPC   H8R 2747   3.245   7.030   9.946  2.1554 -0.6937  2.5820
   21SAPC   C29 2748   3.275   7.088   9.741 -0.4324 -0.5320  0.0339
   21SAPC   H9R 2749   3.227   6.996   9.705 -0.2179 -1.2750  1.5556
   21SAPC  C210 2750   3.358   7.159   9.636  0.6424 -0.3104 -0.2294
   21SAPC  H10R 2751   3.387   7.075   9.569 -0.8320 -0.5087 -0.6717
   21SAPC  H10S 2752   3.448   7.214   9.672  1.6300 -2.2017  0.3244
   21SAPC  C211 2753   3.270   7.260   9.567 -0.2865 -0.3393  0.5073
   21SAPC  H11R 2754   3.212   7.331   9.629  2.2636  2.4504 -0.0602
   21SAPC  C212 2755   3.246   7.265   9.438 -0.4394 -0.1787  0.7415
   21SAPC  H12R 2756   3.174   7.332   9.388  2.1937  1.4551 -1.1380
   21SAPC  C213 2757   3.313   7.179   9.331 -0.1236 -0.1636 -0.7086
   21SAPC  H13R 2758   3.237   7.134   9.265  0.7329  1.8626 -3.2252
   21SAPC  H13S 2759   3.368   7.092   9.373 -0.6500 -1.0490 -1.8075
   21SAPC  C214 2760   3.415   7.265   9.255 -0.3243 -0.1646 -0.4246
   21SAPC  H14R 2761   3.506   7.291   9.310 -0.7436  0.7429 -0.1423
   21SAPC  C215 2762   3.417   7.299   9.120  0.0260  0.2788 -0.1808
   21SAPC  H15R 2763   3.495   7.372   9.092  1.3221 -0.1936  1.9179
   21SAPC  C216 2764   3.313   7.270   9.019  0.4999 -0.1149 -0.0240
   21SAPC  H16R 2765   3.235   7.198   9.053 -1.0356  1.4090 -0.2030
   21SAPC  H16S 2766   3.357   7.220   8.930 -0.2135 -0.1126 -0.3870
   21SAPC  C217 2767   3.243   7.402   8.986 -0.2776  0.1757  0.0403
   21SAPC  H17R 2768   3.183   7.387   8.893  1.5338  0.5353 -1.2391
   21SAPC  H17S 2769   3.321   7.478   8.964  0.4615 -0.6926 -0.3633
   21SAPC  C218 2770   3.131   7.430   9.082  0.2264 -0.4966  0.3354
   21SAPC  H18R 2771   3.172   7.459   9.181  1.3453 -2.0295  0.3510
   21SAPC  H18S 2772   3.066   7.342   9.102 -1.4008  0.9913  1.9548
   21SAPC  C219 2773   3.043   7.556   9.040 -0.2347  1.0995 -0.1909
   21SAPC  H19R 2774   3.093   7.653   9.020 -0.3356  1.5426  1.5558
   21SAPC  H19S 2775   2.981   7.579   9.130 -3.6433 -2.3244 -1.3788
   21SAPC  C220 2776   2.941   7.516   8.931  0.4539  0.1397  0.3939
   21SAPC  H20R 2777   2.860   7.452   8.972  0.8984  0.2207  1.4425
   21SAPC  H20S 2778   2.993   7.468   8.845  0.4569 -0.3961  0.6872
   21SAPC  H20T 2779   2.888   7.607   8.896 -3.3223 -0.9354  2.7639
   21SAPC   C33 2780   3.208   6.645   9.701  0.6188  0.4909 -0.5177
   21SAPC   H3X 2781   3.097   6.647   9.705  0.6184  2.6324 -0.0349
   21SAPC   H3Y 2782   3.227   6.537   9.687 -1.4696 -0.0856  0.7391
   21SAPC   C34 2783   3.258   6.722   9.581 -0.0597 -0.3339  0.3790
   21SAPC   H4X 2784   3.367   6.704   9.568  0.0253  0.0778  0.5104
   21SAPC   H4Y 2785   3.238   6.827   9.609  1.8702  0.1289  0.1188
   21SAPC   C35 2786   3.181   6.683   9.454 -0.2113 -0.7054 -0.3801
   21SAPC   H5X 2787   3.075   6.692   9.485  0.1293 -1.2028  0.9777
   21SAPC   H5Y 2788   3.208   6.583   9.414  1.3937 -0.6601  0.4823
   21SAPC   C36 2789   3.206   6.786   9.352  0.5993  0.2556  0.1877
   21SAPC   H6X 2790   3.317   6.785   9.348  0.6300  0.3531  0.9143
   21SAPC   H6Y 2791   3.165   6.886   9.374  1.3626  0.5364  0.3456
   21SAPC   C37 2792   3.133   6.744   9.219 -0.2052 -0.2141  0.6051
   21SAPC   H7X 2793   3.024   6.728   9.230 -0.2020 -1.7027 -1.0388
   21SAPC   H7Y 2794   3.179   6.645   9.196 -0.4800 -0.1848 -0.0851
   21SAPC   C38 2795   3.164   6.841   9.105  0.3356  0.8807  0.4526
   21SAPC   H8X 2796   3.109   6.936   9.121 -2.3593 -0.2800 -1.2463
   21SAPC   H8Y 2797   3.116   6.808   9.010 -0.1790 -1.3312  1.4355
   21SAPC   C39 2798   3.323   6.864   9.092  0.1299 -0.0332 -0.1324
   21SAPC   H9X 2799   3.382   6.771   9.103  0.1291 -0.1157 -0.7575
   21SAPC   H9Y 2800   3.354   6.930   9.175 -1.7613  2.5008 -1.2914
   21SAPC  C310 2801   3.365   6.924   8.954  0.1930 -0.3948 -0.4836
   21SAPC  H10X 2802   3.311   7.020   8.936 -0.5085 -1.1303 -2.6566
   21SAPC  H10Y 2803   3.330   6.858   8.872  1.4884  0.7387 -2.0075
   21SAPC  C311 2804   3.521   6.932   8.924 -0.0952 -0.0458 -0.1343
   21SAPC  H11X 2805   3.579   6.840   8.942 -0.0701 -0.1666 -0.8121
   21SAPC  H11Y 2806   3.578   7.006   8.985  2.4200 -0.4088 -1.8898
   21SAPC  C312 2807   3.544   6.964   8.782  0.1152  0.2467 -0.5193
   21SAPC  H12X 2808   3.499   7.064   8.765  0.9961  0.9315  0.9753
   21SAPC  H12Y 2809   3.477   6.901   8.720 -0.6947  0.4448  0.1444
   21SAPC  C313 2810   3.691   6.956   8.726  0.2153  0.1365 -0.1667
   21SAPC  H13X 2811   3.713   6.855   8.686 -1.6441 -0.7205  0.8206
   21SAPC  H13Y 2812   3.764   6.969   8.809  0.4630  0.0096 -0.3644
   21SAPC  C314 2813   3.718   7.052   8.618 -0.3766 -0.4047 -0.1813
   21SAPC  H14X 2814   3.827   7.058   8.595 -0.3592  0.0910  0.0004
   21SAPC  H14Y 2815   3.681   7.154   8.644 -4.8463 -1.6823 -0.7403
   21SAPC  C315 2816   3.651   7.006   8.492  0.4718  0.5325 -0.2826
   21SAPC  H15X 2817   3.541   7.021   8.495  0.3902  0.1271 -0.9368
   21SAPC  H15Y 2818   3.671   6.899   8.469  0.1685  0.7347 -1.5556
   21SAPC  C316 2819   3.699   7.088   8.367 -0.2048  0.9297  0.3064
   21SAPC  H16X 2820   3.792   7.042   8.327 -0.3698  0.2210  0.7270
   21SAPC  H16Y 2821   3.725   7.193   8.393  1.4207  1.1307 -1.8496
   21SAPC  C317 2822   3.593   7.091   8.258 -0.6862  0.5749  0.0739
   21SAPC  H17X 2823   3.516   7.162   8.293 -1.6246  0.1295 -1.0104
   21SAPC  H17Y 2824   3.544   6.991   8.248  1.1312 -0.2754 -1.0174
   21SAPC  C318 2825   3.643   7.115   8.118  0.4334  0.0154 -0.7406
   21SAPC  H18X 2826   3.692   7.214   8.109  3.1992 -1.1116  0.8451
   21SAPC  H18Y 2827   3.558   7.105   8.047  0.1399 -0.5326 -0.3140
   21SAPC  H18Z 2828   3.717   7.037   8.089  0.8497 -0.0253  0.3904
   22SAPC     N 2829   1.612   3.470  10.974 -0.0122  0.4338  0.0284
   22SAPC   C12 2830   1.655   3.423  10.838 -1.1645  0.5878  0.0564
   22SAPC  H12A 2831   1.609   3.494  10.770 -0.5015  1.6300  0.6651
   22SAPC  H12B 2832   1.615   3.325  10.819  0.7013 -0.2747  0.3868
   22SAPC   C13 2833   1.660   3.380  11.086  0.0536 -0.8251  0.5051
   22SAPC  H13A 2834   1.610   3.284  11.086 -3.6775  0.8693 -1.4867
   22SAPC  H13B 2835   1.767   3.367  11.084  0.1812  0.1206  0.7735
   22SAPC  H13C 2836   1.621   3.413  11.181 -0.8357  0.3926 -0.2493
   22SAPC   C14 2837   1.649   3.615  10.998  0.0571  0.6468 -0.7856
   22SAPC  H14A 2838   1.756   3.623  11.000  0.0644  0.5138  0.3575
   22SAPC  H14B 2839   1.611   3.679  10.920 -0.5377 -0.0656 -1.0919
   22SAPC  H14C 2840   1.611   3.644  11.095  0.8817 -0.3170 -0.1620
   22SAPC   C15 2841   1.465   3.472  10.972 -0.0045 -0.6574 -1.0481
   22SAPC  H15A 2842   1.428   3.516  11.063 -1.4655  1.1801 -2.4607
   22SAPC  H15B 2843   1.429   3.536  10.893  0.8064  0.4808 -0.5082
   22SAPC  H15C 2844   1.423   3.373  10.960 -0.7242 -0.6569  1.1242
   22SAPC   C11 2845   1.801   3.410  10.808  0.5469  0.6600 -0.1824
   22SAPC  H11A 2846   1.835   3.515  10.817 -0.1741  0.8567  0.3124
   22SAPC  H11B 2847   1.798   3.365  10.706 -0.5619 -1.4265  0.7013
   22SAPC     P 2848   1.960   3.216  10.862  0.4104  0.3086  0.6481
   22SAPC   O13 2849   2.087   3.268  10.812  0.0100 -0.2248 -0.3614
   22SAPC   O14 2850   1.965   3.113  10.971 -0.7372  0.4775  0.3233
   22SAPC   O12 2851   1.861   3.329  10.905 -0.1429 -0.0378  0.0102
   22SAPC   O11 2852   1.888   3.159  10.740 -0.4466 -0.5158  0.3948
   22SAPC    C1 2853   1.944   3.077  10.637 -0.5430 -0.9808  0.5399
   22SAPC    HA 2854   2.049   3.052  10.661 -0.7628  0.0290  2.9582
   22SAPC    HB 2855   1.889   2.981  10.634  1.6891 -2.3332  0.7827
   22SAPC    C2 2856   1.936   3.150  10.499  0.1808  0.5466  0.0890
   22SAPC    HS 2857   1.995   3.087  10.428 -1.2753 -1.3309  0.4804
   22SAPC   O21 2858   1.989   3.288  10.508  0.1596 -0.1976 -0.3499
   22SAPC   C21 2859   2.117   3.303  10.514  0.1573 -0.9443  0.4968
   22SAPC   O22 2860   2.205   3.220  10.496  0.2178  0.2546 -0.3368
   22SAPC   C22 2861   2.139   3.446  10.562 -0.0085 -0.1727 -0.6625
   22SAPC   H2R 2862   2.058   3.487  10.626  1.6128  0.3682  1.1264
   22SAPC   H2S 2863   2.208   3.433  10.648 -1.4495 -1.8171  0.3037
   22SAPC    C3 2864   1.792   3.144  10.446  0.5251  0.0253 -0.0431
   22SAPC    HX 2865   1.726   3.194  10.521 -0.8804  1.9592 -2.4304
   22SAPC    HY 2866   1.750   3.041  10.442 -0.6235  0.4999 -0.5774
   22SAPC   O31 2867   1.766   3.214  10.324 -0.5595 -0.4898  0.4538
   22SAPC   C31 2868   1.805   3.146  10.218 -0.6780 -0.6232 -0.6581
   22SAPC   O32 2869   1.841   3.030  10.216 -0.1714  0.1023 -0.1804
   22SAPC   C32 2870   1.806   3.239  10.101 -0.3934 -0.3908  0.0449
   22SAPC   H2X 2871   1.896   3.303  10.111 -0.4903 -0.1762 -0.4337
   22SAPC   H2Y 2872   1.709   3.294  10.107 -1.6799 -2.3278 -1.6801
   22SAPC   C23 2873   2.192   3.541  10.452  0.0304  0.5861 -0.4771
   22SAPC   H3R 2874   2.297   3.512  10.430  0.0579  0.1015  0.2666
   22SAPC   H3S 2875   2.190   3.641  10.501 -0.0154 -0.3214  1.4551
   22SAPC   C24 2876   2.111   3.538  10.323  0.0008  0.1884 -0.0392
   22SAPC   H4R 2877   2.003   3.554  10.339 -0.6948 -0.3247 -3.5212
   22SAPC   H4S 2878   2.117   3.437  10.275 -1.3750  0.9711 -1.9571
   22SAPC   C25 2879   2.158   3.642  10.216  0.2778 -0.3709  0.4616
   22SAPC   H5R 2880   2.266   3.653  10.197 -0.0241  1.8156 -0.3621
   22SAPC   C26 2881   2.080   3.725  10.144  0.2814 -0.6558  0.7806
   22SAPC   H6R 2882   2.125   3.797  10.074 -2.3992  2.7844  2.2845
   22SAPC   C27 2883   1.930   3.738  10.163 -0.4103 -0.0024  0.4659
   22SAPC   H7R 2884   1.910   3.769  10.268 -0.2447  1.5971  0.0585
   22SAPC   H7S 2885   1.875   3.642  10.150 -1.0014  0.1088  1.9307
   22SAPC   C28 2886   1.879   3.845  10.061  0.6060 -1.0361  0.4533
   22SAPC   H8R 2887   1.864   3.940  10.114 -1.2600  0.4467 -2.4667
   22SAPC   C29 2888   1.843   3.826   9.931  0.2549 -0.4675  0.0831
   22SAPC   H9R 2889   1.813   3.912   9.870 -3.2541 -2.2374 -0.9815
   22SAPC  C210 2890   1.847   3.694   9.861  0.2883  0.5236 -0.6719
   22SAPC  H10R 2891   1.930   3.627   9.894 -2.1261 -2.5630 -0.3359
   22SAPC  H10S 2892   1.855   3.712   9.752  2.2475  0.5523 -0.5551
   22SAPC  C211 2893   1.724   3.612   9.899  0.9572 -0.1726  0.2174
   22SAPC  H11R 2894   1.666   3.643   9.987 -0.7690 -0.2896 -0.8316
   22SAPC  C212 2895   1.670   3.504   9.834 -0.1121  0.2009  0.1552
   22SAPC  H12R 2896   1.583   3.452   9.876  1.4176 -2.2625  0.4984
   22SAPC  C213 2897   1.717   3.459   9.702  0.2564  0.0165 -0.1772
   22SAPC  H13R 2898   1.748   3.355   9.725 -1.3465 -0.2894  0.6888
   22SAPC  H13S 2899   1.809   3.514   9.673 -1.0065  0.6865 -3.3366
   22SAPC  C214 2900   1.639   3.454   9.574  0.4442 -0.2145 -0.2148
   22SAPC  H14R 2901   1.529   3.453   9.584  0.3306 -1.9452 -1.2273
   22SAPC  C215 2902   1.683   3.478   9.448  0.5203  0.7954 -0.8679
   22SAPC  H15R 2903   1.603   3.454   9.375  0.5110 -2.3617  0.0414
   22SAPC  C216 2904   1.825   3.505   9.409 -0.5023 -0.4316  0.6243
   22SAPC  H16R 2905   1.892   3.478   9.493 -0.1297  1.3780  0.9502
   22SAPC  H16S 2906   1.829   3.614   9.392 -2.1489 -0.3752  0.4263
   22SAPC  C217 2907   1.879   3.431   9.286  0.3949  0.5015  0.2183
   22SAPC  H17R 2908   1.814   3.456   9.199  1.3818  1.5116 -0.2616
   22SAPC  H17S 2909   1.863   3.322   9.296  0.6629  0.2263 -1.8296
   22SAPC  C218 2910   2.021   3.463   9.240  0.0013 -0.6473  0.7519
   22SAPC  H18R 2911   2.086   3.393   9.297  0.6398 -0.4722  0.2440
   22SAPC  H18S 2912   2.057   3.559   9.282 -2.4201 -0.1188  1.8265
   22SAPC  C219 2913   2.025   3.480   9.091  0.0137  0.5266 -0.5781
   22SAPC  H19R 2914   1.935   3.537   9.058 -0.8955  1.0849  2.5349
   22SAPC  H19S 2915   2.016   3.379   9.046  1.6749  0.1887 -0.1948
   22SAPC  C220 2916   2.151   3.554   9.045  0.9883  0.1914  1.1101
   22SAPC  H20R 2917   2.236   3.493   9.082  0.9131  0.9523  2.6011
   22SAPC  H20S 2918   2.161   3.652   9.095  1.8582  0.9038 -0.3858
   22SAPC  H20T 2919   2.151   3.564   8.935 -0.8720  2.1865  1.2232
   22SAPC   C33 2920   1.808   3.159   9.969  0.2247  0.4078 -0.5312
   22SAPC   H3X 2921   1.895   3.093   9.948 -0.8567 -0.5384 -2.1904
   22SAPC   H3Y 2922   1.801   3.234   9.888  0.1018  0.4734 -0.4597
   22SAPC   C34 2923   1.688   3.065   9.945 -0.3127 -0.4443  0.4651
   22SAPC   H4X 2924   1.599   3.130   9.956  1.4758  2.1356  0.5477
   22SAPC   H4Y 2925   1.671   2.987  10.022 -3.1748 -0.0740  0.3282
   22SAPC   C35 2926   1.699   2.990   9.810  0.0975  0.1025  0.2077
   22SAPC   H5X 2927   1.600   2.941   9.809 -0.5879  1.4512 -1.2350
   22SAPC   H5Y 2928   1.773   2.907   9.821  1.3899  0.9160 -1.7881
   22SAPC   C36 2929   1.708   3.079   9.685  0.1942 -0.4112  0.1861
   22SAPC   H6X 2930   1.803   3.136   9.691  0.1686 -0.4403  0.9850
   22SAPC   H6Y 2931   1.620   3.146   9.684  0.5627  0.1567  1.9790
   22SAPC   C37 2932   1.714   2.988   9.565 -0.0397  0.3038  0.0805
   22SAPC   H7X 2933   1.632   2.914   9.561 -0.2437  0.5731 -1.0256
   22SAPC   H7Y 2934   1.808   2.929   9.569 -0.9322 -1.2294 -0.6757
   22SAPC   C38 2935   1.716   3.069   9.439  0.0162 -0.1565  0.4627
   22SAPC   H8X 2936   1.789   3.153   9.443 -0.2943  0.1827 -0.6340
   22SAPC   H8Y 2937   1.614   3.106   9.419 -0.2390 -1.7154 -1.4694
   22SAPC   C39 2938   1.758   2.983   9.316 -0.3359 -0.2702 -0.8137
   22SAPC   H9X 2939   1.684   2.901   9.307 -0.2736 -0.3325 -0.7557
   22SAPC   H9Y 2940   1.858   2.935   9.331  0.1440  0.9121 -0.1067
   22SAPC  C310 2941   1.756   3.047   9.183 -0.2944 -0.0812 -0.1297
   22SAPC  H10X 2942   1.828   3.132   9.192 -0.4150  0.0059  0.0153
   22SAPC  H10Y 2943   1.658   3.087   9.150 -0.1547 -0.8550 -1.5356
   22SAPC  C311 2944   1.805   2.968   9.063  0.9234 -0.0130  0.3372
   22SAPC  H11X 2945   1.746   2.875   9.051  0.7134  0.0192  1.0629
   22SAPC  H11Y 2946   1.907   2.934   9.092  0.5001 -2.4173 -0.7690
   22SAPC  C312 2947   1.821   3.046   8.932  0.0255  0.4314 -0.1204
   22SAPC  H12X 2948   1.883   3.134   8.961 -2.0557  1.4470  1.5665
   22SAPC  H12Y 2949   1.722   3.083   8.896 -0.8871  1.0267  2.7145
   22SAPC  C313 2950   1.896   2.965   8.830 -0.0985 -0.4627  0.6097
   22SAPC  H13X 2951   1.847   2.872   8.797  2.5116 -2.0072  0.8147
   22SAPC  H13Y 2952   1.986   2.924   8.881 -1.2360 -2.9792  0.7425
   22SAPC  C314 2953   1.922   3.058   8.712  0.1113 -0.0966 -0.2651
   22SAPC  H14X 2954   1.975   3.148   8.747 -0.7318  0.3453 -0.1101
   22SAPC  H14Y 2955   1.824   3.093   8.673  0.3031  1.2315  0.4230
   22SAPC  C315 2956   2.001   2.998   8.600 -0.0741  0.3724 -0.3130
   22SAPC  H15X 2957   1.944   2.908   8.569 -1.1248  0.8585  0.1584
   22SAPC  H15Y 2958   2.102   2.970   8.638 -0.3871  1.6031  1.5577
   22SAPC  C316 2959   2.009   3.105   8.490  0.2003 -0.3480  0.3297
   22SAPC  H16X 2960   2.043   3.190   8.553  0.8054 -0.6547  0.4250
   22SAPC  H16Y 2961   1.910   3.138   8.452 -0.2621 -2.5551 -0.5584
   22SAPC  C317 2962   2.114   3.062   8.383 -0.0948  0.7310  0.2861
   22SAPC  H17X 2963   2.077   2.977   8.322  1.9539  0.5792 -0.8124
   22SAPC  H17Y 2964   2.213   3.035   8.426 -0.7794 -0.0072  1.4756
   22SAPC  C318 2965   2.151   3.169   8.280  0.3646  0.8335 -0.3737
   22SAPC  H18X 2966   2.159   3.268   8.330  1.4490  0.8579 -0.5774
   22SAPC  H18Y 2967   2.056   3.176   8.222  0.6416 -0.7124 -1.0563
   22SAPC  H18Z 2968   2.230   3.141   8.208 -1.4110 -1.0798 -1.6943
   23SAPC     N 2969   4.236   0.831  10.954 -0.0341 -0.8182 -0.0156
   23SAPC   C12 2970   4.169   0.786  10.817  0.2580 -0.2839  0.2678
   23SAPC  H12A 2971   4.094   0.713  10.843 -1.8276  0.7927 -2.3462
   23SAPC  H12B 2972   4.241   0.740  10.751  0.8465  2.6927 -1.3591
   23SAPC   C13 2973   4.363   0.903  10.956  0.4097  0.0311  0.2020
   23SAPC  H13A 2974   4.370   0.967  11.043 -0.2313  0.4721 -0.0656
   23SAPC  H13B 2975   4.450   0.840  10.944  1.6876  1.8975 -0.8696
   23SAPC  H13C 2976   4.374   0.971  10.873 -0.1636 -1.4471 -1.1160
   23SAPC   C14 2977   4.143   0.913  11.031 -0.0432 -0.7849 -0.2246
   23SAPC  H14A 2978   4.054   0.860  11.064  0.4803 -1.1030  0.7077
   23SAPC  H14B 2979   4.190   0.954  11.118 -1.7509  0.2504  0.2594
   23SAPC  H14C 2980   4.103   0.989  10.965  0.6326 -0.5734 -0.4001
   23SAPC   C15 2981   4.266   0.706  11.039 -0.4485 -0.0343 -0.1286
   23SAPC  H15A 2982   4.324   0.737  11.125 -1.1232  0.6765  0.0772
   23SAPC  H15B 2983   4.167   0.669  11.062 -1.5309  2.4339 -0.5209
   23SAPC  H15C 2984   4.323   0.636  10.980 -0.6811  0.8987 -1.4964
   23SAPC   C11 2985   4.103   0.904  10.740 -0.1957  0.2809 -0.2066
   23SAPC  H11A 2986   4.075   0.854  10.645  1.5439  2.2283 -1.8645
   23SAPC  H11B 2987   4.185   0.974  10.713 -0.6283  0.4367 -1.1571
   23SAPC     P 2988   3.920   1.090  10.746  0.1055 -0.1095  0.6291
   23SAPC   O13 2989   3.788   1.091  10.800  0.2494  0.5150 -0.5386
   23SAPC   O14 2990   4.006   1.208  10.766  0.0001 -0.0551 -0.0172
   23SAPC   O12 2991   3.991   0.965  10.808 -0.4809 -0.0817  0.0170
   23SAPC   O11 2992   3.914   1.057  10.590  0.1451 -0.6731  0.1975
   23SAPC    C1 2993   3.798   0.996  10.533  0.0539 -0.0865 -0.0329
   23SAPC    HA 2994   3.828   0.924  10.454  0.0172  0.6283 -0.7155
   23SAPC    HB 2995   3.737   0.941  10.608 -0.3884 -0.5920 -0.7457
   23SAPC    C2 2996   3.705   1.092  10.456  0.8950  0.6336  0.0836
   23SAPC    HS 2997   3.643   1.030  10.387  0.3010  0.7290  0.5257
   23SAPC   O21 2998   3.781   1.200  10.398  0.1976  0.9199  0.4088
   23SAPC   C21 2999   3.827   1.172  10.276  0.4724 -0.2644 -0.0411
   23SAPC   O22 3000   3.814   1.066  10.216 -0.6672 -0.4996 -0.0032
   23SAPC   C22 3001   3.882   1.311  10.215  0.0994 -0.3413 -0.1906
   23SAPC   H2R 3002   3.787   1.368  10.212 -1.1977 -2.3337  0.8302
   23SAPC   H2S 3003   3.956   1.351  10.288 -0.9853  0.7450  0.3272
   23SAPC    C3 3004   3.590   1.159  10.531 -0.4932 -0.3259 -0.9620
   23SAPC    HX 3005   3.647   1.231  10.593  1.4924 -0.7492 -2.2221
   23SAPC    HY 3006   3.538   1.086  10.597 -0.9193  1.2896  0.5806
   23SAPC   O31 3007   3.487   1.224  10.462  0.5215 -0.4350 -0.1163
   23SAPC   C31 3008   3.395   1.156  10.404 -0.3913  0.9036 -0.3748
   23SAPC   O32 3009   3.393   1.031  10.405 -0.3165  0.9715 -0.5306
   23SAPC   C32 3010   3.291   1.240  10.337  0.2412 -0.2131 -0.1485
   23SAPC   H2X 3011   3.344   1.309  10.267 -0.8357  0.9548  0.1605
   23SAPC   H2Y 3012   3.255   1.307  10.418 -0.0959 -0.2126 -0.2989
   23SAPC   C23 3013   3.934   1.280  10.073 -0.0779  0.9189  0.1760
   23SAPC   H3R 3014   3.851   1.239  10.011 -1.0475  0.2121  1.8557
   23SAPC   H3S 3015   4.017   1.206  10.078 -1.2451 -0.5400 -1.1639
   23SAPC   C24 3016   3.998   1.391   9.994 -0.2317 -0.1512  0.4807
   23SAPC   H4R 3017   4.031   1.340   9.901  1.7678  0.6648  0.6909
   23SAPC   H4S 3018   4.090   1.423  10.048 -0.5761 -0.2350  1.1310
   23SAPC   C25 3019   3.919   1.517   9.966 -0.6819  0.0490  0.0796
   23SAPC   H5R 3020   3.896   1.583  10.050 -2.0973  1.3708 -1.2721
   23SAPC   C26 3021   3.883   1.551   9.836 -0.2318 -0.3507 -0.5065
   23SAPC   H6R 3022   3.815   1.638   9.834 -1.4192 -1.0719  2.8785
   23SAPC   C27 3023   3.899   1.487   9.705 -0.5499  0.2325  0.0300
   23SAPC   H7R 3024   3.924   1.379   9.711 -0.1026  0.3043 -0.4955
   23SAPC   H7S 3025   3.989   1.533   9.660 -0.4885  1.1781  1.0806
   23SAPC   C28 3026   3.774   1.510   9.613 -0.2250  0.4516  0.3079
   23SAPC   H8R 3027   3.689   1.448   9.647 -0.1332 -0.8971 -1.7377
   23SAPC   C29 3028   3.750   1.597   9.518  0.4317 -0.4187  0.0600
   23SAPC   H9R 3029   3.646   1.605   9.484 -0.0190  1.8009  1.7207
   23SAPC  C210 3030   3.831   1.712   9.468 -0.0169 -0.0954 -0.0034
   23SAPC  H10R 3031   3.867   1.685   9.367  0.4135 -0.6774  0.2991
   23SAPC  H10S 3032   3.927   1.724   9.523  1.9954 -0.7187 -3.1109
   23SAPC  C211 3033   3.747   1.840   9.463 -0.1828 -1.0061 -0.6434
   23SAPC  H11R 3034   3.716   1.888   9.557 -1.3664  0.5379 -1.7703
   23SAPC  C212 3035   3.708   1.908   9.352 -0.0132 -0.4739 -0.4297
   23SAPC  H12R 3036   3.661   2.005   9.373  1.1035 -0.0915  0.4018
   23SAPC  C213 3037   3.726   1.870   9.212  0.4223 -0.3633 -0.2261
   23SAPC  H13R 3038   3.626   1.888   9.167 -1.0927 -1.2536  2.5585
   23SAPC  H13S 3039   3.743   1.761   9.198 -3.0564 -1.1232  0.6523
   23SAPC  C214 3040   3.832   1.946   9.139  0.2027 -0.2930  0.7304
   23SAPC  H14R 3041   3.923   1.952   9.200  0.2765 -1.4210  0.7429
   23SAPC  C215 3042   3.831   2.029   9.034 -0.5089 -0.3311  0.3732
   23SAPC  H15R 3043   3.928   2.073   9.006 -0.5119 -0.5222  0.0583
   23SAPC  C216 3044   3.705   2.070   8.956 -0.5213  0.1206  0.0654
   23SAPC  H16R 3045   3.656   2.146   9.020  0.3517 -0.1258  1.0433
   23SAPC  H16S 3046   3.635   1.985   8.940 -0.7460  0.4765 -0.9099
   23SAPC  C217 3047   3.740   2.140   8.823 -0.1149  0.3399  0.1301
   23SAPC  H17R 3048   3.834   2.100   8.777  0.0648  0.3719  0.4695
   23SAPC  H17S 3049   3.761   2.246   8.846 -1.5139  0.8520 -0.8650
   23SAPC  C218 3050   3.629   2.126   8.723 -0.7612  0.3911 -0.0539
   23SAPC  H18R 3051   3.644   2.200   8.641 -0.7424 -0.4550 -0.8339
   23SAPC  H18S 3052   3.533   2.147   8.774 -1.3530 -0.6914 -0.6862
   23SAPC  C219 3053   3.610   1.997   8.646 -0.1319 -0.7148 -0.6421
   23SAPC  H19R 3054   3.524   2.002   8.576 -3.0691  0.8262  2.8201
   23SAPC  H19S 3055   3.604   1.927   8.732  1.1247  2.7584  2.5535
   23SAPC  C220 3056   3.732   1.948   8.567 -0.0606  1.0981 -0.1429
   23SAPC  H20R 3057   3.754   2.011   8.479  0.5685  0.4313 -0.4693
   23SAPC  H20S 3058   3.719   1.845   8.527  2.0347  0.7448 -0.0415
   23SAPC  H20T 3059   3.825   1.940   8.627 -1.6893  0.8832  2.5118
   23SAPC   C33 3060   3.176   1.160  10.275 -0.3843 -1.0522 -0.4134
   23SAPC   H3X 3061   3.094   1.232  10.252  2.3030  2.3100 -0.2726
   23SAPC   H3Y 3062   3.137   1.078  10.339 -1.6025  1.4432  2.2570
   23SAPC   C34 3063   3.197   1.102  10.132  0.2963  0.0451  0.4708
   23SAPC   H4X 3064   3.291   1.043  10.131  0.6189  0.4672 -2.1511
   23SAPC   H4Y 3065   3.217   1.193  10.072  1.8037 -0.0585  0.7760
   23SAPC   C35 3066   3.082   1.005  10.092  0.1667  0.4535 -0.5208
   23SAPC   H5X 3067   2.983   1.048  10.121 -0.0424 -1.0186  1.1382
   23SAPC   H5Y 3068   3.078   0.915  10.157  1.0034 -0.3167 -1.4995
   23SAPC   C36 3069   3.085   0.961   9.946 -0.0580 -0.3801  0.2927
   23SAPC   H6X 3070   3.113   0.854   9.933  0.3162 -0.4427  1.5014
   23SAPC   H6Y 3071   3.175   1.006   9.898 -1.9386 -0.0564 -3.2768
   23SAPC   C37 3072   2.973   0.997   9.856 -0.3612 -0.0756  0.1576
   23SAPC   H7X 3073   2.965   1.108   9.846  0.8381 -0.1900 -2.9090
   23SAPC   H7Y 3074   2.882   0.947   9.897 -0.6092  1.2741  1.3734
   23SAPC   C38 3075   2.989   0.943   9.717 -0.5328  0.0077  0.4340
   23SAPC   H8X 3076   2.979   0.832   9.719  1.9405 -0.2674  0.8070
   23SAPC   H8Y 3077   3.090   0.957   9.674 -1.0337  0.6458 -0.5808
   23SAPC   C39 3078   2.881   0.987   9.624  0.2600  0.4494 -0.7389
   23SAPC   H9X 3079   2.876   1.096   9.642 -1.1492 -0.0381  2.7119
   23SAPC   H9Y 3080   2.780   0.946   9.646  0.5429  0.8915  1.7255
   23SAPC  C310 3081   2.899   0.954   9.476 -0.0743 -0.1159  0.0523
   23SAPC  H10X 3082   2.806   0.972   9.418  0.3909  0.8960 -0.4056
   23SAPC  H10Y 3083   2.915   0.846   9.454  1.0763  0.4327 -2.1260
   23SAPC  C311 3084   3.011   1.038   9.422  0.3806  0.2921  0.8994
   23SAPC  H11X 3085   3.102   1.017   9.481  2.0404  2.1353 -0.8406
   23SAPC  H11Y 3086   2.982   1.144   9.438  2.1427  0.8557  0.5981
   23SAPC  C312 3087   3.050   1.013   9.273 -0.2092  0.1135  0.0373
   23SAPC  H12X 3088   3.046   0.903   9.260  0.3858  0.0219  0.6049
   23SAPC  H12Y 3089   3.158   1.039   9.269 -0.5592  1.6151 -0.5745
   23SAPC  C313 3090   2.962   1.092   9.172  0.1395  0.0941  0.8909
   23SAPC  H13X 3091   3.026   1.117   9.084 -0.8101 -0.0284  0.1596
   23SAPC  H13Y 3092   2.937   1.194   9.211 -0.8165 -0.0986  0.8018
   23SAPC  C314 3093   2.847   1.013   9.113 -0.5519 -0.4875 -0.3155
   23SAPC  H14X 3094   2.771   0.989   9.191 -1.1855 -0.1936 -0.8285
   23SAPC  H14Y 3095   2.871   0.915   9.065  0.6889  0.2516 -1.2505
   23SAPC  C315 3096   2.777   1.105   9.022  0.0652 -0.4664  0.4792
   23SAPC  H15X 3097   2.826   1.111   8.922 -2.5085  0.2677 -0.8338
   23SAPC  H15Y 3098   2.782   1.206   9.066 -1.3068 -1.2974  2.7045
   23SAPC  C316 3099   2.625   1.078   9.001  0.7131 -1.1111  1.0287
   23SAPC  H16X 3100   2.575   1.080   9.101 -0.0827  1.7879  0.6610
   23SAPC  H16Y 3101   2.608   0.979   8.954  1.7967  0.3157 -2.6492
   23SAPC  C317 3102   2.556   1.198   8.925  0.5173 -0.4517 -0.1871
   23SAPC  H17X 3103   2.614   1.224   8.835  0.4693 -0.2091 -0.1489
   23SAPC  H17Y 3104   2.567   1.289   8.989  0.4927 -0.4112 -0.2410
   23SAPC  C318 3105   2.413   1.186   8.881  0.1760 -0.3064 -0.8760
   23SAPC  H18X 3106   2.376   1.285   8.848  3.0616  1.3785  0.5900
   23SAPC  H18Y 3107   2.350   1.152   8.965  1.3009  1.2097  0.6397
   23SAPC  H18Z 3108   2.408   1.109   8.801 -0.7379  1.1052 -2.2314
   24SAPC     N 3109   6.045   1.883  11.174 -0.4796 -0.1371  0.5407
   24SAPC   C12 3110   6.079   1.945  11.032  0.3530  0.2878 -0.7966
   24SAPC  H12A 3111   6.151   2.025  11.040  1.0213 -0.4357  0.6786
   24SAPC  H12B 3112   5.985   1.984  10.994  0.0298 -0.2746 -0.5771
   24SAPC   C13 3113   6.166   1.822  11.236  0.1103  0.0826 -1.1009
   24SAPC  H13A 3114   6.154   1.794  11.340 -1.6179  0.6425 -1.1327
   24SAPC  H13B 3115   6.191   1.731  11.182  0.5768 -2.1236  2.4540
   24SAPC  H13C 3116   6.254   1.884  11.224  0.4257 -0.0073  0.5172
   24SAPC   C14 3117   6.003   1.996  11.263 -0.2532  0.1018  0.0686
   24SAPC  H14A 3118   5.915   2.040  11.220 -0.5745 -0.4384  0.1543
   24SAPC  H14B 3119   5.977   1.949  11.357  0.3127 -0.8194 -0.2152
   24SAPC  H14C 3120   6.076   2.073  11.281 -0.4885  0.3444 -0.0156
   24SAPC   C15 3121   5.930   1.789  11.156 -0.0597  0.0318 -0.7529
   24SAPC  H15A 3122   5.955   1.690  11.120 -1.4621 -0.4968 -0.3611
   24SAPC  H15B 3123   5.882   1.766  11.251 -0.9761  0.5718 -1.0718
   24SAPC  H15C 3124   5.845   1.841  11.115  0.0111  0.6580 -0.1279
   24SAPC   C11 3125   6.132   1.846  10.921  0.5864  0.3386  0.3873
   24SAPC  H11A 3126   6.142   1.918  10.837 -0.3029  0.6770  0.5585
   24SAPC  H11B 3127   6.051   1.773  10.901  0.4027  0.2663  1.3396
   24SAPC     P 3128   6.398   1.854  10.937 -0.0644  0.2840 -0.4028
   24SAPC   O13 3129   6.388   2.001  10.930 -0.0128  0.2563 -0.3740
   24SAPC   O14 3130   6.489   1.791  11.039 -0.1820 -0.2284  0.2794
   24SAPC   O12 3131   6.258   1.792  10.958  0.1005 -0.0813 -0.2390
   24SAPC   O11 3132   6.441   1.799  10.798 -0.2150  0.0380  0.7205
   24SAPC    C1 3133   6.423   1.662  10.767  0.1129  0.2862 -0.5645
   24SAPC    HA 3134   6.461   1.596  10.847 -0.9602  1.4958  1.0259
   24SAPC    HB 3135   6.315   1.638  10.752 -0.0980  2.2431 -2.8539
   24SAPC    C2 3136   6.484   1.631  10.634 -0.1295 -0.3395 -0.7397
   24SAPC    HS 3137   6.595   1.630  10.640  0.0624 -5.0223 -1.2710
   24SAPC   O21 3138   6.435   1.716  10.533  0.2127 -0.6708  0.0740
   24SAPC   C21 3139   6.519   1.748  10.438 -0.4958  0.0670  0.0985
   24SAPC   O22 3140   6.640   1.725  10.427 -0.1346  0.4425  0.1354
   24SAPC   C22 3141   6.437   1.832  10.336 -0.9178  0.0481 -0.6457
   24SAPC   H2R 3142   6.334   1.791  10.332 -0.8454 -0.0624 -2.6889
   24SAPC   H2S 3143   6.429   1.936  10.374 -0.9285 -0.8950  2.1585
   24SAPC    C3 3144   6.444   1.490  10.590  0.4684 -0.0105  0.0339
   24SAPC    HX 3145   6.333   1.502  10.586  0.2267 -1.1747  1.7348
   24SAPC    HY 3146   6.481   1.422  10.670  1.6838  0.7332  0.1180
   24SAPC   O31 3147   6.492   1.450  10.463 -0.0666  0.2232  0.1193
   24SAPC   C31 3148   6.624   1.413  10.464  0.5862  0.4668 -0.0871
   24SAPC   O32 3149   6.696   1.422  10.565  0.4574  0.5648  0.6919
   24SAPC   C32 3150   6.668   1.387  10.319  0.0688  0.0515  0.6210
   24SAPC   H2X 3151   6.589   1.416  10.247  1.4051 -0.5729 -1.1767
   24SAPC   H2Y 3152   6.685   1.277  10.330  1.0483  0.3409  2.2781
   24SAPC   C23 3153   6.504   1.813  10.201  0.3058  0.3019  0.9852
   24SAPC   H3R 3154   6.526   1.705  10.187  1.9715  0.5914  1.1919
   24SAPC   H3S 3155   6.606   1.856  10.189 -0.0957  1.3683  1.2705
   24SAPC   C24 3156   6.427   1.865  10.080  0.8948 -0.3965  0.2075
   24SAPC   H4R 3157   6.412   1.974  10.097 -1.3016 -0.9624  2.4597
   24SAPC   H4S 3158   6.322   1.828  10.073  0.0722  1.8652 -0.5971
   24SAPC   C25 3159   6.495   1.823   9.948  0.2348 -0.0726  0.0344
   24SAPC   H5R 3160   6.602   1.795   9.953  0.6895  0.1543 -4.2618
   24SAPC   C26 3161   6.445   1.823   9.821 -0.2131  0.0180 -0.3381
   24SAPC   H6R 3162   6.521   1.801   9.745  1.2161 -1.9520  1.5565
   24SAPC   C27 3163   6.309   1.874   9.779  0.3780  0.0159  0.0803
   24SAPC   H7R 3164   6.267   1.946   9.852  0.0149  0.0720 -0.1839
   24SAPC   H7S 3165   6.237   1.791   9.796 -1.4911  1.5314 -0.0447
   24SAPC   C28 3166   6.274   1.918   9.634 -0.0544 -0.1072 -0.3193
   24SAPC   H8R 3167   6.261   2.027   9.620 -1.3253 -0.1196  0.6375
   24SAPC   C29 3168   6.260   1.830   9.534  0.3849 -0.8607 -0.3080
   24SAPC   H9R 3169   6.225   1.869   9.437 -0.8305  2.5577  1.3253
   24SAPC  C210 3170   6.281   1.683   9.540 -0.0173  0.3960 -0.3350
   24SAPC  H10R 3171   6.279   1.646   9.644  1.0837  1.9796  0.2952
   24SAPC  H10S 3172   6.381   1.655   9.499 -0.3156  2.6051 -2.8566
   24SAPC  C211 3173   6.173   1.614   9.473 -0.0101 -0.7617  1.0665
   24SAPC  H11R 3174   6.080   1.619   9.531  0.3300  0.7048  1.5301
   24SAPC  C212 3175   6.174   1.569   9.349 -0.2717  0.3472 -0.1149
   24SAPC  H12R 3176   6.081   1.522   9.313  0.5017 -0.7417 -0.7512
   24SAPC  C213 3177   6.298   1.564   9.264  0.0739  0.0503 -0.1816
   24SAPC  H13R 3178   6.355   1.482   9.314 -0.1656  1.5969  2.9114
   24SAPC  H13S 3179   6.360   1.655   9.282  0.1509  0.0204 -0.2920
   24SAPC  C214 3180   6.271   1.534   9.115 -1.0018  0.7008 -0.4560
   24SAPC  H14R 3181   6.237   1.434   9.085 -0.3426 -0.3749  2.1347
   24SAPC  C215 3182   6.291   1.614   9.003  0.2571 -0.7564  1.5343
   24SAPC  H15R 3183   6.249   1.582   8.906 -1.1362  1.5188  1.2924
   24SAPC  C216 3184   6.351   1.758   9.000 -0.1614  0.1618 -0.4061
   24SAPC  H16R 3185   6.424   1.784   8.919 -0.1405  1.6988  0.0798
   24SAPC  H16S 3186   6.413   1.773   9.091 -1.0078 -0.2965  0.2588
   24SAPC  C217 3187   6.240   1.865   9.016  0.1622 -1.0607  0.7602
   24SAPC  H17R 3188   6.176   1.834   9.102 -3.4048 -1.0376 -1.6496
   24SAPC  H17S 3189   6.166   1.859   8.933 -1.5761 -1.1254  2.2465
   24SAPC  C218 3190   6.285   2.004   9.056 -1.0449 -0.8639  0.6884
   24SAPC  H18R 3191   6.366   2.035   8.986 -0.8170 -1.7557  0.5447
   24SAPC  H18S 3192   6.339   2.009   9.153  0.5440  0.1945 -0.2081
   24SAPC  C219 3193   6.184   2.123   9.051  0.4722  0.2161  0.4118
   24SAPC  H19R 3194   6.125   2.114   8.957  0.7019 -0.5568  0.3335
   24SAPC  H19S 3195   6.240   2.219   9.045  0.2640  0.5173  2.5920
   24SAPC  C220 3196   6.081   2.134   9.167 -0.0037 -0.5660 -0.0611
   24SAPC  H20R 3197   6.008   2.215   9.145  0.9069  0.8387  1.8325
   24SAPC  H20S 3198   6.123   2.158   9.266 -0.2358  3.8307 -0.8246
   24SAPC  H20T 3199   6.023   2.040   9.182  1.5305 -1.3999  0.8554
   24SAPC   C33 3200   6.789   1.459  10.271 -0.3455 -0.0034  0.1517
   24SAPC   H3X 3201   6.868   1.439  10.346 -0.0277 -0.2722 -0.2483
   24SAPC   H3Y 3202   6.770   1.568  10.279  0.3108  0.1043  0.3298
   24SAPC   C34 3203   6.826   1.432  10.125  0.3147 -0.5055 -0.6898
   24SAPC   H4X 3204   6.808   1.322  10.124 -2.4773 -0.3062  3.8585
   24SAPC   H4Y 3205   6.936   1.446  10.113  0.2225  1.4269  0.4586
   24SAPC   C35 3206   6.741   1.498  10.010  0.1471  0.0341 -0.1612
   24SAPC   H5X 3207   6.753   1.608   9.998 -0.8159  0.1496 -0.1449
   24SAPC   H5Y 3208   6.639   1.490  10.054 -0.2764  0.1031 -1.1118
   24SAPC   C36 3209   6.740   1.433   9.880  0.8383  0.0434  0.9415
   24SAPC   H6X 3210   6.677   1.341   9.876 -0.4335  0.9321 -0.9138
   24SAPC   H6Y 3211   6.847   1.414   9.853  0.9043 -1.1234  1.9456
   24SAPC   C37 3212   6.680   1.530   9.774  0.2447  0.1714 -0.0489
   24SAPC   H7X 3213   6.720   1.633   9.783 -2.3627  1.2345  0.2879
   24SAPC   H7Y 3214   6.571   1.550   9.786  0.0303 -0.2312 -1.1756
   24SAPC   C38 3215   6.687   1.484   9.626  0.3478 -0.0795 -0.6812
   24SAPC   H8X 3216   6.602   1.415   9.609  1.5391 -1.1993 -2.3833
   24SAPC   H8Y 3217   6.776   1.418   9.615 -0.4044 -0.9158 -2.0185
   24SAPC   C39 3218   6.683   1.606   9.522 -0.1274 -0.3562  0.2311
   24SAPC   H9X 3219   6.776   1.666   9.533  0.0796 -0.8298  1.1300
   24SAPC   H9Y 3220   6.599   1.672   9.550  1.2163  1.8341 -0.6396
   24SAPC  C310 3221   6.687   1.550   9.378 -0.3123 -0.1300  0.0567
   24SAPC  H10X 3222   6.646   1.623   9.304 -3.7768 -0.4315  1.4847
   24SAPC  H10Y 3223   6.615   1.465   9.373 -1.1996  0.6751 -2.5537
   24SAPC  C311 3224   6.826   1.501   9.328 -0.0648  0.2199 -0.4834
   24SAPC  H11X 3225   6.876   1.428   9.395  0.5124 -0.3183 -1.4775
   24SAPC  H11Y 3226   6.886   1.594   9.313 -0.8097  0.5730 -1.3468
   24SAPC  C312 3227   6.814   1.436   9.193 -0.2975 -0.6930  0.2846
   24SAPC  H12X 3228   6.759   1.506   9.126 -0.1924  0.2755  1.1817
   24SAPC  H12Y 3229   6.764   1.337   9.195 -1.2792 -0.2193 -0.1581
   24SAPC  C313 3230   6.959   1.419   9.138  0.2654 -0.2217  0.5321
   24SAPC  H13X 3231   7.018   1.370   9.218  0.8759  0.2730  0.3962
   24SAPC  H13Y 3232   7.010   1.517   9.125  0.5414 -0.4423 -0.1019
   24SAPC  C314 3233   6.972   1.347   9.003  0.2507 -0.0700  0.6668
   24SAPC  H14X 3234   6.895   1.392   8.938 -2.1407 -0.2797  3.1584
   24SAPC  H14Y 3235   6.948   1.240   9.019 -0.7050  0.1905  1.0047
   24SAPC  C315 3236   7.113   1.367   8.943  0.4182  0.4503  0.0313
   24SAPC  H15X 3237   7.180   1.331   9.024 -2.1951 -0.2355  2.0459
   24SAPC  H15Y 3238   7.129   1.475   8.923 -0.2309  0.2871 -1.5271
   24SAPC  C316 3239   7.136   1.279   8.816  0.2226  0.0386  0.2808
   24SAPC  H16X 3240   7.099   1.176   8.839  0.5001 -0.5928 -1.8374
   24SAPC  H16Y 3241   7.245   1.276   8.798  0.2418 -1.8327  0.5121
   24SAPC  C317 3242   7.065   1.325   8.693 -0.3704  0.1869  0.3432
   24SAPC  H17X 3243   6.959   1.290   8.698 -0.2120 -0.8590 -2.1919
   24SAPC  H17Y 3244   7.102   1.266   8.607 -1.1204 -0.0691  0.1847
   24SAPC  C318 3245   7.080   1.465   8.638  0.4910  0.1918 -0.1803
   24SAPC  H18X 3246   7.188   1.485   8.621  0.5773 -1.1346 -1.3805
   24SAPC  H18Y 3247   7.027   1.539   8.702  0.4938 -0.3116  0.4094
   24SAPC  H18Z 3248   7.042   1.462   8.534  1.6155 -0.1793 -0.5959
   25SAPC     N 3249   3.712   3.130   5.893  0.5142 -0.3703  0.2002
   25SAPC   C12 3250   3.660   3.083   6.027  0.1640 -0.0129  0.3008
   25SAPC  H12A 3251   3.707   3.140   6.106 -1.5425  1.1328  0.5592
   25SAPC  H12B 3252   3.685   2.978   6.026  0.4528  0.0432  0.9916
   25SAPC   C13 3253   3.855   3.104   5.873 -0.4615 -0.7505  0.0991
   25SAPC  H13A 3254   3.888   3.128   5.773 -0.8370 -1.5550 -0.2246
   25SAPC  H13B 3255   3.916   3.169   5.934 -1.3068  1.5068 -1.3471
   25SAPC  H13C 3256   3.873   2.997   5.873  2.1048 -0.3990  0.4479
   25SAPC   C14 3257   3.644   3.050   5.781  0.6615 -0.1903 -0.0771
   25SAPC  H14A 3258   3.670   2.945   5.786 -1.3119 -0.7362 -0.2078
   25SAPC  H14B 3259   3.536   3.053   5.788  0.6116 -1.4067  0.0351
   25SAPC  H14C 3260   3.673   3.085   5.684 -0.5731  1.3010  0.0602
   25SAPC   C15 3261   3.673   3.275   5.876  0.9287  0.0081 -0.2397
   25SAPC  H15A 3262   3.565   3.286   5.878  1.0455  1.2711  0.4923
   25SAPC  H15B 3263   3.730   3.345   5.935  0.5112  0.2841 -0.1555
   25SAPC  H15C 3264   3.706   3.309   5.778 -2.0648  2.5745 -0.5298
   25SAPC   C11 3265   3.514   3.097   6.056  0.7369 -0.1192 -0.1472
   25SAPC  H11A 3266   3.491   3.205   6.062 -1.2127 -0.3922 -1.4868
   25SAPC  H11B 3267   3.503   3.038   6.150  1.3130 -3.3344 -1.9319
   25SAPC     P 3268   3.401   2.886   5.961  0.7563  0.1402 -0.3402
   25SAPC   O13 3269   3.333   2.850   5.837 -0.7308 -0.4311  0.1611
   25SAPC   O14 3270   3.532   2.821   5.977 -0.2680  0.6285  0.0908
   25SAPC   O12 3271   3.423   3.044   5.962  0.0917 -0.3083 -0.3209
   25SAPC   O11 3272   3.303   2.869   6.078  0.0863 -0.1904 -0.2109
   25SAPC    C1 3273   3.199   2.965   6.106 -0.0192  0.4649 -0.4395
   25SAPC    HA 3274   3.192   3.062   6.052 -1.9082  2.7754  3.4758
   25SAPC    HB 3275   3.103   2.913   6.085  1.4828 -2.0204 -1.5963
   25SAPC    C2 3276   3.194   2.989   6.264 -0.3660 -0.5535 -0.1412
   25SAPC    HS 3277   3.090   3.005   6.298 -0.0122  0.2295  0.6049
   25SAPC   O21 3278   3.276   3.102   6.294 -0.6244 -0.1777 -0.2989
   25SAPC   C21 3279   3.224   3.223   6.262 -0.3318  0.4253  0.7802
   25SAPC   O22 3280   3.123   3.238   6.191 -0.3192  0.2101 -0.5445
   25SAPC   C22 3281   3.308   3.337   6.304 -0.5994 -0.2872 -0.6906
   25SAPC   H2R 3282   3.350   3.291   6.396  0.0471  0.4862 -0.5921
   25SAPC   H2S 3283   3.387   3.358   6.228  1.2947  0.5011  1.4054
   25SAPC    C3 3284   3.248   2.872   6.356  0.2711 -0.0140 -0.6960
   25SAPC    HX 3285   3.349   2.842   6.319  0.9736 -0.2729  1.2951
   25SAPC    HY 3286   3.176   2.792   6.329  0.1179  0.8255 -2.9774
   25SAPC   O31 3287   3.243   2.914   6.498 -0.2358 -0.7462 -0.2313
   25SAPC   C31 3288   3.129   2.908   6.561 -0.1251 -0.0856 -0.2381
   25SAPC   O32 3289   3.024   2.863   6.516  0.2696  0.4001  0.2997
   25SAPC   C32 3290   3.151   2.960   6.707 -0.4170  0.3128 -0.0732
   25SAPC   H2X 3291   3.127   3.069   6.710  0.4315  0.4968  0.3697
   25SAPC   H2Y 3292   3.258   2.944   6.732 -0.2889  0.0652 -0.7453
   25SAPC   C23 3293   3.232   3.472   6.338  0.3711 -0.0451  0.4266
   25SAPC   H3R 3294   3.163   3.483   6.252  0.1661  0.6818  0.6741
   25SAPC   H3S 3295   3.305   3.556   6.336  0.8026 -0.4294  0.1294
   25SAPC   C24 3296   3.173   3.476   6.477  0.5083  0.5106 -0.2279
   25SAPC   H4R 3297   3.143   3.578   6.509 -0.9289 -0.2947  1.1594
   25SAPC   H4S 3298   3.230   3.431   6.561 -1.7718  0.7382  1.5485
   25SAPC   C25 3299   3.043   3.391   6.482 -1.2828  0.3308  0.3246
   25SAPC   H5R 3300   2.981   3.393   6.391  0.9673  2.1623 -1.2757
   25SAPC   C26 3301   2.991   3.335   6.588  0.1457  0.6726  0.0669
   25SAPC   H6R 3302   2.896   3.282   6.572 -0.3166  1.3402  0.5245
   25SAPC   C27 3303   3.050   3.338   6.728  0.6667 -0.1516 -0.3853
   25SAPC   H7R 3304   3.109   3.431   6.740  1.0359 -0.6292  2.1177
   25SAPC   H7S 3305   3.128   3.259   6.739  0.3800 -0.7286 -2.1435
   25SAPC   C28 3306   2.935   3.327   6.835 -0.2404 -0.5520  0.9318
   25SAPC   H8R 3307   2.859   3.250   6.817 -0.1416 -0.9645  2.2036
   25SAPC   C29 3308   2.918   3.407   6.946 -0.8864  0.7307  0.1376
   25SAPC   H9R 3309   2.828   3.385   7.006 -3.2513  2.8486 -2.2935
   25SAPC  C210 3310   3.013   3.520   6.985  0.5151 -0.1906 -0.9567
   25SAPC  H10R 3311   2.959   3.597   7.044 -1.2468 -1.3040 -1.0652
   25SAPC  H10S 3312   3.058   3.568   6.894  0.1392  0.8272 -0.6217
   25SAPC  C211 3313   3.124   3.453   7.053 -1.6332 -0.8184 -0.7354
   25SAPC  H11R 3314   3.180   3.379   6.994 -1.0785  0.5052 -1.9178
   25SAPC  C212 3315   3.174   3.493   7.174 -0.5253 -0.9208 -0.4622
   25SAPC  H12R 3316   3.263   3.448   7.221 -1.6058 -1.0697  1.5965
   25SAPC  C213 3317   3.106   3.602   7.261 -0.6045  0.2337  0.5005
   25SAPC  H13R 3318   3.083   3.683   7.188 -0.6788 -1.0190 -0.9174
   25SAPC  H13S 3319   3.181   3.645   7.331 -0.0355 -0.4257  0.3070
   25SAPC  C214 3320   2.982   3.555   7.341  0.5356 -0.2936 -0.1588
   25SAPC  H14R 3321   2.911   3.492   7.285  1.2921  0.1248 -1.6552
   25SAPC  C215 3322   2.949   3.582   7.466  0.5755 -0.3482 -0.1520
   25SAPC  H15R 3323   2.853   3.540   7.501 -0.9631  3.0950  0.2037
   25SAPC  C216 3324   3.021   3.661   7.569 -0.0817 -0.2570 -0.0840
   25SAPC  H16R 3325   2.951   3.729   7.621  1.9224  1.5340  0.3920
   25SAPC  H16S 3326   3.104   3.717   7.521  0.3023 -1.7633 -1.2505
   25SAPC  C217 3327   3.084   3.567   7.677  0.6510 -0.1992  0.2702
   25SAPC  H17R 3328   3.133   3.635   7.750 -0.1414  0.5330  0.1357
   25SAPC  H17S 3329   3.147   3.489   7.630 -2.1752 -2.0110 -0.7534
   25SAPC  C218 3330   2.981   3.494   7.757  0.2397  0.7511  0.3526
   25SAPC  H18R 3331   2.951   3.399   7.707  2.2683 -0.8136  1.9267
   25SAPC  H18S 3332   2.885   3.549   7.755  0.5714  1.3530  0.8637
   25SAPC  C219 3333   3.027   3.476   7.903  0.6630 -0.5310 -0.7521
   25SAPC  H19R 3334   3.023   3.574   7.954  0.4286 -2.2440  2.7583
   25SAPC  H19S 3335   3.134   3.447   7.903  1.3896  1.8814 -0.3647
   25SAPC  C220 3336   2.950   3.378   7.987  0.2544 -0.1434 -0.3961
   25SAPC  H20R 3337   2.898   3.303   7.924  0.8460 -2.3146  1.5434
   25SAPC  H20S 3338   2.883   3.439   8.052 -1.7511 -0.5099 -2.0233
   25SAPC  H20T 3339   3.021   3.324   8.054  0.9980  0.1786 -0.9241
   25SAPC   C33 3340   3.048   2.890   6.801  0.0644  0.0379 -0.2989
   25SAPC   H3X 3341   3.067   2.781   6.808 -2.6484 -0.4730  0.3549
   25SAPC   H3Y 3342   2.947   2.900   6.755  0.3886  0.5805 -0.9047
   25SAPC   C34 3343   3.052   2.958   6.944 -0.1805  0.2268  0.2220
   25SAPC   H4X 3344   3.018   3.062   6.924  0.3321  0.2375 -0.6227
   25SAPC   H4Y 3345   3.160   2.967   6.969 -0.4694  1.9273  1.0016
   25SAPC   C35 3346   2.981   2.881   7.055 -0.6300  0.2297 -0.3483
   25SAPC   H5X 3347   3.004   2.772   7.057 -0.6685  0.1802 -1.7041
   25SAPC   H5Y 3348   2.872   2.880   7.032 -0.6395  2.0165 -0.5108
   25SAPC   C36 3349   3.027   2.931   7.196 -0.0473 -1.0474  0.3479
   25SAPC   H6X 3350   3.014   3.042   7.200 -0.6588 -1.1465  1.7632
   25SAPC   H6Y 3351   3.137   2.928   7.208  0.0653 -2.2012 -0.8162
   25SAPC   C37 3352   2.957   2.863   7.318  0.2290 -0.7738 -0.4297
   25SAPC   H7X 3353   2.993   2.758   7.319 -1.5810 -1.4296  0.2312
   25SAPC   H7Y 3354   2.846   2.870   7.316  0.1893  0.3786  2.0061
   25SAPC   C38 3355   3.008   2.928   7.451 -0.7249  0.3487  0.1590
   25SAPC   H8X 3356   2.999   3.039   7.456 -2.5626  0.2051  1.3542
   25SAPC   H8Y 3357   3.117   2.909   7.448 -0.9696 -1.2708  0.5577
   25SAPC   C39 3358   2.943   2.876   7.579  0.0463 -0.0080 -0.1571
   25SAPC   H9X 3359   3.011   2.859   7.665 -1.6107 -2.1026  0.8364
   25SAPC   H9Y 3360   2.918   2.768   7.570 -2.4756  0.2453  2.4416
   25SAPC  C310 3361   2.818   2.955   7.617 -0.0942  0.3860 -0.2160
   25SAPC  H10X 3362   2.742   2.963   7.536 -0.7507  0.4940  0.3957
   25SAPC  H10Y 3363   2.838   3.058   7.654 -1.4406 -0.1508  2.2302
   25SAPC  C311 3364   2.741   2.879   7.724  0.5058  0.1861 -0.1196
   25SAPC  H11X 3365   2.718   2.778   7.685  0.1788  0.3675 -0.4056
   25SAPC  H11Y 3366   2.642   2.928   7.734 -0.1552 -0.6048 -2.1997
   25SAPC  C312 3367   2.813   2.856   7.861  0.2270 -0.3755  0.3299
   25SAPC  H12X 3368   2.911   2.806   7.853  0.9644  1.0741 -0.0825
   25SAPC  H12Y 3369   2.751   2.783   7.917  0.4673  1.0636  2.5777
   25SAPC  C313 3370   2.832   2.983   7.950 -0.0346  0.1213 -0.3348
   25SAPC  H13X 3371   2.731   3.020   7.981  0.2510  0.9760 -0.3922
   25SAPC  H13Y 3372   2.890   3.064   7.902 -1.2350  1.6270  0.6290
   25SAPC  C314 3373   2.907   2.952   8.077 -0.4472 -0.6314 -0.5994
   25SAPC  H14X 3374   3.012   2.914   8.071 -0.5420 -1.4157  1.7333
   25SAPC  H14Y 3375   2.850   2.871   8.127 -2.0580 -1.0292 -2.9448
   25SAPC  C315 3376   2.918   3.065   8.182  0.3239  0.1816 -0.1979
   25SAPC  H15X 3377   2.855   3.151   8.151 -1.2761 -1.1402 -0.7960
   25SAPC  H15Y 3378   3.023   3.094   8.200  1.1041 -2.5049 -0.0785
   25SAPC  C316 3379   2.861   3.032   8.323  0.0320 -0.1689  0.5678
   25SAPC  H16X 3380   2.923   2.947   8.360  1.2933  0.5354  0.1526
   25SAPC  H16Y 3381   2.757   2.999   8.304 -0.5526  1.6457  0.5087
   25SAPC  C317 3382   2.865   3.139   8.424 -0.8411  0.5304 -0.4947
   25SAPC  H17X 3383   2.849   3.095   8.525  0.8377 -0.7736 -0.7639
   25SAPC  H17Y 3384   2.778   3.207   8.411  0.8988  2.8150 -0.7437
   25SAPC  C318 3385   3.001   3.218   8.434  0.0538 -0.1634 -0.2953
   25SAPC  H18X 3386   3.008   3.294   8.514  2.2688 -0.0783 -0.4965
   25SAPC  H18Y 3387   3.027   3.274   8.342  0.1210 -0.3357 -0.3821
   25SAPC  H18Z 3388   3.086   3.152   8.465 -1.5502 -1.3245  1.9197
   26SAPC     N 3389   1.803   4.275   6.010  0.1534  0.2583 -0.1487
   26SAPC   C12 3390   1.741   4.252   6.145  0.0151 -0.5212 -0.4270
   26SAPC  H12A 3391   1.815   4.184   6.186 -0.0201  0.9240  2.3215
   26SAPC  H12B 3392   1.644   4.208   6.130  0.0502 -0.9557  0.5355
   26SAPC   C13 3393   1.953   4.279   6.024 -0.3641  0.1206 -0.1016
   26SAPC  H13A 3394   1.990   4.199   6.087  1.2268  1.9829  1.4347
   26SAPC  H13B 3395   2.006   4.281   5.930  1.5038  1.7802  0.9000
   26SAPC  H13C 3396   1.977   4.372   6.074 -1.0697 -0.8465  2.1660
   26SAPC   C14 3397   1.762   4.162   5.926 -0.7696 -0.1101  0.1042
   26SAPC  H14A 3398   1.799   4.169   5.824  3.8290 -0.3303  1.5302
   26SAPC  H14B 3399   1.815   4.074   5.959 -0.7663 -1.3513 -2.8344
   26SAPC  H14C 3400   1.655   4.149   5.923 -0.5984 -1.7161  0.1508
   26SAPC   C15 3401   1.756   4.410   5.951  0.0187  0.2460 -0.3032
   26SAPC  H15A 3402   1.650   4.404   5.930 -0.0641 -0.2993  0.2496
   26SAPC  H15B 3403   1.778   4.477   6.033 -2.6267  1.8706 -0.7911
   26SAPC  H15C 3404   1.808   4.435   5.859  1.2115 -0.0259  0.2818
   26SAPC   C11 3405   1.738   4.369   6.250  0.3065  0.0331  0.1299
   26SAPC  H11A 3406   1.841   4.411   6.239  1.1294 -2.0987 -0.9309
   26SAPC  H11B 3407   1.724   4.327   6.352  0.7932  1.3506  0.7570
   26SAPC     P 3408   1.679   4.619   6.237  0.2806  0.3241 -0.1021
   26SAPC   O13 3409   1.786   4.650   6.134  0.4916  0.1666 -0.1772
   26SAPC   O14 3410   1.552   4.701   6.240 -0.5934 -0.0977  0.0048
   26SAPC   O12 3411   1.641   4.468   6.220  0.7505  0.2565  0.4179
   26SAPC   O11 3412   1.743   4.626   6.387 -0.0186 -0.2152  0.6939
   26SAPC    C1 3413   1.672   4.609   6.502  0.3305  0.3872 -0.7968
   26SAPC    HA 3414   1.599   4.527   6.515  0.4151  0.5690  1.2224
   26SAPC    HB 3415   1.753   4.583   6.574  0.9607  4.2421  0.1102
   26SAPC    C2 3416   1.602   4.736   6.557  0.0062 -0.5930 -0.4336
   26SAPC    HS 3417   1.544   4.780   6.473  2.3241  2.0177 -0.8160
   26SAPC   O21 3418   1.699   4.833   6.595  0.6873  0.2445 -0.0658
   26SAPC   C21 3419   1.749   4.911   6.502  0.2102 -0.0517 -0.0724
   26SAPC   O22 3420   1.708   4.924   6.390  0.0123 -0.1288  0.2051
   26SAPC   C22 3421   1.868   4.988   6.559  0.0384 -0.6701 -0.4737
   26SAPC   H2R 3422   1.914   4.929   6.641 -0.7273  0.0145  0.4787
   26SAPC   H2S 3423   1.944   5.008   6.481 -0.4589  1.9126 -0.3795
   26SAPC    C3 3424   1.504   4.718   6.677  0.1253  0.0534  0.0632
   26SAPC    HX 3425   1.409   4.674   6.639  0.7221 -0.5919 -0.7123
   26SAPC    HY 3426   1.464   4.817   6.706 -2.3441 -0.2995 -1.7786
   26SAPC   O31 3427   1.559   4.641   6.783 -0.7220  0.3212  0.1730
   26SAPC   C31 3428   1.606   4.710   6.887 -0.1469 -0.1792 -0.7637
   26SAPC   O32 3429   1.568   4.825   6.915 -0.6571 -0.1934  0.4940
   26SAPC   C32 3430   1.718   4.640   6.952  0.7413 -0.1217 -0.7875
   26SAPC   H2X 3431   1.799   4.715   6.961  2.1208 -1.6497  0.1556
   26SAPC   H2Y 3432   1.756   4.561   6.884  0.7905 -2.4867  1.7762
   26SAPC   C23 3433   1.825   5.126   6.621 -0.4353  0.2725  0.1714
   26SAPC   H3R 3434   1.773   5.186   6.543  1.2507  0.3366 -0.9586
   26SAPC   H3S 3435   1.916   5.187   6.636  1.0739 -1.1970 -2.4109
   26SAPC   C24 3436   1.736   5.110   6.742  0.3098 -0.5509 -0.5453
   26SAPC   H4R 3437   1.786   5.033   6.805  0.5274 -0.6170 -0.7958
   26SAPC   H4S 3438   1.641   5.067   6.704 -1.2676  1.0537  1.3977
   26SAPC   C25 3439   1.693   5.247   6.798 -0.0081  1.0349 -0.2670
   26SAPC   H5R 3440   1.633   5.313   6.733 -2.6535  1.2242  2.1592
   26SAPC   C26 3441   1.724   5.279   6.927 -0.0425  0.0901  0.4288
   26SAPC   H6R 3442   1.700   5.381   6.960 -0.0074  0.7184 -1.3399
   26SAPC   C27 3443   1.799   5.194   7.032  0.5433 -0.0718  0.0880
   26SAPC   H7R 3444   1.851   5.267   7.098  0.3482 -0.1036  0.2750
   26SAPC   H7S 3445   1.880   5.149   6.970  3.1554  0.2722  2.9897
   26SAPC   C28 3446   1.711   5.087   7.109 -0.3989 -0.2214  0.9532
   26SAPC   H8R 3447   1.641   5.025   7.051  0.0151 -0.8269  1.1009
   26SAPC   C29 3448   1.721   5.058   7.239 -0.6049  0.2086  0.2115
   26SAPC   H9R 3449   1.657   4.981   7.283 -1.0702  0.3571 -0.1892
   26SAPC  C210 3450   1.817   5.123   7.339  0.1355 -0.1437  0.1919
   26SAPC  H10R 3451   1.909   5.145   7.281 -1.0195  2.4815 -0.8166
   26SAPC  H10S 3452   1.834   5.051   7.422  0.1177  1.1778  1.3885
   26SAPC  C211 3453   1.791   5.264   7.395 -0.2036 -0.0621  0.1525
   26SAPC  H11R 3454   1.756   5.339   7.323  0.8445  1.6750  1.3434
   26SAPC  C212 3455   1.796   5.297   7.526  0.3559  0.2622  0.0855
   26SAPC  H12R 3456   1.758   5.397   7.552 -0.8025  0.0318 -0.6425
   26SAPC  C213 3457   1.823   5.204   7.636 -0.0638 -0.0614  0.0636
   26SAPC  H13R 3458   1.903   5.132   7.608  2.4237  1.9827  1.5386
   26SAPC  H13S 3459   1.730   5.144   7.649  0.0654 -0.5258 -0.9782
   26SAPC  C214 3460   1.857   5.267   7.778  0.9722 -0.1403  0.4574
   26SAPC  H14R 3461   1.935   5.344   7.775  1.1544 -0.3273  0.3516
   26SAPC  C215 3462   1.795   5.243   7.900 -0.6346 -0.4740  0.2286
   26SAPC  H15R 3463   1.827   5.290   7.994 -0.1369  0.2229 -0.2806
   26SAPC  C216 3464   1.678   5.152   7.921 -0.5365  0.1487  0.7030
   26SAPC  H16R 3465   1.647   5.099   7.828  0.5971 -0.1588  0.4907
   26SAPC  H16S 3466   1.586   5.206   7.954 -0.6545 -0.6711  1.7547
   26SAPC  C217 3467   1.697   5.044   8.029  0.1362  0.9533 -0.6748
   26SAPC  H17R 3468   1.695   5.096   8.127 -1.1833 -1.3686  0.6333
   26SAPC  H17S 3469   1.792   4.988   8.022  1.4494  2.9237  0.4305
   26SAPC  C218 3470   1.580   4.952   8.038 -0.3949 -0.0520 -0.1037
   26SAPC  H18R 3471   1.571   4.891   7.946 -1.2110  0.8979 -0.6640
   26SAPC  H18S 3472   1.488   5.014   8.040 -0.8567 -0.7299  1.9306
   26SAPC  C219 3473   1.578   4.856   8.157  0.4208 -0.2810 -0.1861
   26SAPC  H19R 3474   1.588   4.913   8.251 -1.1468 -1.3025  0.6406
   26SAPC  H19S 3475   1.665   4.786   8.153  0.1610 -0.6221  0.1130
   26SAPC  C220 3476   1.454   4.771   8.171 -0.2779  0.5167 -0.4972
   26SAPC  H20R 3477   1.449   4.696   8.089  3.0545 -0.1349 -0.2594
   26SAPC  H20S 3478   1.362   4.834   8.174 -0.1935  0.9212 -3.3150
   26SAPC  H20T 3479   1.454   4.709   8.263 -0.4692 -1.0359 -1.5137
   26SAPC   C33 3480   1.672   4.584   7.088  0.1659  0.4246  0.0748
   26SAPC   H3X 3481   1.766   4.545   7.132  1.1590  0.4651 -1.9116
   26SAPC   H3Y 3482   1.587   4.513   7.094 -0.8297  1.6510  3.9038
   26SAPC   C34 3483   1.644   4.695   7.194 -0.3165  0.4938  0.1993
   26SAPC   H4X 3484   1.547   4.746   7.178 -0.4127  0.7368  1.4308
   26SAPC   H4Y 3485   1.715   4.780   7.186 -0.7218  1.0324  1.8530
   26SAPC   C35 3486   1.641   4.626   7.339  0.4864  0.7169  0.2350
   26SAPC   H5X 3487   1.726   4.554   7.341  0.6949  0.9613  2.6324
   26SAPC   H5Y 3488   1.546   4.569   7.350  1.4028 -0.6403  1.5038
   26SAPC   C36 3489   1.648   4.731   7.448  0.1376 -0.0233 -0.2676
   26SAPC   H6X 3490   1.730   4.801   7.421  2.1979 -1.7832  1.0742
   26SAPC   H6Y 3491   1.676   4.681   7.543  0.0646  1.2110  0.4190
   26SAPC   C37 3492   1.523   4.806   7.486 -0.4424 -0.2207  0.1042
   26SAPC   H7X 3493   1.450   4.721   7.493 -2.1820  1.1896 -0.1502
   26SAPC   H7Y 3494   1.494   4.874   7.403  0.7495  0.4995  0.2607
   26SAPC   C38 3495   1.525   4.879   7.621 -0.3723 -0.0540 -0.3999
   26SAPC   H8X 3496   1.596   4.963   7.616  1.1065 -1.1825  0.7143
   26SAPC   H8Y 3497   1.560   4.809   7.700  1.4319  0.2364 -0.9071
   26SAPC   C39 3498   1.385   4.934   7.669  0.1359 -0.0782  0.1607
   26SAPC   H9X 3499   1.338   4.979   7.579 -2.7326 -1.5612  0.8011
   26SAPC   H9Y 3500   1.396   5.016   7.743 -0.3877 -0.0521  0.2121
   26SAPC  C310 3501   1.298   4.825   7.729 -0.3693  0.4253 -0.6930
   26SAPC  H10X 3502   1.335   4.793   7.829  1.0161 -0.1232 -1.3551
   26SAPC  H10Y 3503   1.296   4.737   7.661  0.0991  0.8219 -1.2261
   26SAPC  C311 3504   1.156   4.866   7.743  0.6390 -0.0954  0.7808
   26SAPC  H11X 3505   1.099   4.781   7.786  1.2757 -0.0434  1.7458
   26SAPC  H11Y 3506   1.106   4.890   7.646  0.4004  0.4079  1.0245
   26SAPC  C312 3507   1.124   4.981   7.839 -0.1286  0.5096  0.3754
   26SAPC  H12X 3508   1.013   4.985   7.841 -0.2372 -1.2530  0.0781
   26SAPC  H12Y 3509   1.160   5.072   7.787 -1.0998  0.6102 -0.1437
   26SAPC  C313 3510   1.184   4.973   7.981 -0.3532 -0.9853 -0.7992
   26SAPC  H13X 3511   1.293   4.963   7.962 -0.2467 -3.6292  0.5873
   26SAPC  H13Y 3512   1.165   4.876   8.033 -0.8467 -0.3561  0.2166
   26SAPC  C314 3513   1.158   5.102   8.062 -0.9518 -0.0797  0.4500
   26SAPC  H14X 3514   1.141   5.189   7.995  0.8007 -0.2749 -0.3145
   26SAPC  H14Y 3515   1.246   5.129   8.125 -1.8752 -1.2883  2.3558
   26SAPC  C315 3516   1.047   5.084   8.166  0.0728  0.4586  0.7525
   26SAPC  H15X 3517   1.074   4.991   8.222 -1.1202 -0.7775 -0.6446
   26SAPC  H15Y 3518   0.958   5.075   8.101  1.8658 -0.7570 -1.6971
   26SAPC  C316 3519   1.036   5.211   8.255 -0.3089 -0.1370  0.9519
   26SAPC  H16X 3520   1.025   5.298   8.186 -2.4533  0.4717  1.9656
   26SAPC  H16Y 3521   1.132   5.217   8.309 -1.4405 -0.5569  3.1114
   26SAPC  C317 3522   0.926   5.215   8.356 -0.8822 -0.4398  0.0703
   26SAPC  H17X 3523   0.947   5.142   8.437  1.1489 -0.5628 -0.5250
   26SAPC  H17Y 3524   0.835   5.188   8.297  0.2792  2.2033 -3.2779
   26SAPC  C318 3525   0.900   5.357   8.410 -0.4151  0.7600  0.1312
   26SAPC  H18X 3526   0.802   5.347   8.462 -0.9309  1.6072 -0.6606
   26SAPC  H18Y 3527   0.891   5.420   8.319  0.6726 -0.4039 -0.8240
   26SAPC  H18Z 3528   0.980   5.397   8.475  0.2737 -1.6670  0.8813
   27SAPC     N 3529   1.023   4.543   6.010 -0.2434 -0.4248 -0.3170
   27SAPC   C12 3530   0.995   4.633   6.126  0.2872  0.6086 -0.1834
   27SAPC  H12A 3531   1.006   4.738   6.106  1.1333  0.5020 -0.3251
   27SAPC  H12B 3532   1.061   4.613   6.209  1.4565  2.2366 -0.6627
   27SAPC   C13 3533   1.031   4.396   6.055 -0.1441 -0.2811 -0.2188
   27SAPC  H13A 3534   0.931   4.361   6.077 -0.4736  0.7400 -0.0053
   27SAPC  H13B 3535   1.061   4.335   5.972 -2.3292 -0.2942 -1.0695
   27SAPC  H13C 3536   1.099   4.405   6.138 -0.1887  1.5780 -0.3264
   27SAPC   C14 3537   0.918   4.551   5.902 -0.8578  0.8086  0.4877
   27SAPC  H14A 3538   0.824   4.515   5.942  0.9492 -1.4786  3.0573
   27SAPC  H14B 3539   0.913   4.654   5.869  0.2058  0.9495  0.7279
   27SAPC  H14C 3540   0.938   4.477   5.826  3.1894  2.1312 -0.0014
   27SAPC   C15 3541   1.159   4.577   5.963  0.2353 -0.3787 -0.4877
   27SAPC  H15A 3542   1.166   4.680   5.931 -1.5596 -0.0194  0.1651
   27SAPC  H15B 3543   1.241   4.554   6.030 -1.0333 -2.6479  0.3909
   27SAPC  H15C 3544   1.185   4.523   5.873 -0.5434 -1.3180 -0.1631
   27SAPC   C11 3545   0.848   4.634   6.176 -0.0048  0.2551 -0.4022
   27SAPC  H11A 3546   0.794   4.672   6.087 -0.8172  1.6876  0.6745
   27SAPC  H11B 3547   0.843   4.713   6.254 -0.4943  0.7073 -0.8798
   27SAPC     P 3548   0.667   4.465   6.283  0.0707 -0.0570  0.2567
   27SAPC   O13 3549   0.558   4.539   6.221 -0.0633  0.2886  0.1653
   27SAPC   O14 3550   0.656   4.320   6.288 -0.1319  0.2005  0.2938
   27SAPC   O12 3551   0.804   4.499   6.212 -0.3352 -1.0321  0.5964
   27SAPC   O11 3552   0.677   4.531   6.428 -0.0926 -0.0847 -0.2968
   27SAPC    C1 3553   0.713   4.457   6.544 -0.2502 -0.0334  0.0295
   27SAPC    HA 3554   0.640   4.376   6.567  0.4225 -1.1193 -1.4750
   27SAPC    HB 3555   0.806   4.400   6.526 -0.8799 -0.4140 -2.4184
   27SAPC    C2 3556   0.745   4.549   6.664 -0.3678  0.0398  0.2207
   27SAPC    HS 3557   0.817   4.489   6.724  0.9827  2.5655  1.2599
   27SAPC   O21 3558   0.618   4.586   6.725  0.6756  1.0106  0.3960
   27SAPC   C21 3559   0.574   4.505   6.815  0.4778  0.3815 -0.1746
   27SAPC   O22 3560   0.633   4.409   6.861  0.4941  0.2930  0.1276
   27SAPC   C22 3561   0.442   4.565   6.855  0.4705  0.1410 -0.1590
   27SAPC   H2R 3562   0.463   4.673   6.873  1.0322  0.0620 -0.3159
   27SAPC   H2S 3563   0.371   4.546   6.773  1.3373 -3.4294 -0.2211
   27SAPC    C3 3564   0.818   4.676   6.621  0.7715 -0.4778 -0.1467
   27SAPC    HX 3565   0.749   4.743   6.565 -1.5499 -1.9806  0.7576
   27SAPC    HY 3566   0.890   4.636   6.546  0.6303 -1.3880  0.1811
   27SAPC   O31 3567   0.867   4.739   6.737  0.1658 -0.3073 -0.2509
   27SAPC   C31 3568   0.996   4.762   6.754  0.6225  0.0534 -0.0336
   27SAPC   O32 3569   1.083   4.736   6.669  0.3297 -0.1773  0.0025
   27SAPC   C32 3570   1.030   4.819   6.887  0.3742  0.0617 -0.6184
   27SAPC   H2X 3571   0.990   4.754   6.968 -0.2652  1.1220 -0.0549
   27SAPC   H2Y 3572   0.977   4.917   6.895 -1.5982 -0.9984  0.0470
   27SAPC   C23 3573   0.383   4.488   6.980  1.0577  0.0195 -0.3446
   27SAPC   H3R 3574   0.444   4.512   7.069  1.1256  2.8063 -1.0517
   27SAPC   H3S 3575   0.385   4.380   6.955  2.7284 -0.1420  0.3285
   27SAPC   C24 3576   0.240   4.533   7.014 -0.1473  1.3462 -0.2756
   27SAPC   H4R 3577   0.175   4.525   6.925 -2.2704 -1.5072  1.3786
   27SAPC   H4S 3578   0.252   4.640   7.044 -0.6540  1.3165  0.0444
   27SAPC   C25 3579   0.191   4.439   7.121  0.4601  0.0604  0.1792
   27SAPC   H5R 3580   0.156   4.342   7.082  0.3501 -0.3205  1.2056
   27SAPC   C26 3581   0.182   4.463   7.254  0.1232 -0.5079  0.1379
   27SAPC   H6R 3582   0.150   4.389   7.330 -0.2480 -1.1357 -0.6136
   27SAPC   C27 3583   0.221   4.594   7.324  0.2994  1.2677  0.0311
   27SAPC   H7R 3584   0.135   4.629   7.385  0.4072  1.7825 -0.1114
   27SAPC   H7S 3585   0.250   4.678   7.257 -1.5976  2.3371  0.4814
   27SAPC   C28 3586   0.331   4.584   7.431  0.0324 -0.2494  0.2784
   27SAPC   H8R 3587   0.419   4.547   7.376 -1.7407 -2.6613 -1.1350
   27SAPC   C29 3588   0.328   4.607   7.559  0.0389  0.2330  0.2876
   27SAPC   H9R 3589   0.426   4.585   7.603  2.1838  1.5143 -3.3921
   27SAPC  C210 3590   0.209   4.650   7.634 -0.4443  0.5864 -0.1383
   27SAPC  H10R 3591   0.156   4.727   7.574 -0.3776  2.1622  1.7200
   27SAPC  H10S 3592   0.234   4.698   7.731 -0.7816  0.3260  0.0786
   27SAPC  C211 3593   0.101   4.544   7.672 -0.0047 -0.0359 -0.0650
   27SAPC  H11R 3594   0.002   4.554   7.623  0.0619  0.0541 -0.1836
   27SAPC  C212 3595   0.113   4.445   7.766  0.5366  1.3559  0.1288
   27SAPC  H12R 3596   0.027   4.380   7.785  0.1335  2.0490  0.7256
   27SAPC  C213 3597   0.235   4.405   7.846 -0.1478  0.3966  0.0077
   27SAPC  H13R 3598   0.319   4.441   7.783  0.1836 -0.1519  0.1381
   27SAPC  H13S 3599   0.242   4.295   7.852  0.7770  0.5226  2.4768
   27SAPC  C214 3600   0.244   4.483   7.973  1.2763  0.0481  0.3791
   27SAPC  H14R 3601   0.217   4.589   7.965 -3.3723 -1.0843 -2.3205
   27SAPC  C215 3602   0.285   4.434   8.091 -0.0686  0.0140  0.3795
   27SAPC  H15R 3603   0.267   4.495   8.181  1.1174 -0.4976  0.9921
   27SAPC  C216 3604   0.328   4.293   8.121 -0.1760  0.1734 -0.2186
   27SAPC  H16R 3605   0.298   4.231   8.034 -2.7183  1.3785 -0.2739
   27SAPC  H16S 3606   0.271   4.255   8.209  1.0888 -0.9653  0.1418
   27SAPC  C217 3607   0.476   4.302   8.156 -1.3311 -0.0820 -0.9640
   27SAPC  H17R 3608   0.528   4.363   8.079 -1.7847  1.1914 -0.2843
   27SAPC  H17S 3609   0.518   4.199   8.160 -0.3791  0.3224  1.9138
   27SAPC  C218 3610   0.501   4.366   8.301 -0.3774 -0.3110  0.1461
   27SAPC  H18R 3611   0.449   4.305   8.378 -1.4927 -1.0257 -1.1235
   27SAPC  H18S 3612   0.452   4.464   8.288 -0.1238 -0.5471 -4.0909
   27SAPC  C219 3613   0.655   4.375   8.316 -0.0155 -0.1451  0.1142
   27SAPC  H19R 3614   0.684   4.451   8.240  1.9122  0.5291  1.4603
   27SAPC  H19S 3615   0.718   4.288   8.290  0.5742  0.1217  0.6277
   27SAPC  C220 3616   0.694   4.421   8.452 -0.4048 -0.7477  0.0941
   27SAPC  H20R 3617   0.664   4.525   8.481 -0.6678 -0.0423 -2.5200
   27SAPC  H20S 3618   0.801   4.399   8.471 -0.4878  0.1590  1.9612
   27SAPC  H20T 3619   0.640   4.355   8.524  0.7697 -0.3287  1.4210
   27SAPC   C33 3620   1.186   4.844   6.912  0.6604 -0.0412  1.2110
   27SAPC   H3X 3621   1.214   4.932   6.850 -1.9099 -0.0581 -0.1018
   27SAPC   H3Y 3622   1.252   4.764   6.871  0.3492  1.3873 -2.4688
   27SAPC   C34 3623   1.231   4.855   7.050 -0.3831  0.7601  0.5317
   27SAPC   H4X 3624   1.336   4.892   7.056  0.8405 -1.9654 -1.6703
   27SAPC   H4Y 3625   1.221   4.755   7.096 -3.1482  0.2497 -0.9542
   27SAPC   C35 3626   1.149   4.949   7.136  0.2971  0.0447  0.0631
   27SAPC   H5X 3627   1.060   4.891   7.165  0.3079 -0.8486 -1.5704
   27SAPC   H5Y 3628   1.115   5.031   7.068  1.5895  0.0265 -0.6349
   27SAPC   C36 3629   1.229   4.991   7.269  0.6925  0.6174 -0.3784
   27SAPC   H6X 3630   1.336   5.022   7.258  0.4168  1.4402 -0.8082
   27SAPC   H6Y 3631   1.214   4.908   7.342 -0.1627  0.4092 -0.7828
   27SAPC   C37 3632   1.166   5.109   7.330 -0.2994 -1.0571 -0.0596
   27SAPC   H7X 3633   1.058   5.094   7.351 -0.3537  0.3693  0.8311
   27SAPC   H7Y 3634   1.182   5.193   7.259 -0.1335 -0.9122  0.1471
   27SAPC   C38 3635   1.232   5.164   7.458  0.1966 -0.0570  0.5419
   27SAPC   H8X 3636   1.342   5.169   7.446 -0.0752  0.1970 -2.6392
   27SAPC   H8Y 3637   1.201   5.099   7.542  1.6090  0.6939  1.6900
   27SAPC   C39 3638   1.191   5.310   7.491 -0.1640  0.3191 -0.1985
   27SAPC   H9X 3639   1.221   5.382   7.412  0.0772  0.2092 -0.2094
   27SAPC   H9Y 3640   1.243   5.328   7.587 -1.8180 -1.1684  1.0475
   27SAPC  C310 3641   1.039   5.338   7.510 -0.4078 -0.1351 -0.2026
   27SAPC  H10X 3642   0.983   5.331   7.415 -2.5145 -0.4340  1.0133
   27SAPC  H10Y 3643   1.028   5.441   7.549 -0.4234 -0.6112  1.1033
   27SAPC  C311 3644   0.974   5.246   7.613  0.0713 -0.0042  0.4240
   27SAPC  H11X 3645   1.037   5.257   7.704  0.2078  0.2194  0.3045
   27SAPC  H11Y 3646   0.965   5.143   7.572 -3.0667  0.2952  0.1228
   27SAPC  C312 3647   0.831   5.291   7.641 -0.1810 -0.8919 -0.0429
   27SAPC  H12X 3648   0.762   5.262   7.558 -2.1974  2.4197  0.2543
   27SAPC  H12Y 3649   0.836   5.401   7.659 -0.2505 -0.5454 -1.9215
   27SAPC  C313 3650   0.778   5.226   7.772 -0.1524  0.0208  0.0292
   27SAPC  H13X 3651   0.802   5.117   7.779 -1.0320 -0.0715  2.1452
   27SAPC  H13Y 3652   0.669   5.237   7.759 -0.3429 -0.7453  0.8588
   27SAPC  C314 3653   0.822   5.294   7.900 -0.3405  0.2644 -0.3616
   27SAPC  H14X 3654   0.792   5.401   7.900 -1.5743 -0.0531  1.0906
   27SAPC  H14Y 3655   0.931   5.281   7.920 -0.5419 -1.4105 -0.1779
   27SAPC  C315 3656   0.739   5.236   8.019 -0.6505 -0.0101 -0.5327
   27SAPC  H15X 3657   0.755   5.286   8.117  1.4958 -1.9372  0.1929
   27SAPC  H15Y 3658   0.760   5.127   8.024 -0.4788  0.0764  1.3148
   27SAPC  C316 3659   0.590   5.247   8.004  0.0968  1.0729  0.1418
   27SAPC  H16X 3660   0.535   5.176   7.939 -1.0575  1.3108  0.8416
   27SAPC  H16Y 3661   0.566   5.340   7.948  1.8898 -0.5993 -3.8190
   27SAPC  C317 3662   0.514   5.234   8.136 -0.4000 -0.0651  0.3270
   27SAPC  H17X 3663   0.403   5.232   8.123 -0.4866  0.3856  0.9336
   27SAPC  H17Y 3664   0.547   5.312   8.208  0.1264  0.4160 -0.4223
   27SAPC  C318 3665   0.546   5.098   8.202  0.4307  0.8280  0.3631
   27SAPC  H18X 3666   0.493   5.084   8.298  1.1327  0.8812  0.7673
   27SAPC  H18Y 3667   0.655   5.087   8.223  1.1546  3.0118 -1.7205
   27SAPC  H18Z 3668   0.517   5.013   8.137 -0.1769  1.1228  0.2435
   28SAPC     N 3669   3.802   0.902   5.830 -0.3736 -0.0621 -0.3064
   28SAPC   C12 3670   3.746   0.971   5.952 -0.0287  0.0441  1.3061
   28SAPC  H12A 3671   3.674   0.910   6.005 -1.7043  0.2153 -0.6642
   28SAPC  H12B 3672   3.704   1.066   5.924  0.9238  0.4061  1.0782
   28SAPC   C13 3673   3.896   0.992   5.760 -0.1870 -1.1251 -0.1140
   28SAPC  H13A 3674   3.851   1.082   5.720 -1.1099 -0.6956  1.7874
   28SAPC  H13B 3675   3.962   1.030   5.836 -1.4351  0.2135  0.3458
   28SAPC  H13C 3676   3.948   0.945   5.678 -0.1275  0.8506 -1.2880
   28SAPC   C14 3677   3.860   0.768   5.860  0.8271 -0.6858  0.1756
   28SAPC  H14A 3678   3.864   0.708   5.771 -0.7322  0.1671 -0.5230
   28SAPC  H14B 3679   3.959   0.785   5.901  1.3994 -1.1144 -0.9976
   28SAPC  H14C 3680   3.799   0.718   5.934  0.0920  0.2194  0.2055
   28SAPC   C15 3681   3.681   0.880   5.741 -0.5826 -0.2188 -0.3942
   28SAPC  H15A 3682   3.645   0.972   5.698  0.8754  0.1197 -0.9353
   28SAPC  H15B 3683   3.709   0.814   5.660  1.9834  0.2177  0.0442
   28SAPC  H15C 3684   3.599   0.834   5.794 -0.0248 -1.0341 -0.2163
   28SAPC   C11 3685   3.851   1.032   6.055 -0.1905 -0.2526 -0.3313
   28SAPC  H11A 3686   3.935   0.959   6.060  0.0404  0.1018  1.5354
   28SAPC  H11B 3687   3.810   1.052   6.156  2.0615 -0.4590  0.6899
   28SAPC     P 3688   3.813   1.289   6.011 -0.3601 -0.0891  0.2858
   28SAPC   O13 3689   3.873   1.402   5.934 -0.1531 -0.0212 -0.1988
   28SAPC   O14 3690   3.667   1.258   5.976 -0.4710  0.0966  0.1247
   28SAPC   O12 3691   3.902   1.158   5.997  0.1725 -0.3822  0.6335
   28SAPC   O11 3692   3.818   1.335   6.161 -0.7452  0.1761 -0.3629
   28SAPC    C1 3693   3.934   1.303   6.244 -0.0046  0.3156  0.4547
   28SAPC    HA 3694   3.909   1.203   6.285 -3.4625  0.4047 -1.0725
   28SAPC    HB 3695   4.026   1.301   6.181 -0.3455  0.1374 -0.0473
   28SAPC    C2 3696   3.949   1.400   6.359 -0.2512  0.0917  0.4436
   28SAPC    HS 3697   4.002   1.359   6.447 -0.3911  0.0340  0.5022
   28SAPC   O21 3698   3.826   1.442   6.414  0.2057 -0.0500  0.6750
   28SAPC   C21 3699   3.760   1.350   6.484 -0.0532 -0.5404  0.0139
   28SAPC   O22 3700   3.814   1.255   6.539 -0.1748 -0.4228 -0.0128
   28SAPC   C22 3701   3.615   1.406   6.503 -0.1474  0.7678  0.4048
   28SAPC   H2R 3702   3.608   1.511   6.467 -0.5609  1.3102  1.9710
   28SAPC   H2S 3703   3.550   1.352   6.432  1.5531  0.5302 -1.0672
   28SAPC    C3 3704   4.033   1.536   6.328 -0.2725 -0.0299 -0.8146
   28SAPC    HX 3705   3.988   1.596   6.247  0.5588  0.9761 -0.5574
   28SAPC    HY 3706   4.134   1.503   6.294 -0.8811  0.7765 -3.7067
   28SAPC   O31 3707   4.052   1.614   6.441 -0.0154 -0.2830 -0.2567
   28SAPC   C31 3708   3.966   1.708   6.474 -0.4617 -0.2444 -0.7896
   28SAPC   O32 3709   3.864   1.745   6.414  0.2378 -0.3916 -0.8367
   28SAPC   C32 3710   4.016   1.773   6.604  0.9080  0.4200 -0.1216
   28SAPC   H2X 3711   4.116   1.811   6.575  1.2202 -1.2327 -1.3997
   28SAPC   H2Y 3712   4.022   1.691   6.679 -0.9023 -1.0818 -1.5122
   28SAPC   C23 3713   3.575   1.420   6.655  0.6631  0.3842  0.1399
   28SAPC   H3R 3714   3.605   1.326   6.706 -0.3622 -0.1531 -0.2417
   28SAPC   H3S 3715   3.465   1.426   6.645  0.7755  0.9203 -0.8629
   28SAPC   C24 3716   3.611   1.547   6.728  0.5472  0.0614 -1.0929
   28SAPC   H4R 3717   3.587   1.643   6.676 -1.7773  1.3399  2.0109
   28SAPC   H4S 3718   3.545   1.555   6.817  0.2429  2.8671 -1.4636
   28SAPC   C25 3719   3.752   1.540   6.777  0.1244  0.3230 -0.0674
   28SAPC   H5R 3720   3.829   1.532   6.698  1.3187  2.5928  0.7745
   28SAPC   C26 3721   3.809   1.552   6.896 -0.0318 -0.0586 -0.0224
   28SAPC   H6R 3722   3.918   1.543   6.906 -0.1031 -1.6012 -0.3760
   28SAPC   C27 3723   3.736   1.578   7.023  0.4690  0.3206 -0.0442
   28SAPC   H7R 3724   3.636   1.616   6.992  1.1071  2.6523  0.5219
   28SAPC   H7S 3725   3.785   1.664   7.073 -1.2435  2.1973 -1.4188
   28SAPC   C28 3726   3.727   1.442   7.093  0.1180 -0.2708 -0.2800
   28SAPC   H8R 3727   3.708   1.353   7.032 -0.0221 -0.3959 -0.0517
   28SAPC   C29 3728   3.753   1.427   7.224 -0.2924  0.5140  0.4259
   28SAPC   H9R 3729   3.742   1.325   7.266  1.4979  0.0710 -0.0917
   28SAPC  C210 3730   3.802   1.528   7.322 -0.0676  0.2565 -0.1106
   28SAPC  H10R 3731   3.908   1.559   7.306  0.8875 -2.3574  0.7253
   28SAPC  H10S 3732   3.806   1.471   7.416 -1.2725 -1.2599 -0.9347
   28SAPC  C211 3733   3.720   1.652   7.353 -1.0034 -0.0673 -0.0693
   28SAPC  H11R 3734   3.752   1.746   7.305 -2.7715  1.2508  1.1759
   28SAPC  C212 3735   3.629   1.675   7.452  0.8710 -0.0806  0.4184
   28SAPC  H12R 3736   3.574   1.769   7.468 -2.7667 -1.5711 -1.9539
   28SAPC  C213 3737   3.576   1.568   7.548 -0.4661 -0.1562  0.0164
   28SAPC  H13R 3738   3.516   1.503   7.482  1.0014 -2.9581  1.2493
   28SAPC  H13S 3739   3.498   1.612   7.615 -2.7008 -2.1899 -1.1080
   28SAPC  C214 3740   3.667   1.488   7.633  0.2294 -0.2773 -0.7967
   28SAPC  H14R 3741   3.771   1.483   7.599  0.4379 -0.8168 -0.1085
   28SAPC  C215 3742   3.637   1.434   7.753 -0.6400 -0.3407  0.7393
   28SAPC  H15R 3743   3.707   1.373   7.811 -2.6239 -1.3967  2.1357
   28SAPC  C216 3744   3.500   1.443   7.827 -0.5578 -0.5749 -0.2832
   28SAPC  H16R 3745   3.412   1.410   7.767 -0.4504 -1.2916 -0.0575
   28SAPC  H16S 3746   3.478   1.551   7.844 -2.5208 -1.2944  2.5610
   28SAPC  C217 3747   3.494   1.372   7.971  0.3829 -0.5646 -0.3031
   28SAPC  H17R 3748   3.390   1.393   8.005  0.2537 -1.3149 -0.2211
   28SAPC  H17S 3749   3.564   1.423   8.040  1.1994 -1.4868 -0.4310
   28SAPC  C218 3750   3.521   1.220   7.970 -0.1809 -0.0242  0.0724
   28SAPC  H18R 3751   3.506   1.187   8.075 -1.9401 -0.6759 -0.3357
   28SAPC  H18S 3752   3.625   1.201   7.936 -1.1875  0.1351 -3.5272
   28SAPC  C219 3753   3.442   1.144   7.868 -0.3897  0.3633  0.1437
   28SAPC  H19R 3754   3.477   1.180   7.769  0.3172  1.9487  0.9318
   28SAPC  H19S 3755   3.340   1.188   7.870  0.5182  3.1198 -3.1931
   28SAPC  C220 3756   3.455   0.993   7.869  0.2246  0.3238  0.0265
   28SAPC  H20R 3757   3.407   0.940   7.784  1.0133 -1.0469  0.3955
   28SAPC  H20S 3758   3.415   0.946   7.961 -1.9249  0.0351 -1.0044
   28SAPC  H20T 3759   3.564   0.971   7.865  0.3584  1.0568 -0.5296
   28SAPC   C33 3760   3.924   1.891   6.660  0.5685  0.1018  0.2548
   28SAPC   H3X 3761   3.821   1.855   6.681  1.0276  0.8916  5.0219
   28SAPC   H3Y 3762   3.921   1.958   6.571  0.5943 -0.3865 -0.1184
   28SAPC   C34 3763   3.993   1.958   6.774 -0.2487 -0.1380  0.3113
   28SAPC   H4X 3764   3.949   2.060   6.785 -2.0238 -1.0143  1.8252
   28SAPC   H4Y 3765   4.102   1.963   6.755 -0.0732 -0.1421  1.2751
   28SAPC   C35 3766   3.985   1.888   6.912 -0.0296 -0.5026 -0.4615
   28SAPC   H5X 3767   4.035   1.790   6.895 -0.8076 -1.2304  1.2654
   28SAPC   H5Y 3768   3.879   1.858   6.927  0.5489 -1.3066  2.7749
   28SAPC   C36 3769   4.028   1.967   7.036  0.7097 -0.2706 -0.1023
   28SAPC   H6X 3770   3.962   2.053   7.056  1.8588  0.3758  1.0540
   28SAPC   H6Y 3771   4.132   2.005   7.021  0.5522 -0.5709 -2.3334
   28SAPC   C37 3772   4.029   1.873   7.159 -0.0554 -0.1060 -0.5987
   28SAPC   H7X 3773   4.099   1.788   7.144 -1.1390 -0.8619 -1.5146
   28SAPC   H7Y 3774   3.928   1.834   7.184  0.8053 -2.3622 -0.4842
   28SAPC   C38 3775   4.077   1.959   7.285  0.2156  0.7720  0.0202
   28SAPC   H8X 3776   4.020   2.055   7.293  0.5448  0.8015  4.4787
   28SAPC   H8Y 3777   4.181   1.993   7.268 -1.1447  5.3388 -0.7719
   28SAPC   C39 3778   4.056   1.896   7.418  0.5226  0.1713 -0.1722
   28SAPC   H9X 3779   4.118   1.805   7.431  1.7870  0.7209 -2.0664
   28SAPC   H9Y 3780   3.954   1.853   7.418  0.9455 -1.0566 -3.1125
   28SAPC  C310 3781   4.071   1.989   7.543  0.0341 -0.2062 -0.0772
   28SAPC  H10X 3782   3.973   2.040   7.558  0.4106  0.0698  1.6138
   28SAPC  H10Y 3783   4.138   2.075   7.527 -2.0447  1.2528 -1.4356
   28SAPC  C311 3784   4.108   1.917   7.677 -0.0431  0.5594  0.6239
   28SAPC  H11X 3785   4.192   1.846   7.668  0.3076  0.8693  1.3146
   28SAPC  H11Y 3786   4.019   1.861   7.712  0.8248 -0.8182  0.6630
   28SAPC  C312 3787   4.163   2.009   7.784 -0.0635 -0.5445  0.7864
   28SAPC  H12X 3788   4.104   2.102   7.796  0.0559 -0.2433 -0.8395
   28SAPC  H12Y 3789   4.257   2.052   7.743  0.1530 -1.8518 -0.1434
   28SAPC  C313 3790   4.183   1.942   7.925 -0.7931 -0.2063  0.2092
   28SAPC  H13X 3791   4.253   2.003   7.987  0.9859  0.6715 -2.4692
   28SAPC  H13Y 3792   4.226   1.843   7.897  0.8326  0.8889 -1.4692
   28SAPC  C314 3793   4.047   1.912   8.001 -0.6561 -0.9060  0.1405
   28SAPC  H14X 3794   3.982   1.856   7.930  0.0397 -0.2708 -1.0227
   28SAPC  H14Y 3795   4.009   2.013   8.023  2.7788  0.7079 -0.6571
   28SAPC  C315 3796   4.067   1.825   8.128 -0.2153  0.5362  0.3142
   28SAPC  H15X 3797   4.125   1.735   8.099  0.7092  0.8074  1.2435
   28SAPC  H15Y 3798   3.964   1.799   8.160  0.2743 -0.8054  0.8437
   28SAPC  C316 3799   4.144   1.894   8.245 -0.1210  0.7164 -0.5151
   28SAPC  H16X 3800   4.062   1.946   8.300 -0.4570  1.3042 -1.5388
   28SAPC  H16Y 3801   4.211   1.977   8.213  0.2846  0.9639  0.8888
   28SAPC  C317 3802   4.214   1.777   8.332 -0.6770 -0.7992  0.8074
   28SAPC  H17X 3803   4.278   1.829   8.406  0.4579  1.0979 -1.3432
   28SAPC  H17Y 3804   4.285   1.727   8.262  1.1305  1.8597  0.5857
   28SAPC  C318 3805   4.122   1.684   8.408  0.3106  0.1856 -0.4166
   28SAPC  H18X 3806   4.064   1.616   8.342  0.5750  0.3488 -0.8220
   28SAPC  H18Y 3807   4.055   1.741   8.476  0.1789 -0.8590  0.3512
   28SAPC  H18Z 3808   4.164   1.615   8.484 -1.1555  1.1343  1.3320
   29SAPC     N 3809   0.555   0.277   6.002  0.6317 -0.5983  0.7732
   29SAPC   C12 3810   0.652   0.337   6.097 -0.4056 -0.1576 -0.3705
   29SAPC  H12A 3811   0.584   0.406   6.146 -2.8081 -1.2660 -1.9438
   29SAPC  H12B 3812   0.726   0.395   6.043  1.8295 -2.4063  0.1228
   29SAPC   C13 3813   0.624   0.177   5.920  0.8056  0.0457 -0.0312
   29SAPC  H13A 3814   0.643   0.086   5.975 -0.4629 -0.7031 -0.8040
   29SAPC  H13B 3815   0.549   0.142   5.851  0.4382 -1.8751  1.2553
   29SAPC  H13C 3816   0.717   0.205   5.872  0.4379 -0.8461 -1.3213
   29SAPC   C14 3817   0.441   0.223   6.074  0.1114  0.5483 -1.4226
   29SAPC  H14A 3818   0.369   0.295   6.111 -0.0569 -0.1058 -0.4198
   29SAPC  H14B 3819   0.378   0.155   6.019 -1.6204 -1.1225  2.2490
   29SAPC  H14C 3820   0.476   0.154   6.150  0.7934  1.4081 -0.9468
   29SAPC   C15 3821   0.508   0.383   5.902 -0.0477  0.2461  0.5170
   29SAPC  H15A 3822   0.447   0.338   5.826  0.6861 -1.6423  1.0013
   29SAPC  H15B 3823   0.454   0.463   5.951 -0.3692  0.5612 -0.3302
   29SAPC  H15C 3824   0.589   0.423   5.842 -0.8820 -1.3088 -1.7525
   29SAPC   C11 3825   0.732   0.240   6.180  0.2646 -0.6290  0.5174
   29SAPC  H11A 3826   0.815   0.296   6.231  0.7359  0.1918 -1.0913
   29SAPC  H11B 3827   0.791   0.171   6.117 -0.9016 -0.0355 -1.2840
   29SAPC     P 3828   0.630   0.219   6.417  0.2368 -1.0231 -0.3935
   29SAPC   O13 3829   0.483   0.219   6.431  0.1541  0.2249 -0.4733
   29SAPC   O14 3830   0.693   0.141   6.522  0.7389 -0.3339  0.1082
   29SAPC   O12 3831   0.650   0.172   6.270  0.0774 -0.4005  0.0940
   29SAPC   O11 3832   0.675   0.367   6.432 -0.1777 -0.3437  0.2367
   29SAPC    C1 3833   0.572   0.475   6.421  0.9865  0.6409 -0.5034
   29SAPC    HA 3834   0.607   0.559   6.358  1.0730  0.4267 -0.7423
   29SAPC    HB 3835   0.474   0.448   6.376  1.4191  0.6325 -1.4747
   29SAPC    C2 3836   0.547   0.526   6.562  0.2519 -0.5645  0.7629
   29SAPC    HS 3837   0.473   0.609   6.562  0.7301 -0.1133  2.0402
   29SAPC   O21 3838   0.664   0.571   6.621  0.4814  0.2004 -0.4435
   29SAPC   C21 3839   0.697   0.693   6.606 -0.0570  0.1630  0.3287
   29SAPC   O22 3840   0.634   0.780   6.543  0.4733  0.3043 -0.2232
   29SAPC   C22 3841   0.828   0.720   6.660  1.0398  0.6793 -0.2700
   29SAPC   H2R 3842   0.889   0.636   6.698 -0.3326 -0.8584 -1.3312
   29SAPC   H2S 3843   0.878   0.764   6.571 -0.7065  1.4115 -0.9429
   29SAPC    C3 3844   0.466   0.429   6.652  0.4000  0.4238 -0.0258
   29SAPC    HX 3845   0.535   0.343   6.659  2.0280  1.6178 -0.8716
   29SAPC    HY 3846   0.369   0.404   6.603 -0.3046  1.0510  0.9959
   29SAPC   O31 3847   0.453   0.488   6.785  0.2928 -0.1689 -0.2022
   29SAPC   C31 3848   0.390   0.392   6.867 -0.6282  0.3058  0.9375
   29SAPC   O32 3849   0.361   0.278   6.838 -0.2473  1.0601 -0.1692
   29SAPC   C32 3850   0.358   0.458   6.998  0.0073 -0.3478  0.3197
   29SAPC   H2X 3851   0.260   0.510   6.989 -0.8169 -2.1098 -1.8386
   29SAPC   H2Y 3852   0.434   0.532   7.030  1.3364 -1.3705 -0.3718
   29SAPC   C23 3853   0.821   0.835   6.766  0.3032 -0.1375 -0.2786
   29SAPC   H3R 3854   0.762   0.915   6.717 -2.8034 -1.4972  0.9713
   29SAPC   H3S 3855   0.925   0.865   6.788  0.0080  1.2280 -0.6404
   29SAPC   C24 3856   0.750   0.805   6.901 -0.2880  0.0489 -0.1283
   29SAPC   H4R 3857   0.658   0.748   6.874  1.0877 -1.5249 -1.7022
   29SAPC   H4S 3858   0.715   0.904   6.940  1.0945  0.7812 -0.6713
   29SAPC   C25 3859   0.826   0.725   7.003 -0.1741  0.5214  0.0913
   29SAPC   H5R 3860   0.904   0.660   6.961 -0.1635 -0.4125  1.4938
   29SAPC   C26 3861   0.823   0.735   7.135  0.1822 -0.0503  0.2099
   29SAPC   H6R 3862   0.898   0.678   7.192  1.0188  0.6810 -0.1341
   29SAPC   C27 3863   0.741   0.829   7.219 -0.5652 -0.3508  0.7304
   29SAPC   H7R 3864   0.701   0.919   7.168 -1.5855 -1.4703 -0.5249
   29SAPC   H7S 3865   0.806   0.864   7.302  3.2267  2.2769 -2.9029
   29SAPC   C28 3866   0.629   0.736   7.266 -0.4151  0.2447 -0.5999
   29SAPC   H8R 3867   0.581   0.669   7.192 -0.9656 -0.0535  0.0213
   29SAPC   C29 3868   0.576   0.752   7.388  0.3902 -0.6195 -0.2145
   29SAPC   H9R 3869   0.496   0.683   7.419  0.9556 -0.8570  0.7524
   29SAPC  C210 3870   0.618   0.857   7.482  0.1753 -0.3051 -0.2526
   29SAPC  H10R 3871   0.676   0.940   7.437  0.3332  0.6965  1.6669
   29SAPC  H10S 3872   0.696   0.811   7.547  1.0118 -0.7663 -1.5553
   29SAPC  C211 3873   0.503   0.925   7.540 -0.0446 -0.4028 -0.5862
   29SAPC  H11R 3874   0.437   0.984   7.474  1.7298  1.5821 -0.6930
   29SAPC  C212 3875   0.486   0.940   7.667 -0.0137 -0.5157 -0.0754
   29SAPC  H12R 3876   0.395   0.987   7.708 -0.0463  0.2442 -0.9820
   29SAPC  C213 3877   0.566   0.884   7.781 -0.3979 -0.4648 -0.0831
   29SAPC  H13R 3878   0.607   0.965   7.845 -1.1483 -0.9177  0.9965
   29SAPC  H13S 3879   0.655   0.824   7.750  0.2821 -0.0229  0.9485
   29SAPC  C214 3880   0.493   0.782   7.871 -0.5036 -0.3165 -0.3349
   29SAPC  H14R 3881   0.478   0.686   7.819  1.7196  0.8779 -3.5006
   29SAPC  C215 3882   0.454   0.798   7.996  0.1757 -0.3823 -0.6261
   29SAPC  H15R 3883   0.396   0.721   8.048  1.0616 -0.5320  0.1759
   29SAPC  C216 3884   0.479   0.928   8.071 -0.2590 -0.0276 -0.5192
   29SAPC  H16R 3885   0.407   1.007   8.040 -0.6988 -0.2693 -0.1297
   29SAPC  H16S 3886   0.585   0.962   8.069  0.8628 -2.9664  1.8249
   29SAPC  C217 3887   0.457   0.897   8.220 -0.1267  0.3655  0.1200
   29SAPC  H17R 3888   0.508   0.983   8.268  0.9274 -0.3252  0.2847
   29SAPC  H17S 3889   0.509   0.810   8.267  1.1417  1.7339  1.3665
   29SAPC  C218 3890   0.310   0.903   8.270  0.4432  0.1439 -0.8167
   29SAPC  H18R 3891   0.254   0.817   8.226 -1.1779  0.7570 -0.0347
   29SAPC  H18S 3892   0.263   0.993   8.225  0.1838  0.7803  0.6908
   29SAPC  C219 3893   0.300   0.907   8.424 -0.0371 -0.3313  0.7878
   29SAPC  H19R 3894   0.191   0.908   8.445 -0.6945  1.9361 -2.1252
   29SAPC  H19S 3895   0.346   1.000   8.466  1.4597 -1.8849  2.7936
   29SAPC  C220 3896   0.371   0.793   8.491 -0.4955 -0.2006  0.3610
   29SAPC  H20R 3897   0.315   0.771   8.584 -0.2518 -1.5650  0.1945
   29SAPC  H20S 3898   0.478   0.806   8.520 -1.2051 -0.1496  3.1979
   29SAPC  H20T 3899   0.366   0.700   8.430 -0.2732 -0.3650  0.5905
   29SAPC   C33 3900   0.340   0.364   7.115 -0.0943 -0.2644  1.0289
   29SAPC   H3X 3901   0.422   0.291   7.132 -0.7913 -0.9113  1.7141
   29SAPC   H3Y 3902   0.255   0.296   7.092 -0.0689 -0.7046  2.1630
   29SAPC   C34 3903   0.294   0.446   7.231 -0.3650  0.1080 -0.1038
   29SAPC   H4X 3904   0.206   0.506   7.201 -0.6123 -0.6685 -0.9622
   29SAPC   H4Y 3905   0.378   0.516   7.254  0.1072 -0.4680 -0.0300
   29SAPC   C35 3906   0.252   0.364   7.354 -0.2838 -0.3987 -0.2330
   29SAPC   H5X 3907   0.310   0.270   7.352  0.4418  0.0085  1.0916
   29SAPC   H5Y 3908   0.147   0.327   7.350 -0.5346  0.0761  1.3301
   29SAPC   C36 3909   0.274   0.431   7.495 -0.5421  0.1922  0.8207
   29SAPC   H6X 3910   0.227   0.531   7.489  1.3725  1.0558 -0.6708
   29SAPC   H6Y 3911   0.380   0.444   7.525  0.2913  0.9744 -2.1373
   29SAPC   C37 3912   0.215   0.347   7.614 -0.1773 -0.4664 -0.2969
   29SAPC   H7X 3913   0.298   0.277   7.635  2.8428  2.7780 -0.5063
   29SAPC   H7Y 3914   0.122   0.294   7.583  1.1521 -1.1014 -3.5410
   29SAPC   C38 3915   0.188   0.432   7.747 -0.0695  0.6981  0.2718
   29SAPC   H8X 3916   0.097   0.493   7.731  0.5581  1.4793 -0.4030
   29SAPC   H8Y 3917   0.271   0.505   7.753 -1.1697  2.0842 -0.8034
   29SAPC   C39 3918   0.167   0.351   7.877 -0.1276 -0.1092  0.2650
   29SAPC   H9X 3919   0.258   0.290   7.894 -0.3863 -0.3177  0.9503
   29SAPC   H9Y 3920   0.079   0.291   7.848 -0.9026  1.4841 -0.8094
   29SAPC  C310 3921   0.128   0.449   7.991  0.3545 -0.0947  0.3101
   29SAPC  H10X 3922   0.048   0.524   7.973  0.1380 -0.5602 -0.7104
   29SAPC  H10Y 3923   0.221   0.504   8.018  1.3610 -2.2859  1.6013
   29SAPC  C311 3924   0.091   0.373   8.115  0.5242 -0.3272 -0.1728
   29SAPC  H11X 3925   0.162   0.288   8.125 -0.5590 -1.2537 -0.2006
   29SAPC  H11Y 3926  -0.007   0.322   8.105 -0.0625  1.1037 -2.2976
   29SAPC  C312 3927   0.115   0.460   8.247  0.0132 -0.6264 -0.2677
   29SAPC  H12X 3928   0.218   0.501   8.247 -0.0275 -0.5173  0.2521
   29SAPC  H12Y 3929   0.105   0.397   8.338 -1.6408 -1.0443 -0.6987
   29SAPC  C313 3930   0.005   0.568   8.275  0.7594 -0.0428  0.1178
   29SAPC  H13X 3931  -0.043   0.617   8.188 -1.2053 -0.0069  1.1513
   29SAPC  H13Y 3932   0.049   0.650   8.336 -1.4990  2.5564 -1.5270
   29SAPC  C314 3933  -0.107   0.516   8.375  0.0546  0.7265 -0.0495
   29SAPC  H14X 3934  -0.066   0.498   8.476 -1.0342  2.4815  0.7700
   29SAPC  H14Y 3935  -0.155   0.422   8.340 -1.6803  1.3898  0.4127
   29SAPC  C315 3936  -0.220   0.620   8.378 -0.0567 -0.3482 -0.0020
   29SAPC  H15X 3937  -0.241   0.640   8.270 -0.2876  2.1530  0.4477
   29SAPC  H15Y 3938  -0.182   0.719   8.413  1.0423 -0.1181 -1.7052
   29SAPC  C316 3939  -0.347   0.567   8.457  0.3965 -0.1114 -0.7385
   29SAPC  H16X 3940  -0.326   0.558   8.566 -1.9352  1.9311 -0.0201
   29SAPC  H16Y 3941  -0.365   0.465   8.417  0.3428 -1.0360  1.4971
   29SAPC  C317 3942  -0.472   0.653   8.438 -0.2072 -0.4173  1.0514
   29SAPC  H17X 3943  -0.482   0.649   8.328  0.2478  1.0872  0.9303
   29SAPC  H17Y 3944  -0.435   0.754   8.467 -0.1676  0.1577 -0.8901
   29SAPC  C318 3945  -0.592   0.603   8.513 -0.7837  0.0421  0.8593
   29SAPC  H18X 3946  -0.686   0.660   8.496 -0.7206 -0.5511 -1.9700
   29SAPC  H18Y 3947  -0.571   0.618   8.621 -0.1361  2.9508  0.4260
   29SAPC  H18Z 3948  -0.608   0.497   8.483 -0.4999  0.5360 -1.2583
   30SAPC     N 3949   2.375   5.601   5.782 -0.1687  1.0567  0.5114
   30SAPC   C12 3950   2.264   5.495   5.756  0.0728 -0.6608 -1.1050
   30SAPC  H12A 3951   2.299   5.394   5.770 -1.9121 -1.6170 -2.5810
   30SAPC  H12B 3952   2.224   5.515   5.657  0.1896  0.3250 -0.9617
   30SAPC   C13 3953   2.466   5.548   5.898 -0.7176 -0.5651  0.0640
   30SAPC  H13A 3954   2.540   5.616   5.935 -1.6599  0.5734 -0.0881
   30SAPC  H13B 3955   2.398   5.530   5.980 -1.7438  1.6461 -0.2251
   30SAPC  H13C 3956   2.509   5.455   5.863 -0.8136 -0.8066  0.5831
   30SAPC   C14 3957   2.465   5.610   5.663  0.4905 -0.2580  0.1185
   30SAPC  H14A 3958   2.537   5.687   5.685 -0.8013  0.4236  2.2714
   30SAPC  H14B 3959   2.518   5.517   5.651 -0.1400 -0.4388 -1.6956
   30SAPC  H14C 3960   2.419   5.639   5.569 -1.2124 -0.3698  0.8736
   30SAPC   C15 3961   2.317   5.735   5.815  0.1625 -0.1669  0.1530
   30SAPC  H15A 3962   2.237   5.762   5.748  1.2011  0.9288 -0.6991
   30SAPC  H15B 3963   2.275   5.739   5.914 -0.7583 -0.0625 -0.2380
   30SAPC  H15C 3964   2.391   5.814   5.809  1.1913 -1.0748  0.4805
   30SAPC   C11 3965   2.153   5.499   5.857  0.2813  0.2888  0.2171
   30SAPC  H11A 3966   2.067   5.439   5.820  0.7507  0.0355 -0.4996
   30SAPC  H11B 3967   2.106   5.600   5.855  0.5853  0.4314  0.1328
   30SAPC     P 3968   2.199   5.300   6.021  0.7072  0.4064  0.2819
   30SAPC   O13 3969   2.072   5.226   5.997  0.5494 -0.1455 -0.0731
   30SAPC   O14 3970   2.316   5.252   5.945  0.2294  0.8223 -0.0663
   30SAPC   O12 3971   2.182   5.456   5.991 -0.3656 -0.3213  1.2115
   30SAPC   O11 3972   2.240   5.294   6.176 -0.3284 -0.2089 -0.3498
   30SAPC    C1 3973   2.299   5.405   6.242  0.5786 -1.2109  0.2222
   30SAPC    HA 3974   2.398   5.434   6.200  0.3623 -0.1503  0.4037
   30SAPC    HB 3975   2.229   5.490   6.227  0.7158 -1.2950 -1.0303
   30SAPC    C2 3976   2.296   5.377   6.396 -0.1588  0.5793  0.1034
   30SAPC    HS 3977   2.337   5.466   6.450  1.8686 -0.8685  1.0786
   30SAPC   O21 3978   2.376   5.263   6.429 -0.1418  0.2283 -0.5338
   30SAPC   C21 3979   2.503   5.285   6.440 -0.6185  0.3188 -0.0348
   30SAPC   O22 3980   2.561   5.389   6.410  0.1980  0.3895 -0.3631
   30SAPC   C22 3981   2.580   5.165   6.512  0.5423 -0.1268 -0.1139
   30SAPC   H2R 3982   2.521   5.137   6.601  1.6563 -0.1289  0.6413
   30SAPC   H2S 3983   2.584   5.088   6.432  1.3768 -0.9127  0.6568
   30SAPC    C3 3984   2.154   5.349   6.449  0.8975 -0.1082  0.1364
   30SAPC    HX 3985   2.095   5.278   6.387  2.2717 -1.0835 -0.1086
   30SAPC    HY 3986   2.109   5.449   6.429 -0.9627 -0.0224  3.9438
   30SAPC   O31 3987   2.148   5.318   6.584  0.1412 -0.1034 -0.4175
   30SAPC   C31 3988   2.114   5.408   6.672 -0.1089  0.1571  0.4068
   30SAPC   O32 3989   2.098   5.529   6.647  0.3149  1.1338 -0.1112
   30SAPC   C32 3990   2.064   5.335   6.797  0.3589 -0.1754 -0.4474
   30SAPC   H2X 3991   2.112   5.235   6.791  0.6288 -0.3177  2.6126
   30SAPC   H2Y 3992   1.953   5.331   6.789 -0.0894  2.8464  2.2597
   30SAPC   C23 3993   2.718   5.207   6.549 -0.7999  0.2794  0.7265
   30SAPC   H3R 3994   2.723   5.305   6.601  0.2267  1.0787 -0.7828
   30SAPC   H3S 3995   2.787   5.223   6.463  0.3293  0.2543  1.5940
   30SAPC   C24 3996   2.781   5.111   6.651 -0.7835  0.1634  0.4731
   30SAPC   H4R 3997   2.788   5.009   6.609  0.2583 -0.1470  1.3688
   30SAPC   H4S 3998   2.723   5.099   6.745  0.2107 -1.5407  0.9065
   30SAPC   C25 3999   2.918   5.149   6.700  0.2810 -1.2369  0.6531
   30SAPC   H5R 4000   3.003   5.141   6.631  0.4893  0.2048  0.7037
   30SAPC   C26 4001   2.948   5.225   6.806 -0.1188 -0.2364  0.4697
   30SAPC   H6R 4002   3.055   5.237   6.829 -0.1266 -0.5859  0.6995
   30SAPC   C27 4003   2.852   5.271   6.912 -0.0904 -0.4738 -0.1514
   30SAPC   H7R 4004   2.808   5.189   6.971  1.3766  0.7856  2.9132
   30SAPC   H7S 4005   2.768   5.328   6.868 -0.0216  0.0962  0.4417
   30SAPC   C28 4006   2.917   5.363   7.005  0.0992 -0.8880 -0.3648
   30SAPC   H8R 4007   2.886   5.467   6.986  0.1819 -0.5434  1.2041
   30SAPC   C29 4008   2.968   5.339   7.129 -0.2387 -0.2368 -0.7190
   30SAPC   H9R 4009   3.020   5.422   7.179 -2.3063  0.6709  0.0387
   30SAPC  C210 4010   2.990   5.203   7.194  0.4488 -0.2961 -0.1258
   30SAPC  H10R 4011   3.091   5.203   7.242 -0.5625 -1.8213  2.1958
   30SAPC  H10S 4012   2.987   5.131   7.110 -0.6567  0.9324 -1.1723
   30SAPC  C211 4013   2.880   5.172   7.294  0.2574  0.4974 -0.5141
   30SAPC  H11R 4014   2.792   5.119   7.253  0.1574 -1.4089  1.9367
   30SAPC  C212 4015   2.885   5.187   7.430 -0.7332  0.1898  0.2343
   30SAPC  H12R 4016   2.788   5.189   7.482 -0.5135  0.2483  0.6458
   30SAPC  C213 4017   3.003   5.246   7.504 -0.2569 -0.6862 -0.7491
   30SAPC  H13R 4018   2.956   5.314   7.578  3.0659  1.3731 -0.3300
   30SAPC  H13S 4019   3.062   5.305   7.432  0.8096 -1.1974 -0.3151
   30SAPC  C214 4020   3.073   5.137   7.565  0.1955 -0.0028 -0.9190
   30SAPC  H14R 4021   3.157   5.095   7.507 -0.8395  0.6774 -3.0363
   30SAPC  C215 4022   3.043   5.087   7.686 -0.0579 -0.1465 -0.8551
   30SAPC  H15R 4023   3.111   5.008   7.724  0.1080  1.6749  3.1595
   30SAPC  C216 4024   2.938   5.125   7.779  0.0839 -0.5840 -0.0867
   30SAPC  H16R 4025   2.878   5.034   7.797  0.1513 -0.9260 -1.4564
   30SAPC  H16S 4026   2.870   5.200   7.732  0.7023  1.8402  2.6282
   30SAPC  C217 4027   2.972   5.162   7.921  0.2366 -0.2646  0.1241
   30SAPC  H17R 4028   3.005   5.269   7.920  0.0476 -0.0579 -4.0842
   30SAPC  H17S 4029   3.053   5.098   7.962 -0.5641 -1.3276  0.0666
   30SAPC  C218 4030   2.846   5.156   8.019  0.4570  0.1667  0.2540
   30SAPC  H18R 4031   2.835   5.050   8.053  1.3821  0.0312  0.1748
   30SAPC  H18S 4032   2.757   5.183   7.960  1.8967  0.1076 -2.0731
   30SAPC  C219 4033   2.862   5.235   8.150 -0.0925 -0.3549  0.2023
   30SAPC  H19R 4034   2.953   5.201   8.203 -0.2128 -0.2681  0.4674
   30SAPC  H19S 4035   2.778   5.200   8.215  0.0188 -0.6039  0.2131
   30SAPC  C220 4036   2.852   5.388   8.150 -0.0609 -0.2553  0.3739
   30SAPC  H20R 4037   2.823   5.439   8.244 -0.1136  0.5037 -0.0434
   30SAPC  H20S 4038   2.783   5.411   8.066 -0.4736  0.1709  0.8298
   30SAPC  H20T 4039   2.955   5.420   8.122  0.0281 -0.6987  0.1827
   30SAPC   C33 4040   2.114   5.396   6.922 -0.5450  0.0172  0.4663
   30SAPC   H3X 4041   2.222   5.421   6.917 -0.7841  0.8527 -1.8753
   30SAPC   H3Y 4042   2.100   5.322   7.004 -0.9914 -0.2619  0.1410
   30SAPC   C34 4043   2.035   5.521   6.967 -0.3095 -0.6512  0.1642
   30SAPC   H4X 4044   1.927   5.499   6.977 -0.9229  1.6383 -0.7075
   30SAPC   H4Y 4045   2.052   5.610   6.902 -0.0049 -0.2643  0.7684
   30SAPC   C35 4046   2.073   5.560   7.110  0.4243  0.6290 -0.8375
   30SAPC   H5X 4047   2.182   5.581   7.107 -0.1427  4.0364 -0.7210
   30SAPC   H5Y 4048   2.054   5.473   7.176  2.1648  0.6741 -0.2200
   30SAPC   C36 4049   1.997   5.678   7.179  0.8451 -0.2152 -0.2754
   30SAPC   H6X 4050   1.889   5.657   7.191  1.0993 -0.4896  2.0793
   30SAPC   H6Y 4051   2.008   5.774   7.123 -0.3417  1.0534  1.5489
   30SAPC   C37 4052   2.061   5.697   7.322 -0.1533 -0.8319 -0.0489
   30SAPC   H7X 4053   2.166   5.728   7.303 -0.3736  0.2618  0.4820
   30SAPC   H7Y 4054   2.058   5.598   7.373  2.1768 -2.0422 -1.9830
   30SAPC   C38 4055   2.002   5.805   7.412  0.2611  0.0407  0.5298
   30SAPC   H8X 4056   1.905   5.772   7.455  0.6946  0.2966  1.7325
   30SAPC   H8Y 4057   1.990   5.906   7.368  0.7149  0.8584  2.2014
   30SAPC   C39 4058   2.088   5.813   7.536  0.8630 -0.4066 -0.6404
   30SAPC   H9X 4059   2.053   5.905   7.588  1.4575 -0.6037  0.1353
   30SAPC   H9Y 4060   2.195   5.832   7.517  0.3486  1.1529 -2.2954
   30SAPC  C310 4061   2.064   5.693   7.637 -0.0960 -0.2972 -0.0948
   30SAPC  H10X 4062   2.148   5.622   7.621  0.2615 -0.3998  1.9839
   30SAPC  H10Y 4063   1.977   5.629   7.608  0.7070 -1.1005 -0.7720
   30SAPC  C311 4064   2.053   5.741   7.777  0.5859 -0.2364 -0.1504
   30SAPC  H11X 4065   1.971   5.817   7.779  1.7926  1.2147 -1.9710
   30SAPC  H11Y 4066   2.140   5.799   7.813  0.0687 -0.1082  0.9457
   30SAPC  C312 4067   2.012   5.630   7.873 -0.6537 -0.1195  0.1677
   30SAPC  H12X 4068   2.101   5.563   7.881  0.6420  1.5373  0.1490
   30SAPC  H12Y 4069   1.924   5.575   7.835 -1.0931  0.3629  0.4699
   30SAPC  C313 4070   1.999   5.678   8.018 -0.6829 -0.3324  0.2186
   30SAPC  H13X 4071   2.022   5.787   8.017  0.3544 -0.4340  2.9169
   30SAPC  H13Y 4072   2.070   5.639   8.095  1.2131  1.0378 -0.7430
   30SAPC  C314 4073   1.863   5.648   8.069  0.2036 -0.2684 -0.1679
   30SAPC  H14X 4074   1.865   5.543   8.106  0.4407  0.8925  3.4140
   30SAPC  H14Y 4075   1.785   5.654   7.990 -0.7907 -0.6185  0.7636
   30SAPC  C315 4076   1.834   5.716   8.199  0.1914 -0.1489 -0.6009
   30SAPC  H15X 4077   1.813   5.821   8.170  0.2030 -0.5375 -2.0473
   30SAPC  H15Y 4078   1.920   5.714   8.270  1.5052  1.7402 -2.0569
   30SAPC  C316 4079   1.708   5.657   8.274  0.5715 -0.7045 -0.6867
   30SAPC  H16X 4080   1.739   5.552   8.294 -0.1327 -0.9009 -0.6205
   30SAPC  H16Y 4081   1.626   5.674   8.201  0.1138 -0.8723 -0.2157
   30SAPC  C317 4082   1.667   5.723   8.408  0.3015  0.1003 -0.0223
   30SAPC  H17X 4083   1.678   5.834   8.400  1.2763 -0.0908 -2.4628
   30SAPC  H17Y 4084   1.734   5.693   8.491 -0.0298  0.8624  0.5252
   30SAPC  C318 4085   1.519   5.696   8.450 -0.1136 -0.2910  0.1420
   30SAPC  H18X 4086   1.501   5.761   8.538  1.4513  1.1745 -0.5626
   30SAPC  H18Y 4087   1.496   5.589   8.468 -1.4698 -0.0047  0.2504
   30SAPC  H18Z 4088   1.449   5.721   8.367 -1.1434 -2.5246  0.2667
   31SAPC     N 4089   4.513   4.498   6.112 -0.1047 -0.2001  0.0422
   31SAPC   C12 4090   4.500   4.528   6.263 -0.4613  0.0564  0.2297
   31SAPC  H12A 4091   4.592   4.490   6.304  0.8302  2.8214  0.1681
   31SAPC  H12B 4092   4.410   4.480   6.299 -0.9375  0.5310 -0.2976
   31SAPC   C13 4093   4.614   4.581   6.042  0.1791  0.2506  0.2122
   31SAPC  H13A 4094   4.709   4.568   6.091 -1.0358 -0.2724  2.6103
   31SAPC  H13B 4095   4.623   4.567   5.936  0.7543  3.6784 -0.3117
   31SAPC  H13C 4096   4.592   4.685   6.064 -0.6400  0.1194  0.0445
   31SAPC   C14 4097   4.551   4.358   6.088 -0.9916 -0.3423 -0.4999
   31SAPC  H14A 4098   4.562   4.335   5.983  0.1276 -1.2266 -0.2087
   31SAPC  H14B 4099   4.649   4.341   6.129 -1.0106  2.8790  1.2516
   31SAPC  H14C 4100   4.472   4.294   6.123 -2.2675  0.6656 -1.4045
   31SAPC   C15 4101   4.382   4.533   6.047  0.1132  0.0263 -0.2663
   31SAPC  H15A 4102   4.366   4.640   6.055  0.1886 -0.0171  0.5236
   31SAPC  H15B 4103   4.392   4.516   5.941  1.1604  1.4856 -0.4367
   31SAPC  H15C 4104   4.301   4.480   6.096  1.3583 -1.7972 -0.0915
   31SAPC   C11 4105   4.476   4.663   6.319 -0.0646  0.4086 -0.4707
   31SAPC  H11A 4106   4.459   4.664   6.428  3.9470 -1.6950  0.3799
   31SAPC  H11B 4107   4.386   4.698   6.263  0.0207  2.2310  0.4841
   31SAPC     P 4108   4.719   4.755   6.378  0.0998  0.2724 -0.1466
   31SAPC   O13 4109   4.748   4.616   6.422 -0.1266  0.3745 -0.4725
   31SAPC   O14 4110   4.830   4.824   6.300  0.0186  0.3125  0.2525
   31SAPC   O12 4111   4.589   4.755   6.295  0.1440 -0.2602 -0.1215
   31SAPC   O11 4112   4.683   4.832   6.503  0.2579  0.6797 -0.6652
   31SAPC    C1 4113   4.585   4.938   6.508  0.0368  0.1799  0.3080
   31SAPC    HA 4114   4.614   5.017   6.435  0.1682 -0.1767 -0.0307
   31SAPC    HB 4115   4.488   4.892   6.480  0.9509 -0.8125 -1.3814
   31SAPC    C2 4116   4.571   5.019   6.639 -0.4558  0.4970 -0.7574
   31SAPC    HS 4117   4.487   5.091   6.627 -1.2617 -0.2750  0.1294
   31SAPC   O21 4118   4.691   5.090   6.660 -0.0673  0.5562  0.5511
   31SAPC   C21 4119   4.686   5.220   6.677  0.3666  0.5143  1.2346
   31SAPC   O22 4120   4.586   5.289   6.673  0.1763  0.5572 -0.2186
   31SAPC   C22 4121   4.827   5.280   6.683 -0.4649  0.7096 -0.8125
   31SAPC   H2R 4122   4.900   5.210   6.638 -0.2245  1.1643 -1.1449
   31SAPC   H2S 4123   4.831   5.376   6.627 -0.8405  0.1660 -1.7981
   31SAPC    C3 4124   4.558   4.914   6.758 -0.1054 -0.5615  0.2005
   31SAPC    HX 4125   4.642   4.843   6.741  0.4558  0.4456 -1.5805
   31SAPC    HY 4126   4.458   4.867   6.753 -1.1757  1.3476  2.1485
   31SAPC   O31 4127   4.570   4.975   6.886  0.0611  0.1277 -0.6591
   31SAPC   C31 4128   4.460   5.008   6.957  0.3499 -0.7121 -1.1814
   31SAPC   O32 4129   4.342   4.997   6.917 -0.0562  0.2213  0.0464
   31SAPC   C32 4130   4.494   5.059   7.097  0.2477 -0.8640  0.4282
   31SAPC   H2X 4131   4.568   5.141   7.082 -0.6237  0.3712  2.3624
   31SAPC   H2Y 4132   4.543   4.970   7.142  0.0808 -0.5223  1.3075
   31SAPC   C23 4133   4.856   5.321   6.819 -0.5010 -0.5233 -0.1127
   31SAPC   H3R 4134   4.775   5.388   6.853  0.9872  3.0491 -3.0340
   31SAPC   H3S 4135   4.948   5.383   6.819  0.2602 -1.4123  3.0049
   31SAPC   C24 4136   4.888   5.213   6.923  0.0216  0.7031 -0.3387
   31SAPC   H4R 4137   4.989   5.171   6.905  0.4343  1.2181  0.6787
   31SAPC   H4S 4138   4.813   5.132   6.908 -0.0719  1.3176 -3.8293
   31SAPC   C25 4139   4.874   5.255   7.062  0.4389 -0.2086  0.2193
   31SAPC   H5R 4140   4.873   5.365   7.067  1.4701 -0.0712 -1.7122
   31SAPC   C26 4141   4.867   5.183   7.173 -0.3968  0.1504  0.5832
   31SAPC   H6R 4142   4.853   5.236   7.268  0.0907  1.0186  0.1804
   31SAPC   C27 4143   4.872   5.028   7.179  0.1122 -0.2515  0.8362
   31SAPC   H7R 4144   4.905   4.985   7.082  0.1761 -0.8797  1.1322
   31SAPC   H7S 4145   4.765   4.999   7.186 -0.1489  0.6803  0.8682
   31SAPC   C28 4146   4.955   4.975   7.293  0.2972 -0.7554  0.1458
   31SAPC   H8R 4147   5.063   4.985   7.279  0.6257 -0.0541  2.6677
   31SAPC   C29 4148   4.918   4.944   7.416 -0.0253  0.0232 -0.2407
   31SAPC   H9R 4149   4.992   4.897   7.482 -1.7558 -2.1164  0.3041
   31SAPC  C210 4150   4.777   4.933   7.463  0.0467  0.1060  0.0300
   31SAPC  H10R 4151   4.751   4.826   7.449 -1.2628  0.6015 -1.6005
   31SAPC  H10S 4152   4.705   4.996   7.407 -0.9871 -2.2409 -1.4170
   31SAPC  C211 4153   4.775   4.965   7.607 -0.2284 -0.7846 -0.4740
   31SAPC  H11R 4154   4.846   5.041   7.643  0.1444 -1.8581  1.1839
   31SAPC  C212 4155   4.696   4.910   7.702 -0.2152  0.8280 -0.1860
   31SAPC  H12R 4156   4.710   4.938   7.808  1.1635  0.8094 -0.3476
   31SAPC  C213 4157   4.589   4.805   7.692 -0.6809 -0.0404  0.2451
   31SAPC  H13R 4158   4.613   4.734   7.774  2.3980  1.1649  0.5451
   31SAPC  H13S 4159   4.611   4.761   7.592 -0.0632  0.3169  0.2164
   31SAPC  C214 4160   4.455   4.864   7.697 -0.1240 -0.2515 -0.0429
   31SAPC  H14R 4161   4.451   4.950   7.766  1.4944  0.8114 -1.1871
   31SAPC  C215 4162   4.343   4.832   7.626  0.4653  0.3525  0.1028
   31SAPC  H15R 4163   4.252   4.893   7.640 -0.4441 -0.8124 -0.5252
   31SAPC  C216 4164   4.332   4.725   7.524  0.1604 -0.6323  0.5067
   31SAPC  H16R 4165   4.248   4.657   7.551  0.1590 -1.1632 -0.7618
   31SAPC  H16S 4166   4.423   4.666   7.503 -0.2284 -1.1733  0.3201
   31SAPC  C217 4167   4.277   4.777   7.385  0.3205  0.3980 -0.3200
   31SAPC  H17R 4168   4.354   4.828   7.324  2.8611 -2.1493  0.5341
   31SAPC  H17S 4169   4.185   4.838   7.401  0.6563  0.7870  0.1591
   31SAPC  C218 4170   4.230   4.651   7.305 -0.0890  0.0532 -0.2370
   31SAPC  H18R 4171   4.208   4.570   7.378  0.7410 -1.1476 -1.3006
   31SAPC  H18S 4172   4.306   4.609   7.237 -0.3326 -1.3363  0.3032
   31SAPC  C219 4173   4.095   4.669   7.242 -0.1274  0.6295  0.2423
   31SAPC  H19R 4174   4.097   4.762   7.181 -1.7758  1.3629  1.2193
   31SAPC  H19S 4175   4.010   4.671   7.314 -1.8571  1.8843 -1.7245
   31SAPC  C220 4176   4.056   4.551   7.148 -0.3486 -0.0477  0.1429
   31SAPC  H20R 4177   3.982   4.576   7.069  0.6177 -1.2389 -1.1826
   31SAPC  H20S 4178   4.034   4.467   7.217 -0.3890 -0.8785 -0.8710
   31SAPC  H20T 4179   4.149   4.533   7.091  0.1596  2.9247 -0.1532
   31SAPC   C33 4180   4.384   5.105   7.202  0.2253 -0.6088  0.3714
   31SAPC   H3X 4181   4.292   5.043   7.196 -0.0038 -0.3517  1.1659
   31SAPC   H3Y 4182   4.339   5.202   7.172  0.2508 -1.0338 -1.1749
   31SAPC   C34 4183   4.434   5.121   7.343  0.4113  0.0514 -0.0898
   31SAPC   H4X 4184   4.497   5.037   7.380  2.2737  0.9326 -1.1503
   31SAPC   H4Y 4185   4.346   5.121   7.411  0.6726 -1.2150  0.2855
   31SAPC   C35 4186   4.515   5.243   7.364 -0.6315  0.0801  0.1013
   31SAPC   H5X 4187   4.447   5.322   7.326  0.7860  0.3960 -1.9994
   31SAPC   H5Y 4188   4.601   5.249   7.293 -0.2730 -2.1699  0.2497
   31SAPC   C36 4189   4.549   5.264   7.513  0.2033 -0.0511 -0.0977
   31SAPC   H6X 4190   4.613   5.178   7.542  1.4547  0.8493 -0.1098
   31SAPC   H6Y 4191   4.462   5.268   7.582  1.3133  2.4261  1.2606
   31SAPC   C37 4192   4.636   5.384   7.533  0.4930 -0.2818  0.3187
   31SAPC   H7X 4193   4.568   5.473   7.532 -0.3680 -0.9194  0.4177
   31SAPC   H7Y 4194   4.692   5.388   7.437 -1.1242  0.7193 -0.6519
   31SAPC   C38 4195   4.729   5.384   7.655 -0.8343  0.1377  0.1206
   31SAPC   H8X 4196   4.790   5.476   7.649 -1.7510  0.8008  0.6586
   31SAPC   H8Y 4197   4.779   5.285   7.658  0.0101  0.5018 -1.1588
   31SAPC   C39 4198   4.649   5.401   7.783 -0.1443  0.1849 -0.2651
   31SAPC   H9X 4199   4.590   5.307   7.784 -0.3271  0.2999  1.0862
   31SAPC   H9Y 4200   4.589   5.494   7.795 -1.1472 -0.3232 -1.1724
   31SAPC  C310 4201   4.737   5.406   7.900  0.1026  0.4787  0.3660
   31SAPC  H10X 4202   4.808   5.491   7.900  0.2819  0.3704 -1.1411
   31SAPC  H10Y 4203   4.810   5.323   7.888 -0.2760  0.1493  0.3007
   31SAPC  C311 4204   4.661   5.378   8.028 -0.0293 -0.0314 -0.3208
   31SAPC  H11X 4205   4.729   5.355   8.113  0.2883 -0.4015 -0.6702
   31SAPC  H11Y 4206   4.580   5.302   8.028 -2.3630  2.2898 -1.9777
   31SAPC  C312 4207   4.575   5.504   8.070  0.0694  0.7375  0.0336
   31SAPC  H12X 4208   4.494   5.507   7.994 -0.6695 -0.7585  0.7191
   31SAPC  H12Y 4209   4.653   5.583   8.064  0.2156  0.7041  1.1877
   31SAPC  C313 4210   4.502   5.505   8.204  0.7458  0.2580 -0.3074
   31SAPC  H13X 4211   4.463   5.606   8.227 -0.7763 -0.1589 -0.9325
   31SAPC  H13Y 4212   4.581   5.490   8.281  1.5116  1.5220 -0.8255
   31SAPC  C314 4213   4.400   5.401   8.220 -0.4637  0.1523  0.7250
   31SAPC  H14X 4214   4.450   5.302   8.228 -0.6883  0.2050  3.7677
   31SAPC  H14Y 4215   4.328   5.408   8.136 -2.8248 -0.6726  2.5548
   31SAPC  C315 4216   4.308   5.414   8.340  0.4727  0.2796  0.1532
   31SAPC  H15X 4217   4.228   5.338   8.326 -0.6785  1.6170 -0.8449
   31SAPC  H15Y 4218   4.250   5.508   8.352 -0.6670 -0.6462  2.5906
   31SAPC  C316 4219   4.353   5.385   8.481  0.0236 -0.1224 -0.2133
   31SAPC  H16X 4220   4.420   5.465   8.520  1.4602 -1.2072 -0.3893
   31SAPC  H16Y 4221   4.404   5.287   8.488 -0.1589 -0.1164  1.7999
   31SAPC  C317 4222   4.229   5.383   8.573  0.0198 -0.1051 -0.1589
   31SAPC  H17X 4223   4.248   5.323   8.664  0.8518  0.7603  0.2574
   31SAPC  H17Y 4224   4.140   5.335   8.527 -0.5119  1.1644 -0.5044
   31SAPC  C318 4225   4.189   5.531   8.610  0.2591  0.6224 -0.0064
   31SAPC  H18X 4226   4.262   5.563   8.687  0.1269 -2.5247  1.6200
   31SAPC  H18Y 4227   4.094   5.541   8.666  1.7109  2.1023  2.3308
   31SAPC  H18Z 4228   4.196   5.599   8.523  0.7817 -1.7878 -1.9623
   32SAPC     N 4229   4.648   6.614   6.005  0.1928  0.3315  0.7148
   32SAPC   C12 4230   4.539   6.570   5.906 -0.4011 -0.8261 -0.4164
   32SAPC  H12A 4231   4.580   6.574   5.806 -2.2490  1.3067 -1.1680
   32SAPC  H12B 4232   4.457   6.640   5.910 -0.0031 -0.3775 -0.1096
   32SAPC   C13 4233   4.593   6.628   6.145  0.3332  0.2831  0.3527
   32SAPC  H13A 4234   4.500   6.682   6.139 -0.6817 -1.3718  0.5496
   32SAPC  H13B 4235   4.586   6.534   6.197  2.1747 -0.1411 -0.1030
   32SAPC  H13C 4236   4.662   6.691   6.198  1.9850 -0.9054 -0.3104
   32SAPC   C14 4237   4.759   6.511   6.000  0.4453 -0.6371  0.4788
   32SAPC  H14A 4238   4.849   6.543   6.050  1.8109  1.8367 -3.1034
   32SAPC  H14B 4239   4.724   6.422   6.051 -1.4274 -0.3020 -0.1238
   32SAPC  H14C 4240   4.780   6.491   5.896 -0.6830  2.8220 -0.5733
   32SAPC   C15 4241   4.704   6.745   5.962 -0.1017  0.5633  0.6722
   32SAPC  H15A 4242   4.740   6.743   5.860 -1.6290 -0.2406  0.1220
   32SAPC  H15B 4243   4.620   6.811   5.977 -1.6572 -1.1931  0.2027
   32SAPC  H15C 4244   4.791   6.779   6.015 -0.1903  0.1821  1.0666
   32SAPC   C11 4245   4.466   6.435   5.929 -0.6827  0.0345 -0.4737
   32SAPC  H11A 4246   4.546   6.359   5.946 -2.4985 -1.8443  0.0463
   32SAPC  H11B 4247   4.420   6.394   5.837 -0.0053 -1.1335 -0.3127
   32SAPC     P 4248   4.228   6.498   6.033  0.2644 -0.0731  0.3739
   32SAPC   O13 4249   4.232   6.622   5.951  0.2027  0.5552 -0.3634
   32SAPC   O14 4250   4.117   6.404   5.991  0.1047  0.0025  0.5608
   32SAPC   O12 4251   4.373   6.431   6.042 -0.1917  0.0957 -0.8853
   32SAPC   O11 4252   4.189   6.542   6.179  0.3318 -0.4059  0.3909
   32SAPC    C1 4253   4.190   6.454   6.287 -0.2077  0.5185  0.4945
   32SAPC    HA 4254   4.090   6.409   6.301 -1.1608  1.8052 -1.7299
   32SAPC    HB 4255   4.265   6.374   6.269 -2.1182 -1.1819 -0.2948
   32SAPC    C2 4256   4.232   6.524   6.419 -0.2662  0.3051  0.2429
   32SAPC    HS 4257   4.155   6.599   6.445  0.2565  0.8314  0.2995
   32SAPC   O21 4258   4.361   6.585   6.410  0.8652 -0.1553 -0.2611
   32SAPC   C21 4259   4.390   6.689   6.470 -0.0978 -0.4408  0.2849
   32SAPC   O22 4260   4.318   6.767   6.530 -0.2601  0.0453 -0.0184
   32SAPC   C22 4261   4.536   6.712   6.451 -0.5421 -1.0842  0.4027
   32SAPC   H2R 4262   4.587   6.619   6.418 -1.0758 -2.1373  2.3531
   32SAPC   H2S 4263   4.544   6.782   6.366 -0.1139  0.2325  1.4933
   32SAPC    C3 4264   4.228   6.428   6.541 -0.6904  0.9634  0.2012
   32SAPC    HX 4265   4.315   6.361   6.525 -0.8815  0.6348  0.5142
   32SAPC    HY 4266   4.133   6.370   6.539 -0.1602  0.1013 -1.3200
   32SAPC   O31 4267   4.256   6.491   6.663 -0.0564 -0.7254 -0.4675
   32SAPC   C31 4268   4.158   6.562   6.715 -0.5704 -0.0516  0.4433
   32SAPC   O32 4269   4.046   6.574   6.668  0.3644 -0.0807 -0.2854
   32SAPC   C32 4270   4.205   6.621   6.853 -0.5600 -0.2161  0.1994
   32SAPC   H2X 4271   4.221   6.731   6.845  1.7697 -0.4320  1.1555
   32SAPC   H2Y 4272   4.304   6.576   6.876 -1.1455 -2.0227 -0.6756
   32SAPC   C23 4273   4.598   6.766   6.582  1.0504  0.3594 -0.2473
   32SAPC   H3R 4274   4.527   6.791   6.663 -2.4613 -1.9169 -2.3626
   32SAPC   H3S 4275   4.649   6.861   6.556 -0.0510  0.2990 -3.0010
   32SAPC   C24 4276   4.692   6.664   6.640 -0.6666  0.1282 -0.5010
   32SAPC   H4R 4277   4.738   6.728   6.718 -0.5099  0.6863 -1.0487
   32SAPC   H4S 4278   4.766   6.632   6.564 -1.4799 -3.2112 -0.0610
   32SAPC   C25 4279   4.629   6.541   6.702  0.0830  0.1700  0.3282
   32SAPC   H5R 4280   4.595   6.472   6.623  0.8819 -3.8695  3.1710
   32SAPC   C26 4281   4.599   6.530   6.835  0.1594  0.4965  0.4488
   32SAPC   H6R 4282   4.540   6.443   6.868 -0.0934 -0.0245 -1.2858
   32SAPC   C27 4283   4.621   6.628   6.944  0.3804 -0.2167  0.5003
   32SAPC   H7R 4284   4.539   6.616   7.018  1.6821 -1.3404  1.8113
   32SAPC   H7S 4285   4.605   6.728   6.897 -0.6510  0.2062  1.6825
   32SAPC   C28 4286   4.763   6.643   7.000  0.6544  0.0262  0.2025
   32SAPC   H8R 4287   4.839   6.617   6.926  0.7782  0.1096  0.2997
   32SAPC   C29 4288   4.794   6.659   7.128 -0.3683 -0.2569 -0.1575
   32SAPC   H9R 4289   4.899   6.641   7.157  0.0160  1.1792 -0.6020
   32SAPC  C210 4290   4.692   6.675   7.241 -0.0752  0.2206 -0.2349
   32SAPC  H10R 4291   4.733   6.630   7.334 -0.4097 -1.9108 -1.0421
   32SAPC  H10S 4292   4.594   6.627   7.219  0.2670 -1.1970  1.1389
   32SAPC  C211 4293   4.661   6.823   7.259  0.6034 -0.2574 -0.2955
   32SAPC  H11R 4294   4.652   6.871   7.161 -1.8696 -1.6656 -0.8693
   32SAPC  C212 4295   4.638   6.883   7.382 -0.4717 -0.5172 -0.7012
   32SAPC  H12R 4296   4.621   6.992   7.389  1.8127 -0.1903  1.0593
   32SAPC  C213 4297   4.650   6.814   7.513 -0.1505  0.1140 -0.2707
   32SAPC  H13R 4298   4.672   6.895   7.586  0.4473  0.0792 -0.4032
   32SAPC  H13S 4299   4.737   6.745   7.517 -1.2816 -1.2817  1.3964
   32SAPC  C214 4300   4.530   6.723   7.555  0.4630 -0.3655 -0.0061
   32SAPC  H14R 4301   4.486   6.663   7.474  0.2496 -1.5650  0.9769
   32SAPC  C215 4302   4.459   6.737   7.670  0.2986 -0.4332  0.3181
   32SAPC  H15R 4303   4.383   6.663   7.698  0.7053 -1.1180 -0.3553
   32SAPC  C216 4304   4.498   6.832   7.784 -1.0644  0.5813  0.0876
   32SAPC  H16R 4305   4.412   6.902   7.781 -0.3757  1.5864  1.9753
   32SAPC  H16S 4306   4.580   6.903   7.760 -1.6439  1.0229 -0.6035
   32SAPC  C217 4307   4.514   6.779   7.924  0.2074 -0.1785  0.4098
   32SAPC  H17R 4308   4.432   6.709   7.950 -1.3205  0.5327 -2.0994
   32SAPC  H17S 4309   4.490   6.871   7.982  1.1285 -0.5185  1.3559
   32SAPC  C218 4310   4.647   6.728   7.961 -0.4421 -0.0842 -0.4551
   32SAPC  H18R 4311   4.721   6.808   7.939 -0.6749  0.0233 -0.8475
   32SAPC  H18S 4312   4.653   6.632   7.906  1.7303  0.5843 -1.5117
   32SAPC  C219 4313   4.675   6.690   8.108  0.2085 -0.7349  0.5729
   32SAPC  H19R 4314   4.782   6.659   8.114  0.0571 -1.3030  0.3445
   32SAPC  H19S 4315   4.623   6.596   8.136  2.5819 -3.1437 -2.2945
   32SAPC  C220 4316   4.642   6.799   8.214  0.1995  0.7215 -0.4732
   32SAPC  H20R 4317   4.677   6.748   8.306 -1.8099 -1.7849 -0.9906
   32SAPC  H20S 4318   4.533   6.818   8.222  0.2599  0.5152  1.0746
   32SAPC  H20T 4319   4.696   6.891   8.186 -0.3265  0.5839 -2.0928
   32SAPC   C33 4320   4.106   6.595   6.971 -0.1513 -0.5625  0.0245
   32SAPC   H3X 4321   4.078   6.489   6.985 -0.0867 -0.3175  2.4493
   32SAPC   H3Y 4322   4.014   6.646   6.936  1.4439  0.5483 -2.8905
   32SAPC   C34 4323   4.152   6.658   7.103 -0.1483 -0.4691 -0.2256
   32SAPC   H4X 4324   4.166   6.766   7.079 -2.0868  0.1449  1.1776
   32SAPC   H4Y 4325   4.250   6.612   7.131  0.0867 -0.0328 -0.3138
   32SAPC   C35 4326   4.046   6.647   7.210 -0.2088  0.2749  0.0129
   32SAPC   H5X 4327   4.021   6.539   7.221 -4.9537  0.9866 -1.5257
   32SAPC   H5Y 4328   3.952   6.696   7.177 -1.7580 -1.1903  1.9651
   32SAPC   C36 4329   4.095   6.696   7.343 -1.1389 -0.5773  0.4104
   32SAPC   H6X 4330   4.107   6.806   7.331  1.8510 -0.6675  1.6610
   32SAPC   H6Y 4331   4.197   6.661   7.368 -0.3166  1.4855  0.1653
   32SAPC   C37 4332   4.010   6.674   7.468  0.3906 -0.2688 -0.1522
   32SAPC   H7X 4333   3.965   6.573   7.461 -0.3783  0.1496 -2.0994
   32SAPC   H7Y 4334   3.938   6.759   7.460 -0.6541 -1.1603 -0.4217
   32SAPC   C38 4335   4.087   6.695   7.596 -0.3994  0.4584 -1.0687
   32SAPC   H8X 4336   4.146   6.789   7.590  2.2679 -1.1148 -1.0684
   32SAPC   H8Y 4337   4.170   6.621   7.596  0.6337  1.5701 -2.0995
   32SAPC   C39 4338   3.997   6.689   7.721  0.0824  0.2162  0.5578
   32SAPC   H9X 4339   3.945   6.591   7.731 -0.4878  0.5279  0.6990
   32SAPC   H9Y 4340   3.914   6.759   7.696 -1.8553 -1.5628  1.7008
   32SAPC  C310 4341   4.074   6.729   7.842  0.6667 -0.2788 -0.3146
   32SAPC  H10X 4342   4.133   6.820   7.818  0.0610  0.3869  0.6278
   32SAPC  H10Y 4343   4.146   6.647   7.865 -1.0439 -1.6495  0.3658
   32SAPC  C311 4344   3.978   6.744   7.960  0.0447 -0.1763  0.2235
   32SAPC  H11X 4345   3.910   6.657   7.970  1.3554 -1.1782  0.6345
   32SAPC  H11Y 4346   3.917   6.836   7.945  1.2297  0.8464  1.3838
   32SAPC  C312 4347   4.052   6.743   8.094  0.1239  0.0600  1.2913
   32SAPC  H12X 4348   4.158   6.775   8.084  0.5571 -1.4021  0.9559
   32SAPC  H12Y 4349   4.051   6.644   8.146  1.0161  0.1070  1.4164
   32SAPC  C313 4350   3.987   6.820   8.202 -0.4608  0.2479 -0.2539
   32SAPC  H13X 4351   3.890   6.779   8.239 -0.9033  1.3865 -0.1082
   32SAPC  H13Y 4352   3.961   6.921   8.162 -1.0009 -0.4647 -1.7481
   32SAPC  C314 4353   4.074   6.833   8.332 -0.1523 -0.2402  0.3705
   32SAPC  H14X 4354   4.117   6.733   8.355 -0.7374 -0.8149 -0.9275
   32SAPC  H14Y 4355   4.019   6.848   8.428  0.1367  0.7893  0.3781
   32SAPC  C315 4356   4.185   6.933   8.310  0.0305  0.6592  0.0655
   32SAPC  H15X 4357   4.147   7.036   8.296 -0.3381  0.5939  0.5427
   32SAPC  H15Y 4358   4.248   6.900   8.225 -0.3067  0.1956 -0.0092
   32SAPC  C316 4359   4.292   6.945   8.421 -0.0503  0.3328 -1.2474
   32SAPC  H16X 4360   4.339   6.846   8.441 -2.0611 -0.3664  0.3890
   32SAPC  H16Y 4361   4.239   6.970   8.515  3.6896  1.1240  0.8330
   32SAPC  C317 4362   4.396   7.051   8.382  0.1616 -0.3924 -0.2526
   32SAPC  H17X 4363   4.360   7.156   8.392  0.7114 -0.3816  2.4687
   32SAPC  H17Y 4364   4.426   7.041   8.276  0.8951 -0.0281 -0.0865
   32SAPC  C318 4365   4.518   7.037   8.470 -0.3047  0.2014 -0.1287
   32SAPC  H18X 4366   4.568   7.136   8.462  0.2771 -0.1348 -0.7703
   32SAPC  H18Y 4367   4.582   6.956   8.430  0.2190  0.5365  0.0242
   32SAPC  H18Z 4368   4.484   7.009   8.572  1.0896 -1.9525 -0.2040
   33POPC     N 4369   3.185   3.328  10.729  0.4330  0.3008 -0.5544
   33POPC   C12 4370   3.085   3.222  10.680  0.0568  0.4568 -0.3920
   33POPC  H12A 4371   2.982   3.255  10.686  0.2379  1.2264 -1.2934
   33POPC  H12B 4372   3.085   3.147  10.758 -2.0572  1.6390  0.8475
   33POPC   C13 4373   3.138   3.382  10.862 -0.2847 -1.3023 -0.0883
   33POPC  H13A 4374   3.055   3.451  10.858  0.2507 -0.5337  1.3402
   33POPC  H13B 4375   3.112   3.300  10.926  0.3885  0.4581  2.6081
   33POPC  H13C 4376   3.214   3.442  10.910 -0.3348 -0.3344 -1.1797
   33POPC   C14 4377   3.316   3.260  10.753  0.2370  0.5796 -0.9190
   33POPC  H14A 4378   3.388   3.339  10.768 -1.2645  1.7470  0.5770
   33POPC  H14B 4379   3.316   3.192  10.836  2.1573 -0.0636 -1.3820
   33POPC  H14C 4380   3.357   3.204  10.670 -0.2202 -0.3651 -0.5304
   33POPC   C15 4381   3.225   3.428  10.628  0.1776  0.3430  0.1822
   33POPC  H15A 4382   3.297   3.503  10.655 -0.0450 -0.1113  2.2001
   33POPC  H15B 4383   3.139   3.488  10.600  0.4154  1.0806  0.9950
   33POPC  H15C 4384   3.233   3.376  10.533 -3.7889  0.2127 -0.2595
   33POPC   C11 4385   3.108   3.155  10.545  0.3232 -0.0373 -0.3878
   33POPC  H11A 4386   3.044   3.067  10.526  0.5245 -0.5519  1.2292
   33POPC  H11B 4387   3.207   3.103  10.547  1.3729  1.8289 -1.0922
   33POPC     P 4388   2.962   3.330  10.428 -0.2077 -0.2416 -0.2225
   33POPC   O13 4389   2.986   3.473  10.477 -0.1425  0.2494  0.1613
   33POPC   O14 4390   2.865   3.246  10.503  0.0714 -0.2152 -0.4119
   33POPC   O12 4391   3.099   3.248  10.432  0.3878 -0.1717  0.5962
   33POPC   O11 4392   2.923   3.334  10.281 -0.4715  0.5038  0.5678
   33POPC    C1 4393   3.003   3.288  10.165  0.0347  0.3595 -0.5847
   33POPC    HA 4394   3.105   3.334  10.165  0.7212 -1.0843 -1.5373
   33POPC    HB 4395   3.016   3.178  10.177  0.7861  0.4423 -0.5666
   33POPC    C2 4396   2.941   3.318  10.036  0.8324 -0.0574  0.1639
   33POPC    HS 4397   3.007   3.259   9.969 -0.4714 -1.9326  0.4588
   33POPC   O21 4398   2.930   3.458   9.998  0.3694 -0.4039 -0.2370
   33POPC   C21 4399   3.046   3.518   9.969 -0.5369 -0.2061  0.1434
   33POPC   O22 4400   3.155   3.464   9.956  0.1972 -0.0469 -0.1578
   33POPC   C22 4401   3.029   3.665   9.958 -0.2938 -0.0707 -0.4066
   33POPC   H2R 4402   2.993   3.695  10.059 -1.6652 -1.5038 -0.4351
   33POPC   H2S 4403   2.952   3.676   9.880  0.4012  2.3750 -0.8082
   33POPC    C3 4404   2.803   3.254  10.033  0.1548 -0.3738  0.5876
   33POPC    HX 4405   2.757   3.275   9.935 -1.1335 -1.4333  0.9276
   33POPC    HY 4406   2.741   3.307  10.109 -0.7474 -0.4141 -0.1162
   33POPC   O31 4407   2.816   3.116  10.057 -0.0979 -0.2072  0.7108
   33POPC   C31 4408   2.707   3.048  10.043  0.1936 -0.2368 -0.3554
   33POPC   O32 4409   2.598   3.096  10.015 -0.1260  0.1318 -0.1295
   33POPC   C32 4410   2.741   2.906  10.098  0.0225  0.1083 -0.0439
   33POPC   H2X 4411   2.662   2.868  10.166 -1.9798  1.4060 -1.5426
   33POPC   H2Y 4412   2.838   2.895  10.151 -1.9834 -0.1683  3.9439
   33POPC   C23 4413   3.144   3.755   9.929 -0.1408  0.2055  0.3548
   33POPC   H3R 4414   3.235   3.718   9.981 -1.4993 -2.7934  0.8308
   33POPC   H3S 4415   3.134   3.862   9.956  1.3507  0.9938 -1.8872
   33POPC   C24 4416   3.185   3.756   9.780 -0.4907  0.6603  0.0344
   33POPC   H4R 4417   3.092   3.783   9.726 -0.6746 -0.5573 -0.2860
   33POPC   H4S 4418   3.203   3.652   9.744 -2.1071  0.4024 -0.0979
   33POPC   C25 4419   3.294   3.851   9.733 -0.3354  0.3595 -0.6724
   33POPC   H5R 4420   3.386   3.790   9.748 -2.0189 -1.8213  1.4274
   33POPC   H5S 4421   3.297   3.938   9.802  2.2783  0.0512 -0.2810
   33POPC   C26 4422   3.276   3.881   9.578 -0.6633  0.7001 -0.6889
   33POPC   H6R 4423   3.369   3.932   9.545  0.5139  0.1263  1.5556
   33POPC   H6S 4424   3.199   3.961   9.569  2.2592  3.8092 -0.2006
   33POPC   C27 4425   3.263   3.755   9.490  0.7511  0.1135  0.3774
   33POPC   H7R 4426   3.182   3.688   9.525  1.9527 -1.1389  0.8553
   33POPC   H7S 4427   3.359   3.700   9.488  2.1370  2.4121 -0.2827
   33POPC   C28 4428   3.238   3.796   9.342  0.2080  0.0973  0.9947
   33POPC   H8R 4429   3.335   3.818   9.293 -0.9085 -1.3851 -2.2013
   33POPC   H8S 4430   3.180   3.891   9.343 -0.7766 -0.4871  0.7551
   33POPC   C29 4431   3.148   3.694   9.268 -0.7695  0.2220 -0.0986
   33POPC   H91 4432   3.044   3.697   9.304 -0.3683  3.1044  1.1018
   33POPC  C210 4433   3.175   3.595   9.177  0.4129  0.2732 -0.1362
   33POPC  H101 4434   3.093   3.545   9.123 -0.0992 -0.0343  0.8923
   33POPC  C211 4435   3.314   3.555   9.126 -0.5426  0.4604 -0.8711
   33POPC  H11R 4436   3.327   3.448   9.153 -1.4681  0.2959 -1.0333
   33POPC  H11S 4437   3.392   3.618   9.174  0.6307 -1.6793  0.1257
   33POPC  C212 4438   3.330   3.587   8.974 -0.1871 -0.1990  0.5973
   33POPC  H12R 4439   3.437   3.573   8.951 -0.7103 -2.2854 -0.8772
   33POPC  H12S 4440   3.296   3.689   8.945  0.6192 -0.2092 -0.4211
   33POPC  C213 4441   3.261   3.476   8.886 -0.2071 -1.0902 -0.6181
   33POPC  H13R 4442   3.156   3.464   8.922 -0.0149  0.2589  0.4619
   33POPC  H13S 4443   3.313   3.380   8.900  1.4492 -0.1746 -0.2552
   33POPC  C214 4444   3.275   3.504   8.741  0.4657  0.8746 -0.1285
   33POPC  H14R 4445   3.300   3.611   8.725 -0.4417  1.4585  2.0460
   33POPC  H14S 4446   3.171   3.493   8.703 -0.2621  0.3746  1.8596
   33POPC  C215 4447   3.373   3.413   8.665  0.7651 -0.1212 -0.4051
   33POPC  H15R 4448   3.347   3.305   8.666 -1.6620  0.4210 -0.5492
   33POPC  H15S 4449   3.477   3.409   8.706  0.5775 -1.0650 -0.0060
   33POPC  C216 4450   3.379   3.443   8.516  0.2430 -0.0454 -0.1717
   33POPC  H16R 4451   3.445   3.362   8.477  3.2470  1.2434  1.7907
   33POPC  H16S 4452   3.438   3.537   8.505 -0.0035  0.6724  3.4276
   33POPC  C217 4453   3.243   3.471   8.449 -0.3163 -0.2261 -0.2655
   33POPC  H17R 4454   3.224   3.578   8.470  2.4313  0.8362 -2.5441
   33POPC  H17S 4455   3.172   3.406   8.504 -0.7334  0.2136 -0.2815
   33POPC  C218 4456   3.241   3.455   8.297  0.1084 -0.0169  0.7033
   33POPC  H18R 4457   3.323   3.500   8.237  0.1821 -1.9082 -0.7228
   33POPC  H18S 4458   3.153   3.509   8.255 -0.3706 -2.1168 -1.2025
   33POPC  H18T 4459   3.237   3.347   8.269  1.6082  0.1256 -0.1537
   33POPC   C33 4460   2.742   2.801   9.982  0.0384 -0.3412 -0.4599
   33POPC   H3X 4461   2.642   2.786   9.936 -1.0047  0.9089  1.2887
   33POPC   H3Y 4462   2.766   2.703  10.028  0.6550 -0.0340 -0.1151
   33POPC   C34 4463   2.844   2.836   9.890 -0.0472 -0.1827  0.2441
   33POPC   H4X 4464   2.942   2.840   9.942 -0.0605  3.3641  0.2623
   33POPC   H4Y 4465   2.830   2.931   9.834 -2.2785 -1.6660 -1.9375
   33POPC   C35 4466   2.869   2.726   9.782  0.0123  0.1358  0.5197
   33POPC   H5X 4467   2.786   2.711   9.709  0.1877 -1.9507  0.6915
   33POPC   H5Y 4468   2.874   2.631   9.841  1.9265 -0.9895 -1.3372
   33POPC   C36 4469   2.984   2.760   9.685 -0.3618 -0.3889  0.1372
   33POPC   H6X 4470   3.075   2.771   9.748  0.1959 -1.2409 -0.4976
   33POPC   H6Y 4471   2.978   2.851   9.622 -2.0640 -1.7568 -1.8015
   33POPC   C37 4472   3.020   2.634   9.600 -0.1362  0.1175 -0.6676
   33POPC   H7X 4473   3.074   2.563   9.667 -0.8942  1.1463  1.1193
   33POPC   H7Y 4474   3.091   2.666   9.521  1.6686 -0.4348  0.6625
   33POPC   C38 4475   2.903   2.554   9.542  0.7185 -0.0811  0.0436
   33POPC   H8X 4476   2.841   2.624   9.482  1.3080  0.5624  0.1601
   33POPC   H8Y 4477   2.843   2.514   9.627  1.2099 -0.5334  0.1821
   33POPC   C39 4478   2.953   2.431   9.459  0.1939 -0.5262 -0.5363
   33POPC   H9X 4479   2.990   2.356   9.531 -2.5223 -2.1737 -0.7070
   33POPC   H9Y 4480   3.037   2.469   9.398  2.2991 -0.6135  2.1326
   33POPC  C310 4481   2.848   2.362   9.381  0.2046 -0.4902  0.5890
   33POPC  H10X 4482   2.757   2.341   9.442 -1.0276 -0.1823 -1.0814
   33POPC  H10Y 4483   2.892   2.265   9.350  0.6384 -0.6001  1.5014
   33POPC  C311 4484   2.797   2.426   9.256  0.1854 -0.3738  0.5477
   33POPC  H11X 4485   2.828   2.532   9.266 -0.5857 -0.2261  1.4270
   33POPC  H11Y 4486   2.687   2.432   9.263  0.3109  0.3256  2.4240
   33POPC  C312 4487   2.861   2.355   9.130  0.2857  0.4245  0.7555
   33POPC  H12X 4488   2.846   2.245   9.137  0.3594  0.4591  1.6711
   33POPC  H12Y 4489   2.972   2.362   9.129  0.2837  0.4844  0.9200
   33POPC  C313 4490   2.824   2.411   8.991  0.2978  0.7848  0.5325
   33POPC  H13X 4491   2.814   2.522   8.997 -2.1242  0.7240 -1.0866
   33POPC  H13Y 4492   2.718   2.386   8.971 -0.1650  2.1005  1.2487
   33POPC  C314 4493   2.927   2.366   8.881 -0.2349  0.2927  0.1263
   33POPC  H14X 4494   2.934   2.256   8.878  1.1588  0.2890  1.7965
   33POPC  H14Y 4495   3.029   2.397   8.914  1.4688 -0.0331 -4.1962
   33POPC  C315 4496   2.921   2.429   8.743  0.0634 -0.0993  0.5569
   33POPC  H15X 4497   3.016   2.405   8.689  2.8220  1.5866  4.1938
   33POPC  H15Y 4498   2.903   2.539   8.749 -1.6325 -0.4181  1.7273
   33POPC  C316 4499   2.803   2.372   8.664 -0.8011  0.3627 -0.0323
   33POPC  H16X 4500   2.770   2.448   8.590  1.5269  1.1939 -0.3138
   33POPC  H16Y 4501   2.725   2.343   8.737 -0.5428 -0.0319  0.0854
   33POPC  H16Z 4502   2.841   2.287   8.603 -0.5916 -1.0657  2.0002
   34POPC     N 4503   4.943   4.072  10.701 -0.4707 -0.0631 -0.5073
   34POPC   C12 4504   4.915   4.105  10.560 -0.2275 -0.6856 -0.1111
   34POPC  H12A 4505   4.884   4.015  10.509 -0.0595 -0.2786 -0.9529
   34POPC  H12B 4506   5.008   4.134  10.513 -0.2597 -0.4534 -0.0333
   34POPC   C13 4507   5.049   3.968  10.716  0.5543 -0.9896  0.1297
   34POPC  H13A 4508   5.138   3.994  10.660  0.0090 -0.4432 -0.5004
   34POPC  H13B 4509   5.075   3.937  10.816  0.3157 -1.5135  0.0353
   34POPC  H13C 4510   5.011   3.880  10.665  0.5611 -1.7459  1.4012
   34POPC   C14 4511   4.998   4.194  10.765  0.3428  0.6370 -0.4450
   34POPC  H14A 4512   5.095   4.214  10.723 -0.1092  1.0108 -1.3486
   34POPC  H14B 4513   4.931   4.275  10.739  1.1149  1.3516 -0.2194
   34POPC  H14C 4514   5.011   4.183  10.872  1.2628  1.7200 -0.4342
   34POPC   C15 4515   4.823   4.021  10.765 -0.1797  0.4812  0.0906
   34POPC  H15A 4516   4.776   3.932  10.727  0.0491  0.7594 -0.8799
   34POPC  H15B 4517   4.749   4.099  10.756  0.9247  2.0093  2.9264
   34POPC  H15C 4518   4.845   3.992  10.867  1.1004 -0.7986 -0.5087
   34POPC   C11 4519   4.809   4.209  10.515 -0.1731 -0.2925 -0.4247
   34POPC  H11A 4520   4.708   4.175  10.545 -0.5044  1.0146  0.0409
   34POPC  H11B 4521   4.808   4.212  10.404 -0.1765 -0.7893 -0.4384
   34POPC     P 4522   4.879   4.465  10.523  0.5248  0.4242  0.2653
   34POPC   O13 4523   5.020   4.445  10.482 -0.1423 -0.0568 -0.4428
   34POPC   O14 4524   4.849   4.563  10.622  0.6129  0.2985 -0.2486
   34POPC   O12 4525   4.822   4.330  10.585  0.5074 -0.2954 -0.0407
   34POPC   O11 4526   4.795   4.483  10.390  0.1804 -0.3389  0.7425
   34POPC    C1 4527   4.651   4.460  10.384  0.5588 -0.0308 -0.6454
   34POPC    HA 4528   4.600   4.558  10.395  2.6637  1.1022 -0.3972
   34POPC    HB 4529   4.622   4.393  10.467  3.4879  1.3408  1.6732
   34POPC    C2 4530   4.608   4.370  10.261 -0.9468  0.0696  0.5515
   34POPC    HS 4531   4.645   4.265  10.257 -1.7493 -0.2233  0.7303
   34POPC   O21 4532   4.654   4.446  10.145 -1.0391  0.0467 -0.3783
   34POPC   C21 4533   4.777   4.410  10.098  0.2115 -0.4413  0.0571
   34POPC   O22 4534   4.844   4.311  10.130  0.7467 -0.1572  0.2040
   34POPC   C22 4535   4.827   4.520  10.008 -0.3660  0.1854  0.3841
   34POPC   H2R 4536   4.936   4.513   9.986 -0.9031 -2.2228 -2.0619
   34POPC   H2S 4537   4.811   4.610  10.072 -0.7940 -0.4741  1.2103
   34POPC    C3 4538   4.458   4.361  10.245  0.3694 -0.0375  0.0247
   34POPC    HX 4539   4.414   4.463  10.250  1.2456  0.7646 -4.5568
   34POPC    HY 4540   4.411   4.311  10.333 -1.0087 -0.2522 -0.8082
   34POPC   O31 4541   4.415   4.312  10.117 -0.1522 -0.4479  0.1043
   34POPC   C31 4542   4.405   4.173  10.090  0.6866  0.1329 -0.9115
   34POPC   O32 4543   4.428   4.096  10.182 -0.2777  0.0861  0.0046
   34POPC   C32 4544   4.366   4.141   9.949  0.5319  0.2889 -0.2304
   34POPC   H2X 4545   4.269   4.188   9.925 -0.2085 -0.1550  1.6568
   34POPC   H2Y 4546   4.334   4.034   9.947 -1.6493  0.8586  1.2355
   34POPC   C23 4547   4.749   4.518   9.872  0.1312 -0.6269 -0.3254
   34POPC   H3R 4548   4.778   4.612   9.821 -0.9496 -2.0308 -3.8132
   34POPC   H3S 4549   4.639   4.517   9.888  0.1525 -0.1471 -0.1307
   34POPC   C24 4550   4.796   4.409   9.779 -0.4358  0.4035 -0.4555
   34POPC   H4R 4551   4.746   4.320   9.821  0.3235  0.8341  1.5055
   34POPC   H4S 4552   4.904   4.384   9.771 -0.8852 -1.0386 -2.8015
   34POPC   C25 4553   4.756   4.437   9.632  0.3031  0.0837 -0.1418
   34POPC   H5R 4554   4.813   4.527   9.600  0.9721 -0.8016 -1.5278
   34POPC   H5S 4555   4.648   4.458   9.617  0.2958  1.0723  1.1694
   34POPC   C26 4556   4.807   4.333   9.537 -0.3242  0.1073 -0.0580
   34POPC   H6R 4557   4.745   4.247   9.569  0.6784 -0.6161 -0.0259
   34POPC   H6S 4558   4.915   4.311   9.549 -0.2102  0.3498 -0.6281
   34POPC   C27 4559   4.774   4.372   9.400  0.1095  0.3082  0.0565
   34POPC   H7R 4560   4.858   4.431   9.357  1.3207 -1.3045  0.1112
   34POPC   H7S 4561   4.684   4.437   9.399  0.6881  1.1229 -0.7967
   34POPC   C28 4562   4.750   4.251   9.298 -0.0715  1.0641  0.2075
   34POPC   H8R 4563   4.655   4.210   9.338  1.6436  0.2745  3.9248
   34POPC   H8S 4564   4.815   4.165   9.325 -0.0039  1.3555  0.9916
   34POPC   C29 4565   4.739   4.294   9.152  0.0165  0.2840 -0.5316
   34POPC   H91 4566   4.638   4.284   9.110  0.3135  2.4020 -1.8874
   34POPC  C210 4567   4.836   4.330   9.072 -0.3044  0.0404  0.9161
   34POPC  H101 4568   4.805   4.342   8.967  0.1545 -2.2782  0.4482
   34POPC  C211 4569   4.987   4.337   9.096  0.5791  0.1297 -0.6715
   34POPC  H11R 4570   5.033   4.245   9.138  0.1709  0.0948 -0.2993
   34POPC  H11S 4571   4.994   4.409   9.180  1.6596 -0.7392  0.0134
   34POPC  C212 4572   5.062   4.380   8.977  0.2197  0.3586 -0.6308
   34POPC  H12R 4573   5.157   4.428   9.010 -0.0340 -0.8945  2.2122
   34POPC  H12S 4574   5.004   4.454   8.920 -2.5895  0.0500  1.6118
   34POPC  C213 4575   5.087   4.259   8.891 -0.1313 -0.3308 -0.1667
   34POPC  H13R 4576   4.989   4.214   8.861  1.4656 -3.3111 -1.3037
   34POPC  H13S 4577   5.149   4.179   8.936  0.2908 -1.0428 -1.9183
   34POPC  C214 4578   5.157   4.307   8.760  0.2394  0.0481  0.2793
   34POPC  H14R 4579   5.254   4.360   8.776 -0.6379  1.9845 -0.4977
   34POPC  H14S 4580   5.090   4.382   8.713 -1.0201 -0.6375  0.9515
   34POPC  C215 4581   5.176   4.199   8.659 -0.1145  0.8475  0.4354
   34POPC  H15R 4582   5.080   4.146   8.644  1.7747 -2.5797 -0.3838
   34POPC  H15S 4583   5.253   4.131   8.699  0.7184 -0.3089 -2.8260
   34POPC  C216 4584   5.227   4.251   8.527 -0.2227 -0.3962  0.9249
   34POPC  H16R 4585   5.210   4.360   8.518  0.8370 -0.0992  2.3589
   34POPC  H16S 4586   5.155   4.220   8.448 -1.9743 -0.2125  2.3846
   34POPC  C217 4587   5.374   4.225   8.496  0.0825  0.0527  0.3506
   34POPC  H17R 4588   5.388   4.115   8.505 -0.7291  0.0141  1.3410
   34POPC  H17S 4589   5.441   4.273   8.571  1.3640 -0.1986 -0.5821
   34POPC  C218 4590   5.419   4.277   8.360  0.8448  0.0344 -0.5370
   34POPC  H18R 4591   5.528   4.263   8.376  0.4013 -2.5511  0.7978
   34POPC  H18S 4592   5.387   4.381   8.337 -2.5237 -0.5776  0.7914
   34POPC  H18T 4593   5.389   4.206   8.280  0.5840 -0.1886 -0.2457
   34POPC   C33 4594   4.486   4.172   9.863 -0.1432  0.2004  0.8117
   34POPC   H3X 4595   4.581   4.121   9.890 -0.4284 -0.9685 -0.2777
   34POPC   H3Y 4596   4.505   4.281   9.879  0.9318  0.0329  0.7972
   34POPC   C34 4597   4.476   4.147   9.711 -0.6653  0.1169  0.2256
   34POPC   H4X 4598   4.572   4.181   9.666 -0.1647 -0.6646  0.6878
   34POPC   H4Y 4599   4.401   4.215   9.665  1.3834  1.8956 -0.6770
   34POPC   C35 4600   4.454   4.001   9.662  0.2354 -0.0254 -0.2095
   34POPC   H5X 4601   4.352   3.965   9.688  1.4285 -3.1364  0.6675
   34POPC   H5Y 4602   4.522   3.934   9.719 -0.1283 -0.2948 -0.0861
   34POPC   C36 4603   4.477   3.976   9.511  0.0723 -0.7437 -0.2498
   34POPC   H6X 4604   4.456   3.868   9.493 -2.3729 -0.7011  1.7275
   34POPC   H6Y 4605   4.576   4.013   9.476  0.7195 -1.4078  0.7952
   34POPC   C37 4606   4.377   4.048   9.429  0.4931 -0.2430  0.6842
   34POPC   H7X 4607   4.392   4.153   9.461  2.5554 -0.1275 -0.5331
   34POPC   H7Y 4608   4.279   4.016   9.471 -0.6324  1.6278 -0.3670
   34POPC   C38 4609   4.395   4.026   9.278  0.1303 -0.0125  0.3306
   34POPC   H8X 4610   4.487   4.082   9.247 -1.5927  2.7467 -0.2213
   34POPC   H8Y 4611   4.317   4.093   9.236 -0.7836  1.4581  4.0626
   34POPC   C39 4612   4.376   3.878   9.228  0.3211 -1.1668 -0.3591
   34POPC   H9X 4613   4.275   3.833   9.236  0.4231 -1.5878 -1.3540
   34POPC   H9Y 4614   4.446   3.819   9.290 -1.4400 -1.3173  1.6084
   34POPC  C310 4615   4.423   3.867   9.082  0.2793  0.7553 -0.3593
   34POPC  H10X 4616   4.367   3.940   9.020 -4.8085 -0.1445  2.6000
   34POPC  H10Y 4617   4.390   3.764   9.057  0.9052  0.0403  1.5933
   34POPC  C311 4618   4.573   3.870   9.075  0.2358  0.0621  0.3717
   34POPC  H11X 4619   4.626   3.840   9.168  2.3939  3.7650  0.5346
   34POPC  H11Y 4620   4.598   3.977   9.060 -1.3235  0.5112  0.7653
   34POPC  C312 4621   4.630   3.797   8.950 -0.0859  0.1676  0.1409
   34POPC  H12X 4622   4.726   3.844   8.919  1.2717 -2.3551  0.2420
   34POPC  H12Y 4623   4.562   3.817   8.864 -0.5879 -1.3588  0.1336
   34POPC  C313 4624   4.653   3.645   8.972 -0.4208 -1.1400 -0.4525
   34POPC  H13X 4625   4.558   3.600   9.007 -0.4012 -2.0096 -1.4517
   34POPC  H13Y 4626   4.724   3.632   9.056 -1.3898  2.2187  1.0708
   34POPC  C314 4627   4.702   3.579   8.847 -0.0845  0.2343  0.1948
   34POPC  H14X 4628   4.638   3.620   8.766  0.5702 -0.8336 -0.9104
   34POPC  H14Y 4629   4.698   3.470   8.869  2.2104  0.0949  0.2083
   34POPC  C315 4630   4.849   3.607   8.800 -0.0590 -0.8255  0.3191
   34POPC  H15X 4631   4.913   3.557   8.876  0.1566  1.3970  1.6784
   34POPC  H15Y 4632   4.865   3.716   8.811  0.0892 -0.7508 -0.5740
   34POPC  C316 4633   4.865   3.562   8.650  0.7649 -0.0025 -0.0826
   34POPC  H16X 4634   4.968   3.568   8.609  0.5248 -0.5016 -0.7788
   34POPC  H16Y 4635   4.803   3.618   8.578  1.4858 -1.0604 -1.5705
   34POPC  H16Z 4636   4.841   3.453   8.643  1.0912 -0.0245 -0.9770
   35POPC     N 4637   2.163   1.793  10.798 -0.8409 -0.6322 -0.6429
   35POPC   C12 4638   2.316   1.820  10.788 -0.3543  0.2008  0.0286
   35POPC  H12A 4639   2.329   1.837  10.682 -3.1202 -0.6161 -0.5046
   35POPC  H12B 4640   2.378   1.738  10.820  0.8497  0.9830 -0.2256
   35POPC   C13 4641   2.124   1.661  10.743 -0.5911 -0.3017 -0.3744
   35POPC  H13A 4642   2.162   1.647  10.642  1.3259  0.3235  0.2125
   35POPC  H13B 4643   2.164   1.583  10.806 -2.2536 -1.8057 -1.0697
   35POPC  H13C 4644   2.018   1.645  10.754 -0.3148 -1.3445  0.9984
   35POPC   C14 4645   2.114   1.813  10.936 -0.3264  0.3802  0.6929
   35POPC  H14A 4646   2.145   1.733  11.001  1.1642 -0.5101 -1.0187
   35POPC  H14B 4647   2.140   1.913  10.968  0.3945  0.1691  0.7841
   35POPC  H14C 4648   2.007   1.802  10.934 -0.1963 -1.1159 -1.3030
   35POPC   C15 4649   2.088   1.898  10.713  0.1270  0.3264 -0.0174
   35POPC  H15A 4650   1.980   1.892  10.719  0.1892 -1.4010 -0.2516
   35POPC  H15B 4651   2.111   1.880  10.609 -2.8018 -2.5394 -0.3114
   35POPC  H15C 4652   2.129   1.992  10.748  3.0585 -0.5459 -0.8542
   35POPC   C11 4653   2.373   1.948  10.851  0.5519  0.9589  0.0401
   35POPC  H11A 4654   2.483   1.948  10.832  1.0688  0.9567  2.6185
   35POPC  H11B 4655   2.356   1.926  10.959  1.4296 -0.8343 -0.1536
   35POPC     P 4656   2.304   2.184  10.894  0.5974 -0.0145  0.0029
   35POPC   O13 4657   2.433   2.260  10.901 -0.4872  0.5226 -0.5961
   35POPC   O14 4658   2.251   2.138  11.021  0.6997 -0.7557 -0.3929
   35POPC   O12 4659   2.309   2.066  10.798 -0.6838  0.2630 -0.5210
   35POPC   O11 4660   2.189   2.275  10.832 -0.9435 -0.4437  0.6768
   35POPC    C1 4661   2.196   2.319  10.695 -0.0889 -0.0986  0.5120
   35POPC    HA 4662   2.296   2.297  10.652  0.7842 -1.4486  3.0104
   35POPC    HB 4663   2.178   2.429  10.701 -1.7817 -0.3426  0.4411
   35POPC    C2 4664   2.071   2.258  10.613  0.3652 -0.2986 -0.8235
   35POPC    HS 4665   2.108   2.159  10.577  3.2360  0.0616  0.8268
   35POPC   O21 4666   2.043   2.340  10.501 -0.0768  0.0183 -0.2170
   35POPC   C21 4667   2.135   2.330  10.408 -0.4957 -0.5318  0.0101
   35POPC   O22 4668   2.229   2.250  10.413  0.4919 -0.6007  0.1385
   35POPC   C22 4669   2.117   2.436  10.296  0.1374  0.2123  0.3074
   35POPC   H2R 4670   2.217   2.482  10.281  0.9312 -1.5184  0.0964
   35POPC   H2S 4671   2.058   2.526  10.323 -1.2806 -0.9258  1.1217
   35POPC    C3 4672   1.952   2.240  10.716 -0.2579 -0.0630  0.2037
   35POPC    HX 4673   1.912   2.343  10.734 -0.0096  0.6151 -2.6016
   35POPC    HY 4674   1.987   2.194  10.811  0.5559  4.4281  2.3584
   35POPC   O31 4675   1.843   2.156  10.652  0.4855 -0.4129  0.2056
   35POPC   C31 4676   1.740   2.127  10.723 -0.4506 -0.1151  0.0490
   35POPC   O32 4677   1.730   2.151  10.843  0.0684  0.0865  0.2374
   35POPC   C32 4678   1.638   2.042  10.649 -0.5685 -0.1660  0.0881
   35POPC   H2X 4679   1.698   1.949  10.633  0.1529  0.5168 -1.3712
   35POPC   H2Y 4680   1.629   2.090  10.550 -0.1079  1.7098  0.9170
   35POPC   C23 4681   2.055   2.371  10.169  0.0451  0.6085  0.3274
   35POPC   H3R 4682   1.990   2.284  10.191  1.0063 -0.8976 -2.2996
   35POPC   H3S 4683   2.136   2.321  10.112 -0.0759  0.1800  0.5275
   35POPC   C24 4684   1.991   2.474  10.074 -0.4891  0.5632 -0.1131
   35POPC   H4R 4685   2.029   2.577  10.091 -1.0728  1.0479 -1.6175
   35POPC   H4S 4686   1.882   2.462  10.091 -0.2719 -1.0747  0.3333
   35POPC   C25 4687   2.013   2.452   9.921 -0.7173  0.2755 -0.2016
   35POPC   H5R 4688   2.009   2.346   9.889 -2.2451  0.6612 -1.3596
   35POPC   H5S 4689   2.113   2.499   9.907 -0.2149 -0.1641  1.6469
   35POPC   C26 4690   1.909   2.521   9.838 -0.2310 -0.0558 -0.5430
   35POPC   H6R 4691   1.893   2.621   9.884 -1.3504  0.1674 -1.3649
   35POPC   H6S 4692   1.814   2.463   9.845 -0.5059  0.5494  2.0911
   35POPC   C27 4693   1.938   2.537   9.684 -0.5463  0.3121  0.2812
   35POPC   H7R 4694   1.943   2.443   9.625  1.9966  0.6951 -0.2333
   35POPC   H7S 4695   2.029   2.599   9.671 -2.2681  3.2425  1.1391
   35POPC   C28 4696   1.823   2.608   9.605  0.3387 -0.3723 -0.2193
   35POPC   H8R 4697   1.804   2.700   9.665 -0.0984 -1.6654  1.7338
   35POPC   H8S 4698   1.736   2.538   9.609 -0.9864  1.2564  0.9004
   35POPC   C29 4699   1.875   2.635   9.466  0.2878  0.1446  0.5553
   35POPC   H91 4700   1.973   2.685   9.466  2.0623 -3.0450  2.1206
   35POPC  C210 4701   1.830   2.589   9.348  0.1188  0.3726 -0.6070
   35POPC  H101 4702   1.862   2.638   9.254 -0.5240 -0.1166 -1.0872
   35POPC  C211 4703   1.705   2.505   9.335  0.2344 -0.6130  0.0907
   35POPC  H11R 4704   1.620   2.547   9.393 -0.9056 -0.1461 -1.8332
   35POPC  H11S 4705   1.737   2.409   9.382  0.6336 -1.3812 -1.6834
   35POPC  C212 4706   1.651   2.479   9.187 -0.5582 -0.2227 -0.2915
   35POPC  H12R 4707   1.625   2.578   9.145 -0.8568 -0.7182 -1.3146
   35POPC  H12S 4708   1.556   2.423   9.199 -1.2891  0.2932 -2.9875
   35POPC  C213 4709   1.746   2.395   9.103 -0.3936  0.0596  0.7454
   35POPC  H13R 4710   1.771   2.307   9.166  0.5706 -0.8387 -0.8269
   35POPC  H13S 4711   1.845   2.445   9.091  0.3450 -1.8168 -2.3307
   35POPC  C214 4712   1.689   2.339   8.975  0.1240 -0.1907  0.7614
   35POPC  H14R 4713   1.605   2.267   8.985  0.2911 -1.2027 -3.2585
   35POPC  H14S 4714   1.770   2.281   8.926  0.9407  1.7253 -0.2805
   35POPC  C215 4715   1.648   2.446   8.877  0.0453  0.7536 -0.3469
   35POPC  H15R 4716   1.551   2.489   8.910 -0.9701 -1.8826  0.3715
   35POPC  H15S 4717   1.624   2.384   8.788  1.5768 -0.5314  0.0809
   35POPC  C216 4718   1.750   2.554   8.855 -0.3788  0.3223  0.6260
   35POPC  H16R 4719   1.852   2.510   8.855 -0.6226 -0.2537  0.8843
   35POPC  H16S 4720   1.754   2.635   8.931  1.4597 -0.7743  1.7644
   35POPC  C217 4721   1.737   2.615   8.720  0.0491  0.2567 -0.1209
   35POPC  H17R 4722   1.742   2.528   8.651  0.3481 -0.0487  0.2786
   35POPC  H17S 4723   1.824   2.679   8.692  2.6765 -2.8414  0.3188
   35POPC  C218 4724   1.599   2.673   8.692  0.0067 -0.4504  0.5167
   35POPC  H18R 4725   1.606   2.744   8.607  0.5712 -3.3191 -1.9856
   35POPC  H18S 4726   1.557   2.721   8.783  0.4443  0.2888  0.3317
   35POPC  H18T 4727   1.521   2.596   8.672  1.1094 -1.2547 -0.8823
   35POPC   C33 4728   1.507   2.016  10.725  0.4285  0.2149  0.5256
   35POPC   H3X 4729   1.483   2.120  10.757  1.1657  0.5160  0.1224
   35POPC   H3Y 4730   1.508   1.940  10.805  2.6069 -2.5643 -1.9246
   35POPC   C34 4731   1.398   1.980  10.614 -0.2886  0.5408 -0.1888
   35POPC   H4X 4732   1.399   2.051  10.528 -1.2584 -2.2644 -2.6774
   35POPC   H4Y 4733   1.304   1.986  10.673 -0.0766  4.1590  0.0473
   35POPC   C35 4734   1.414   1.835  10.568 -0.5629  0.0929  0.6896
   35POPC   H5X 4735   1.378   1.774  10.654 -1.7088 -0.7274 -0.3481
   35POPC   H5Y 4736   1.518   1.810  10.537  0.2544  3.6330  0.1358
   35POPC   C36 4737   1.312   1.812  10.449 -0.6962  0.2289  0.4280
   35POPC   H6X 4738   1.330   1.899  10.383 -3.1453  1.5976  1.4234
   35POPC   H6Y 4739   1.207   1.819  10.484 -1.1904 -1.3275 -0.6278
   35POPC   C37 4740   1.329   1.681  10.374 -0.1695  0.4464  0.4382
   35POPC   H7X 4741   1.245   1.683  10.302  0.6798 -2.0984 -0.7409
   35POPC   H7Y 4742   1.308   1.598  10.445 -1.1952  0.5436  0.2646
   35POPC   C38 4743   1.454   1.661  10.285 -0.9378  0.4839  0.4805
   35POPC   H8X 4744   1.526   1.583  10.320 -0.0205  1.7250  1.4815
   35POPC   H8Y 4745   1.524   1.748  10.287  1.1339 -1.0915  1.0643
   35POPC   C39 4746   1.431   1.634  10.137  0.3221 -0.3705 -0.0363
   35POPC   H9X 4747   1.356   1.705  10.097 -2.0361 -2.3646  0.5772
   35POPC   H9Y 4748   1.384   1.533  10.142  1.0531 -0.6647  1.4946
   35POPC  C310 4749   1.559   1.627  10.049 -0.3703 -0.2281 -0.3028
   35POPC  H10X 4750   1.628   1.551  10.091  1.2296  1.2274 -0.2102
   35POPC  H10Y 4751   1.617   1.721  10.058 -1.5678  0.4269  0.9285
   35POPC  C311 4752   1.533   1.608   9.902  0.1096 -0.8531  0.7021
   35POPC  H11X 4753   1.470   1.519   9.882 -1.9178  0.2730  1.7293
   35POPC  H11Y 4754   1.627   1.590   9.844 -0.6018 -0.2641 -0.6854
   35POPC  C312 4755   1.468   1.731   9.834  0.4016 -1.0687 -0.4941
   35POPC  H12X 4756   1.551   1.791   9.791  0.2704 -0.2922  0.2955
   35POPC  H12Y 4757   1.423   1.798   9.911 -0.4448  0.5052 -2.2520
   35POPC  C313 4758   1.359   1.695   9.728 -0.4984 -0.1348 -0.2632
   35POPC  H13X 4759   1.285   1.774   9.705 -0.1987 -0.1302 -1.2612
   35POPC  H13Y 4760   1.299   1.607   9.762 -2.0431  0.5104 -1.2268
   35POPC  C314 4761   1.421   1.672   9.594 -0.1163 -0.6513 -1.0536
   35POPC  H14X 4762   1.492   1.587   9.605 -1.2792 -1.4582  0.8348
   35POPC  H14Y 4763   1.484   1.761   9.570  0.1038 -0.5221 -0.0548
   35POPC  C315 4764   1.315   1.655   9.483 -0.3033  0.3328 -0.1986
   35POPC  H15X 4765   1.234   1.730   9.493 -0.1511  0.4497  0.1712
   35POPC  H15Y 4766   1.257   1.564   9.511 -1.2917  0.5593 -1.4222
   35POPC  C316 4767   1.370   1.644   9.344 -0.3242 -0.2086  0.7383
   35POPC  H16X 4768   1.397   1.744   9.302  0.4393 -0.3470  0.8928
   35POPC  H16Y 4769   1.292   1.594   9.282  0.5354 -2.0962  1.1262
   35POPC  H16Z 4770   1.464   1.587   9.347 -0.7639 -0.8913  2.2877
   36POPC     N 4771   1.491   0.822  10.781  0.0482 -0.1578 -0.1172
   36POPC   C12 4772   1.482   0.979  10.792 -0.0880  0.0528 -0.6414
   36POPC  H12A 4773   1.509   1.010  10.892 -2.1993  0.5760 -0.1872
   36POPC  H12B 4774   1.376   0.999  10.789 -0.5673 -1.5177  2.0722
   36POPC   C13 4775   1.629   0.769  10.799 -0.3633 -0.2140 -0.4589
   36POPC  H13A 4776   1.624   0.663  10.821 -1.4587 -0.2050 -0.6168
   36POPC  H13B 4777   1.684   0.791  10.709 -0.0004  1.1754  0.0668
   36POPC  H13C 4778   1.672   0.819  10.885  2.6716 -1.6631 -0.9864
   36POPC   C14 4779   1.415   0.755  10.887  0.1753  0.3226 -0.7382
   36POPC  H14A 4780   1.320   0.804  10.904  0.0514 -0.0685 -0.2862
   36POPC  H14B 4781   1.402   0.653  10.857 -0.8433  0.1143  0.3460
   36POPC  H14C 4782   1.474   0.759  10.978 -0.4811  2.7509 -0.3488
   36POPC   C15 4783   1.436   0.772  10.657  0.1566 -0.0186 -0.5047
   36POPC  H15A 4784   1.433   0.664  10.666  0.2456  0.0619  0.7569
   36POPC  H15B 4785   1.496   0.797  10.571  0.9144 -1.7124 -0.5097
   36POPC  H15C 4786   1.335   0.805  10.641  0.2039  1.8616  2.3090
   36POPC   C11 4787   1.558   1.070  10.690  0.2127  0.0985  0.0156
   36POPC  H11A 4788   1.533   1.173  10.722 -1.4058 -0.1690 -0.3414
   36POPC  H11B 4789   1.514   1.052  10.590  2.1166 -0.1870 -0.8109
   36POPC     P 4790   1.800   1.086  10.784 -0.3537 -0.1957  0.2052
   36POPC   O13 4791   1.868   0.968  10.839 -0.3465  0.0238  0.0721
   36POPC   O14 4792   1.730   1.171  10.884  0.3968  0.6241  0.2801
   36POPC   O12 4793   1.694   1.038  10.676 -0.0792  0.0892 -0.3738
   36POPC   O11 4794   1.897   1.180  10.709 -0.1986 -0.1635 -0.0171
   36POPC    C1 4795   1.842   1.296  10.635  0.6880 -0.3195 -0.8601
   36POPC    HA 4796   1.907   1.385  10.639  1.7627 -1.1406  2.5437
   36POPC    HB 4797   1.759   1.343  10.692  1.6855 -0.8977  1.1206
   36POPC    C2 4798   1.812   1.256  10.486  0.2351  0.5710 -0.5864
   36POPC    HS 4799   1.767   1.155  10.494  1.9078 -0.1382  0.3836
   36POPC   O21 4800   1.946   1.235  10.425  0.1466  0.1712 -0.1378
   36POPC   C21 4801   1.946   1.126  10.343 -0.4385 -0.4217  0.0856
   36POPC   O22 4802   1.854   1.049  10.328 -0.4225  0.3940 -0.0952
   36POPC   C22 4803   2.084   1.115  10.283  0.4532 -0.7955 -0.1253
   36POPC   H2R 4804   2.145   1.057  10.356 -3.1674 -1.4113  2.6995
   36POPC   H2S 4805   2.121   1.220  10.282 -0.8695 -0.2227  2.3678
   36POPC    C3 4806   1.736   1.365  10.421  0.6990 -0.3472 -0.0553
   36POPC    HX 4807   1.783   1.465  10.432 -0.4079 -0.0723  3.3450
   36POPC    HY 4808   1.646   1.398  10.477 -0.3148 -0.9540 -1.2702
   36POPC   O31 4809   1.686   1.332  10.295  0.3510  0.4095  0.1273
   36POPC   C31 4810   1.581   1.249  10.299  0.2176 -0.2072  0.1923
   36POPC   O32 4811   1.516   1.226  10.400 -1.0756  0.2227  0.7474
   36POPC   C32 4812   1.566   1.184  10.154  0.1583 -0.4340 -0.9037
   36POPC   H2X 4813   1.621   1.088  10.152  0.5993 -0.1826 -1.0478
   36POPC   H2Y 4814   1.612   1.254  10.081 -0.4448  0.7080 -0.2213
   36POPC   C23 4815   2.082   1.056  10.141  0.8341 -0.6589 -0.4269
   36POPC   H3R 4816   2.011   0.972  10.126 -0.4829  0.6249 -1.9338
   36POPC   H3S 4817   2.181   1.006  10.134 -0.1027 -2.8226  0.8882
   36POPC   C24 4818   2.048   1.143  10.024 -0.0716 -0.2323 -0.0571
   36POPC   H4R 4819   2.102   1.099   9.937 -3.2696 -1.2110 -1.6994
   36POPC   H4S 4820   2.084   1.246  10.044 -1.1777  0.3981 -1.2363
   36POPC   C25 4821   1.903   1.140   9.975  0.0387 -0.2610  0.6961
   36POPC   H5R 4822   1.845   1.198  10.050  0.7015  4.0117 -1.7214
   36POPC   H5S 4823   1.861   1.037   9.971 -0.7941  0.0893 -1.8423
   36POPC   C26 4824   1.878   1.215   9.841 -0.5288  0.7227 -0.3919
   36POPC   H6R 4825   1.785   1.175   9.796  1.2896 -1.3482 -2.5875
   36POPC   H6S 4826   1.960   1.178   9.775  0.3328 -0.6271  1.3336
   36POPC   C27 4827   1.869   1.363   9.846 -1.3001  0.0249  0.4788
   36POPC   H7R 4828   1.967   1.410   9.864 -2.1269  2.5983 -1.2481
   36POPC   H7S 4829   1.801   1.400   9.925  0.4997  2.1080  1.1176
   36POPC   C28 4830   1.809   1.415   9.713 -0.0667 -0.1687  0.0640
   36POPC   H8R 4831   1.806   1.526   9.722 -0.3778 -0.1906  0.2312
   36POPC   H8S 4832   1.709   1.373   9.692 -0.4965  1.1479 -0.6306
   36POPC   C29 4833   1.907   1.380   9.600 -1.0893  0.0126 -0.1541
   36POPC   H91 4834   2.015   1.370   9.618 -1.0681 -2.3682 -1.1570
   36POPC  C210 4835   1.864   1.340   9.477 -0.7324  0.7539 -0.5755
   36POPC  H101 4836   1.937   1.312   9.399  0.5564 -0.4948  1.0037
   36POPC  C211 4837   1.725   1.329   9.433  0.3241  0.4885 -0.6345
   36POPC  H11R 4838   1.647   1.362   9.505  1.0450 -0.4474  0.6020
   36POPC  H11S 4839   1.704   1.222   9.411 -0.9935  0.3572  0.9883
   36POPC  C212 4840   1.704   1.403   9.300  0.3117 -0.5317 -0.2679
   36POPC  H12R 4841   1.735   1.508   9.315  1.5428 -0.8389 -0.5781
   36POPC  H12S 4842   1.594   1.409   9.284  0.3880  0.2633 -0.5119
   36POPC  C213 4843   1.758   1.348   9.178 -0.1669  0.1232  0.2576
   36POPC  H13R 4844   1.720   1.249   9.145 -0.5452  0.6004 -0.7828
   36POPC  H13S 4845   1.866   1.332   9.196 -0.0445 -1.6314 -1.5899
   36POPC  C214 4846   1.719   1.427   9.043  0.3365 -0.0614  0.3761
   36POPC  H14R 4847   1.721   1.535   9.069 -1.4458 -0.0380  0.5160
   36POPC  H14S 4848   1.610   1.413   9.026  0.6631 -0.4096 -1.6466
   36POPC  C215 4849   1.806   1.372   8.930  0.2468  0.3090  0.0589
   36POPC  H15R 4850   1.767   1.419   8.837 -0.3494 -1.3238 -0.5628
   36POPC  H15S 4851   1.787   1.263   8.919  1.2937 -0.1213  2.0423
   36POPC  C216 4852   1.952   1.402   8.937 -0.6054  0.3022  0.2483
   36POPC  H16R 4853   1.998   1.322   8.999  0.3573  0.9244  0.3733
   36POPC  H16S 4854   1.965   1.500   8.989  0.6724  0.6969 -0.7489
   36POPC  C217 4855   2.035   1.405   8.805  0.5517 -0.4576 -0.1498
   36POPC  H17R 4856   1.976   1.443   8.719 -0.5161 -1.9390 -0.0997
   36POPC  H17S 4857   2.060   1.298   8.787  1.4914 -0.6181  1.8383
   36POPC  C218 4858   2.161   1.487   8.827 -0.3559  0.3336  0.6173
   36POPC  H18R 4859   2.116   1.588   8.835 -1.1032 -0.1219  2.5396
   36POPC  H18S 4860   2.223   1.485   8.734 -2.2714  0.5381 -0.7173
   36POPC  H18T 4861   2.233   1.469   8.910 -1.7788  2.0059  2.2961
   36POPC   C33 4862   1.420   1.165  10.112  0.3744 -0.4055  0.4673
   36POPC   H3X 4863   1.363   1.261  10.110  0.1027 -0.5257  1.5584
   36POPC   H3Y 4864   1.365   1.103  10.187  1.3105 -0.3151  1.2400
   36POPC   C34 4865   1.427   1.094   9.979  0.2256  0.4142  0.4712
   36POPC   H4X 4866   1.334   1.034   9.971  0.2799  0.2591  0.9667
   36POPC   H4Y 4867   1.508   1.019   9.965  0.3575  0.7250 -0.4859
   36POPC   C35 4868   1.418   1.200   9.867 -0.4285  0.1115 -1.0878
   36POPC   H5X 4869   1.517   1.248   9.858  0.9501 -2.5973 -1.2463
   36POPC   H5Y 4870   1.339   1.275   9.887  1.1227  0.9843  2.4125
   36POPC   C36 4871   1.390   1.128   9.739  0.6515  0.1363  1.0770
   36POPC   H6X 4872   1.302   1.061   9.752  0.8418  0.1079  2.2668
   36POPC   H6Y 4873   1.476   1.066   9.704  0.9766  0.5675  1.1071
   36POPC   C37 4874   1.350   1.226   9.624 -0.2981 -0.4454 -0.0634
   36POPC   H7X 4875   1.421   1.311   9.631  1.5417 -1.9656  0.6879
   36POPC   H7Y 4876   1.248   1.258   9.653 -0.2325 -0.8442  0.6123
   36POPC   C38 4877   1.346   1.177   9.475  0.0052 -0.0439 -0.2029
   36POPC   H8X 4878   1.294   1.081   9.458  0.9869 -0.3790 -1.4942
   36POPC   H8Y 4879   1.452   1.155   9.448 -0.2601  0.1812 -1.4766
   36POPC   C39 4880   1.302   1.289   9.380 -0.3628  0.0191  0.2885
   36POPC   H9X 4881   1.360   1.383   9.394 -2.1620  1.1129  0.6815
   36POPC   H9Y 4882   1.193   1.300   9.400 -0.3239 -0.6990  0.9436
   36POPC  C310 4883   1.317   1.241   9.235 -0.1166  0.0697  0.3423
   36POPC  H10X 4884   1.232   1.172   9.216  2.1775 -2.5693 -1.2214
   36POPC  H10Y 4885   1.413   1.185   9.226  0.7927  1.7837 -1.6849
   36POPC  C311 4886   1.324   1.369   9.145  0.0509  0.0244  0.3939
   36POPC  H11X 4887   1.409   1.438   9.164 -0.4512  1.1481 -1.1294
   36POPC  H11Y 4888   1.236   1.434   9.164 -0.2308 -0.8812  2.3650
   36POPC  C312 4889   1.317   1.334   8.992 -0.1947 -0.4808  0.2756
   36POPC  H12X 4890   1.228   1.269   8.983 -1.2387  0.9306  0.0423
   36POPC  H12Y 4891   1.406   1.271   8.969 -0.0743 -0.3187  0.2922
   36POPC  C313 4892   1.308   1.443   8.892  0.5212 -0.5499  0.1675
   36POPC  H13X 4893   1.391   1.517   8.885  0.6999 -0.7864 -0.2354
   36POPC  H13Y 4894   1.212   1.495   8.917 -0.3677 -1.1642 -1.7444
   36POPC  C314 4895   1.268   1.380   8.753 -0.1195 -0.2737 -0.0855
   36POPC  H14X 4896   1.160   1.385   8.729 -0.3097 -3.0621 -0.1385
   36POPC  H14Y 4897   1.301   1.274   8.760 -0.5652 -0.3107  2.8586
   36POPC  C315 4898   1.359   1.439   8.640 -0.0674  0.4213 -0.7609
   36POPC  H15X 4899   1.339   1.377   8.550 -2.0792  0.5229 -0.4495
   36POPC  H15Y 4900   1.464   1.432   8.675 -0.1944  0.6049 -0.3395
   36POPC  C316 4901   1.331   1.577   8.581  0.5940 -0.1241 -0.2549
   36POPC  H16X 4902   1.386   1.570   8.486 -1.4917  0.3940 -1.5767
   36POPC  H16Y 4903   1.361   1.665   8.642 -0.1349  1.2027 -1.7375
   36POPC  H16Z 4904   1.223   1.598   8.561 -0.1670 -2.2356  1.2489
   37POPC     N 4905   6.589   1.659   6.182  0.6877 -0.1501 -0.9822
   37POPC   C12 4906   6.471   1.567   6.206  0.0358  0.2878 -0.3865
   37POPC  H12A 4907   6.461   1.525   6.305 -2.5737  0.2290 -0.6072
   37POPC  H12B 4908   6.487   1.478   6.147 -2.2362  0.0822 -0.7769
   37POPC   C13 4909   6.717   1.600   6.224 -0.2182  0.2282  0.3235
   37POPC  H13A 4910   6.801   1.667   6.211 -0.5090  0.5444  0.0530
   37POPC  H13B 4911   6.714   1.564   6.326  0.1159 -3.0045 -0.7148
   37POPC  H13C 4912   6.744   1.509   6.174  1.3877  0.5465  0.5490
   37POPC   C14 4913   6.600   1.679   6.036 -0.6739  0.0432 -0.8612
   37POPC  H14A 4914   6.614   1.585   5.984 -0.7163  0.0534 -0.8913
   37POPC  H14B 4915   6.505   1.725   6.012 -1.6727 -1.6294 -0.3124
   37POPC  H14C 4916   6.683   1.746   6.017 -0.9572  0.4787 -0.5666
   37POPC   C15 4917   6.573   1.800   6.236  0.1675 -0.4244  0.3002
   37POPC  H15A 4918   6.660   1.857   6.206  0.7027  0.6120  3.4380
   37POPC  H15B 4919   6.575   1.794   6.344 -0.0203 -0.5758  0.2957
   37POPC  H15C 4920   6.475   1.836   6.206 -0.8316 -0.0430  3.6159
   37POPC   C11 4921   6.338   1.624   6.162  0.8812  0.4145 -0.0069
   37POPC  H11A 4922   6.268   1.539   6.178 -2.1783  2.6593 -0.5820
   37POPC  H11B 4923   6.334   1.645   6.053 -0.3549  0.5013  0.0421
   37POPC     P 4924   6.222   1.702   6.376 -0.2844  0.0959 -0.3335
   37POPC   O13 4925   6.284   1.592   6.449 -0.1187 -0.4409  0.3749
   37POPC   O14 4926   6.074   1.690   6.348  0.0732 -0.0128  0.3815
   37POPC   O12 4927   6.292   1.731   6.242  0.7267 -0.5209 -0.6694
   37POPC   O11 4928   6.234   1.830   6.463 -0.6985  0.5363  0.3857
   37POPC    C1 4929   6.363   1.888   6.493 -0.2876  0.0407  0.2985
   37POPC    HA 4930   6.381   1.973   6.423 -0.8284  1.2571  1.5724
   37POPC    HB 4931   6.445   1.813   6.484 -2.0497 -1.9483  0.0991
   37POPC    C2 4932   6.362   1.934   6.643  0.1594  0.0193 -0.2435
   37POPC    HS 4933   6.467   1.959   6.668 -0.0494 -0.4002  1.1234
   37POPC   O21 4934   6.318   1.838   6.741 -0.0923 -0.0589 -0.0442
   37POPC   C21 4935   6.389   1.730   6.748  0.6454  0.3706 -0.8194
   37POPC   O22 4936   6.491   1.702   6.689 -0.0130 -0.8835 -0.9490
   37POPC   C22 4937   6.340   1.653   6.872  0.1772  0.3048  0.1442
   37POPC   H2R 4938   6.229   1.639   6.870  0.0772  1.1150 -2.5281
   37POPC   H2S 4939   6.366   1.711   6.963  0.9516  0.3830 -0.1227
   37POPC    C3 4940   6.276   2.063   6.668  0.3931  0.1506  0.0083
   37POPC    HX 4941   6.286   2.079   6.777 -0.6006 -2.5624  0.5911
   37POPC    HY 4942   6.170   2.033   6.648 -0.0208  1.3907  0.2962
   37POPC   O31 4943   6.319   2.173   6.591 -0.2687  0.2671  0.3884
   37POPC   C31 4944   6.243   2.284   6.597 -0.1889 -0.2052 -1.0289
   37POPC   O32 4945   6.128   2.283   6.643  0.3471 -0.1873 -0.0758
   37POPC   C32 4946   6.324   2.406   6.554  0.2883  0.7269  0.0625
   37POPC   H2X 4947   6.368   2.376   6.457  0.1317  1.9680 -0.4095
   37POPC   H2Y 4948   6.404   2.421   6.629 -1.7267 -0.6521  2.6313
   37POPC   C23 4949   6.423   1.520   6.896  0.4359 -0.3638  0.5527
   37POPC   H3R 4950   6.513   1.537   6.958 -0.1843  0.6721  1.1870
   37POPC   H3S 4951   6.461   1.467   6.806 -0.8103 -2.2737  1.0909
   37POPC   C24 4952   6.330   1.434   6.967 -0.2414 -0.1211 -0.0121
   37POPC   H4R 4953   6.235   1.403   6.919 -0.0814  1.4137 -1.4416
   37POPC   H4S 4954   6.305   1.490   7.060 -1.7942  0.5378 -0.7862
   37POPC   C25 4955   6.400   1.306   7.015 -0.1102  0.9305  0.2082
   37POPC   H5R 4956   6.502   1.331   7.051  0.2791 -0.9566  0.4988
   37POPC   H5S 4957   6.399   1.258   6.915 -3.3823  2.2080 -0.5242
   37POPC   C26 4958   6.322   1.220   7.115  0.1790 -0.3696 -0.9615
   37POPC   H6R 4959   6.375   1.122   7.118  2.3180  0.7731  0.5439
   37POPC   H6S 4960   6.217   1.199   7.084 -0.6804  1.0225  0.8265
   37POPC   C27 4961   6.341   1.282   7.259  0.5939 -0.0335 -0.1848
   37POPC   H7R 4962   6.360   1.391   7.251  3.7977 -0.4345  0.5600
   37POPC   H7S 4963   6.438   1.250   7.301  0.5240 -1.5298 -1.0830
   37POPC   C28 4964   6.224   1.238   7.356  0.9828 -0.9004 -0.1453
   37POPC   H8R 4965   6.132   1.242   7.295  0.2844 -2.1601  0.7697
   37POPC   H8S 4966   6.206   1.314   7.435 -2.5069 -1.0537 -0.6213
   37POPC   C29 4967   6.233   1.088   7.402  0.5588 -0.7735 -0.6918
   37POPC   H91 4968   6.293   1.015   7.345 -1.4148 -1.9376 -1.3407
   37POPC  C210 4969   6.160   1.038   7.500 -0.2256  0.3651  0.1180
   37POPC  H101 4970   6.180   0.935   7.536 -0.7373 -0.2364 -1.2779
   37POPC  C211 4971   6.069   1.120   7.577 -0.3054  0.1559  0.3390
   37POPC  H11R 4972   5.969   1.074   7.595 -0.3262 -0.3722 -0.9697
   37POPC  H11S 4973   6.048   1.212   7.519  0.3919  0.7144  0.9522
   37POPC  C212 4974   6.125   1.160   7.715  0.1766 -0.3964  0.6204
   37POPC  H12R 4975   6.075   1.251   7.756 -1.5754 -0.9871 -0.0784
   37POPC  H12S 4976   6.228   1.194   7.693  0.1905 -0.5558  0.4365
   37POPC  C213 4977   6.115   1.055   7.813  0.4397 -0.2156  0.0900
   37POPC  H13R 4978   6.191   1.056   7.894  1.7452 -0.5079 -1.1005
   37POPC  H13S 4979   6.161   0.963   7.772  1.3604 -0.3617  1.3713
   37POPC  C214 4980   5.979   1.017   7.871  0.4042 -0.4915 -0.4337
   37POPC  H14R 4981   5.984   0.928   7.936 -2.3036 -0.4682 -0.0722
   37POPC  H14S 4982   5.917   0.981   7.786  0.6350 -1.5278 -0.1730
   37POPC  C215 4983   5.910   1.126   7.944 -0.5444  0.5651  0.7718
   37POPC  H15R 4984   5.863   1.198   7.874  0.3586  0.0590 -0.3866
   37POPC  H15S 4985   5.979   1.185   8.008 -0.7976  1.4290  0.2619
   37POPC  C216 4986   5.797   1.070   8.030  0.2068  0.2359 -0.3719
   37POPC  H16R 4987   5.815   1.047   8.137 -2.2896 -0.9824 -0.1506
   37POPC  H16S 4988   5.766   0.977   7.977  1.4450  0.0280 -0.7643
   37POPC  C217 4989   5.671   1.153   8.015 -0.9632  0.6991  0.4479
   37POPC  H17R 4990   5.592   1.100   8.072  0.5491  0.2062  2.1724
   37POPC  H17S 4991   5.653   1.153   7.905  0.9901 -0.6247  0.0826
   37POPC  C218 4992   5.671   1.290   8.068  0.2258 -0.4965 -0.6264
   37POPC  H18R 4993   5.580   1.345   8.038  1.3639  0.6453 -2.1432
   37POPC  H18S 4994   5.765   1.337   8.033  0.6763 -3.6510 -4.3077
   37POPC  H18T 4995   5.670   1.303   8.178 -0.9063  2.1439 -0.8825
   37POPC   C33 4996   6.240   2.540   6.531 -0.2559  0.1604 -0.2743
   37POPC   H3X 4997   6.143   2.514   6.484 -2.3534  2.0840  2.6011
   37POPC   H3Y 4998   6.299   2.614   6.473  1.5236 -0.5960  0.4768
   37POPC   C34 4999   6.192   2.602   6.662 -0.9124  0.3038 -0.0997
   37POPC   H4X 5000   6.139   2.523   6.720  0.5859  0.3861  1.4801
   37POPC   H4Y 5001   6.114   2.678   6.646 -0.0297  1.6002  1.4762
   37POPC   C35 5002   6.312   2.663   6.729 -0.4143 -0.2788 -0.3610
   37POPC   H5X 5003   6.352   2.736   6.656 -2.6122  1.5577  0.1417
   37POPC   H5Y 5004   6.384   2.582   6.753  0.4751  0.1649 -1.4731
   37POPC   C36 5005   6.271   2.740   6.858 -0.1857  0.7356  0.3825
   37POPC   H6X 5006   6.199   2.677   6.913 -0.1970  4.1903  4.8609
   37POPC   H6Y 5007   6.223   2.835   6.827 -2.3047  0.2891  2.0855
   37POPC   C37 5008   6.400   2.757   6.948 -0.3113 -0.5120 -0.0258
   37POPC   H7X 5009   6.479   2.795   6.879 -0.2809  0.7317  0.6474
   37POPC   H7Y 5010   6.420   2.657   6.991 -0.8385 -0.9960 -0.8882
   37POPC   C38 5011   6.374   2.849   7.061  0.3011  0.2257 -0.3205
   37POPC   H8X 5012   6.371   2.952   7.021  1.2210 -0.4133 -2.1100
   37POPC   H8Y 5013   6.457   2.847   7.135  0.8033 -0.2502 -0.8817
   37POPC   C39 5014   6.247   2.817   7.145 -0.1266 -0.3307 -0.4978
   37POPC   H9X 5015   6.161   2.794   7.079 -0.0367  0.0938 -0.7709
   37POPC   H9Y 5016   6.218   2.902   7.211 -3.1425 -1.2509 -0.5076
   37POPC  C310 5017   6.274   2.712   7.250 -0.5601  0.3811 -0.2989
   37POPC  H10X 5018   6.323   2.755   7.340 -0.8366  0.7180 -0.3054
   37POPC  H10Y 5019   6.354   2.646   7.212  1.1293  1.5383  1.0597
   37POPC  C311 5020   6.157   2.620   7.296 -0.2894 -0.9167  0.5357
   37POPC  H11X 5021   6.199   2.544   7.366 -1.3462 -1.3898  0.6688
   37POPC  H11Y 5022   6.114   2.566   7.209  0.0512 -1.9953  1.0145
   37POPC  C312 5023   6.045   2.685   7.377  0.4380  0.5412 -0.7465
   37POPC  H12X 5024   5.977   2.744   7.311  2.8180  3.5945 -0.6843
   37POPC  H12Y 5025   6.098   2.756   7.444  1.4053 -1.7818  1.1021
   37POPC  C313 5026   5.969   2.577   7.457 -0.1988  0.0206  0.3774
   37POPC  H13X 5027   6.035   2.554   7.543  1.1777 -2.1886 -1.1575
   37POPC  H13Y 5028   5.962   2.485   7.394  1.6413  0.2399 -0.2052
   37POPC  C314 5029   5.825   2.618   7.512  0.0624  0.2208  0.7883
   37POPC  H14X 5030   5.828   2.686   7.600  1.0442  0.8141  0.3208
   37POPC  H14Y 5031   5.769   2.527   7.544  0.1714  0.5408  1.9397
   37POPC  C315 5032   5.745   2.680   7.399  0.2982  0.1401  0.1447
   37POPC  H15X 5033   5.773   2.654   7.294  1.0364  4.2004 -0.8062
   37POPC  H15Y 5034   5.772   2.787   7.395  0.5038  0.1521  1.5862
   37POPC  C316 5035   5.594   2.666   7.436  0.2871 -0.0664  0.7382
   37POPC  H16X 5036   5.579   2.714   7.535  0.6854 -0.8721  1.1977
   37POPC  H16Y 5037   5.555   2.565   7.457  1.0921 -0.2310  1.5287
   37POPC  H16Z 5038   5.531   2.713   7.357 -1.3334 -0.3365  1.8331
   38POPC     N 5039   6.128   4.224   6.376  0.0090  0.1435  0.2557
   38POPC   C12 5040   6.188   4.297   6.494 -0.2904 -0.4778  0.5582
   38POPC  H12A 5041   6.113   4.299   6.572  0.7747 -0.6344  1.6195
   38POPC  H12B 5042   6.192   4.403   6.475 -1.6356 -0.5669 -0.3581
   38POPC   C13 5043   6.208   4.246   6.255  0.2196 -0.0292 -0.5947
   38POPC  H13A 5044   6.220   4.352   6.237 -0.6213 -0.0322 -1.2300
   38POPC  H13B 5045   6.306   4.203   6.266 -0.2418 -1.0123 -0.2717
   38POPC  H13C 5046   6.165   4.189   6.174  2.5466 -2.9706  0.0933
   38POPC   C14 5047   6.116   4.077   6.410  0.1977  0.0560  0.0540
   38POPC  H14A 5048   6.213   4.030   6.409 -0.2255 -0.8967 -1.3586
   38POPC  H14B 5049   6.062   4.065   6.502  0.5341 -0.0512  0.2380
   38POPC  H14C 5050   6.047   4.031   6.340 -1.5043  0.0359  1.6790
   38POPC   C15 5051   5.988   4.283   6.352  0.0601 -0.2796  0.3421
   38POPC  H15A 5052   5.997   4.389   6.330 -0.4145 -0.2035  0.5046
   38POPC  H15B 5053   5.909   4.274   6.426 -0.4428  2.8619  0.3563
   38POPC  H15C 5054   5.952   4.244   6.258  0.6653  3.4646 -1.6734
   38POPC   C11 5055   6.330   4.259   6.534  0.5306 -0.3262 -0.1672
   38POPC  H11A 5056   6.334   4.148   6.541 -1.2868 -0.4756 -0.8471
   38POPC  H11B 5057   6.344   4.300   6.636 -0.8454  0.1537 -0.1564
   38POPC     P 5058   6.562   4.232   6.411 -0.0121  0.1300 -0.0675
   38POPC   O13 5059   6.661   4.342   6.385 -0.3485 -0.1371 -0.1504
   38POPC   O14 5060   6.563   4.127   6.305 -0.5564 -0.7613 -0.7541
   38POPC   O12 5061   6.421   4.296   6.436 -0.9946 -0.2724  0.0975
   38POPC   O11 5062   6.594   4.160   6.549 -0.2595  0.1553 -0.1894
   38POPC    C1 5063   6.636   4.252   6.649 -0.1819 -0.0513 -0.3134
   38POPC    HA 5064   6.556   4.326   6.672 -1.5752 -1.1841 -1.3003
   38POPC    HB 5065   6.731   4.305   6.624 -0.4471  2.7979  3.6295
   38POPC    C2 5066   6.655   4.176   6.787  0.2801  0.1239  0.0366
   38POPC    HS 5067   6.736   4.105   6.759  1.9414  2.4030 -1.2892
   38POPC   O21 5068   6.529   4.108   6.816 -0.0234 -0.1726  0.4199
   38POPC   C21 5069   6.534   3.994   6.877  0.1301  0.3631 -0.1681
   38POPC   O22 5070   6.635   3.936   6.908 -0.0583 -0.1233 -0.1321
   38POPC   C22 5071   6.391   3.953   6.916  0.4136  0.1223  0.2937
   38POPC   H2R 5072   6.369   3.889   6.828 -1.5060  2.2187 -0.8677
   38POPC   H2S 5073   6.340   4.052   6.913  1.3376  0.5970 -0.3895
   38POPC    C3 5074   6.703   4.266   6.901 -0.1459 -0.5534  0.0429
   38POPC    HX 5075   6.650   4.364   6.900 -0.9428 -0.9815 -0.4028
   38POPC    HY 5076   6.809   4.291   6.880  0.0793  0.5685  2.2699
   38POPC   O31 5077   6.692   4.188   7.024  0.1678  0.2723 -0.7123
   38POPC   C31 5078   6.790   4.109   7.056 -0.4225 -0.3793  0.2959
   38POPC   O32 5079   6.888   4.102   6.989 -0.5572  0.5863 -0.3433
   38POPC   C32 5080   6.747   4.031   7.181  0.8295  0.5551  0.2659
   38POPC   H2X 5081   6.718   3.926   7.159  0.9982  0.6380 -0.3642
   38POPC   H2Y 5082   6.656   4.078   7.224  0.2120  0.9019 -1.3715
   38POPC   C23 5083   6.377   3.890   7.063 -0.3061 -0.6489 -0.3717
   38POPC   H3R 5084   6.272   3.908   7.095 -0.4573 -0.6348 -0.8619
   38POPC   H3S 5085   6.443   3.942   7.135  0.6808 -1.6690 -0.5090
   38POPC   C24 5086   6.413   3.739   7.082  0.3754 -0.7244 -0.7889
   38POPC   H4R 5087   6.524   3.729   7.083  0.4410 -0.2598  1.6631
   38POPC   H4S 5088   6.380   3.673   6.998  0.4899 -2.6192  0.5815
   38POPC   C25 5089   6.363   3.677   7.220 -0.0763 -0.6371  0.1689
   38POPC   H5R 5090   6.369   3.569   7.195 -0.8676 -0.7979  0.6439
   38POPC   H5S 5091   6.257   3.694   7.248  0.0522 -0.5097  0.5844
   38POPC   C26 5092   6.462   3.686   7.340  0.0265  0.5210 -0.3934
   38POPC   H6R 5093   6.451   3.789   7.381 -0.5351 -0.2099  1.3957
   38POPC   H6S 5094   6.559   3.674   7.288 -0.5255 -1.1252 -1.1166
   38POPC   C27 5095   6.449   3.575   7.445 -1.2737  0.3668 -0.1820
   38POPC   H7R 5096   6.509   3.492   7.403 -0.9303 -0.7706  2.3661
   38POPC   H7S 5097   6.343   3.541   7.452 -0.7582 -2.1279 -2.6509
   38POPC   C28 5098   6.497   3.593   7.594 -0.6770 -0.0050  0.5551
   38POPC   H8R 5099   6.436   3.673   7.641 -0.6947  0.8591 -0.9118
   38POPC   H8S 5100   6.602   3.628   7.585 -0.8564  0.6196  0.8495
   38POPC   C29 5101   6.502   3.463   7.669  0.2789  0.3676 -0.5692
   38POPC   H91 5102   6.557   3.377   7.626 -2.5195 -1.2531 -1.1548
   38POPC  C210 5103   6.428   3.425   7.780  0.7575  0.5575 -0.1990
   38POPC  H101 5104   6.433   3.320   7.813 -0.9672  0.4992 -0.0034
   38POPC  C211 5105   6.326   3.499   7.855  0.3374  0.0795  0.1385
   38POPC  H11R 5106   6.347   3.607   7.864 -3.5894  1.0174 -0.3796
   38POPC  H11S 5107   6.323   3.465   7.961 -1.4323  1.4257  0.5560
   38POPC  C212 5108   6.179   3.491   7.798 -0.1120  0.6329  0.1832
   38POPC  H12R 5109   6.144   3.387   7.776 -0.2242  1.3675 -3.7469
   38POPC  H12S 5110   6.174   3.554   7.707 -2.4398 -0.1764 -0.3299
   38POPC  C213 5111   6.076   3.556   7.896 -0.1129  0.1209 -0.1580
   38POPC  H13R 5112   6.088   3.665   7.914 -3.3947  0.6423 -0.6184
   38POPC  H13S 5113   6.088   3.514   7.999 -1.3152  1.0804  0.3914
   38POPC  C214 5114   5.930   3.530   7.847  0.1599  0.0236 -0.0144
   38POPC  H14R 5115   5.852   3.558   7.920 -1.9756 -1.4222 -1.6223
   38POPC  H14S 5116   5.910   3.422   7.830 -0.3578  0.5024 -3.0411
   38POPC  C215 5117   5.894   3.616   7.730  0.4018  0.1799  0.0627
   38POPC  H15R 5118   5.954   3.588   7.641  0.1718  1.9454 -0.6973
   38POPC  H15S 5119   5.909   3.723   7.754 -2.8326  0.8692 -0.5512
   38POPC  C216 5120   5.748   3.597   7.684 -0.0537 -0.4431  0.9988
   38POPC  H16R 5121   5.684   3.614   7.773  0.0391  0.0287  0.9749
   38POPC  H16S 5122   5.744   3.491   7.650 -2.2045 -0.0200 -0.2632
   38POPC  C217 5123   5.702   3.677   7.560 -0.4072 -0.4831 -0.0225
   38POPC  H17R 5124   5.592   3.662   7.564 -0.3532 -0.6642  1.0005
   38POPC  H17S 5125   5.744   3.636   7.465  2.0015  1.3715  0.1386
   38POPC  C218 5126   5.741   3.827   7.567 -0.8701 -0.2199  0.5195
   38POPC  H18R 5127   5.686   3.874   7.650 -1.5999  1.3603 -0.7938
   38POPC  H18S 5128   5.711   3.872   7.469  0.2586 -1.0542 -0.2386
   38POPC  H18T 5129   5.850   3.843   7.583 -0.8110 -0.5820  0.4887
   38POPC   C33 5130   6.862   4.022   7.286  0.6066 -0.4263 -0.8808
   38POPC   H3X 5131   6.898   4.126   7.305 -0.2645 -0.3335  0.3201
   38POPC   H3Y 5132   6.941   3.957   7.241  0.0746 -2.8122  1.4061
   38POPC   C34 5133   6.818   3.954   7.413 -0.2426 -0.1329 -0.1290
   38POPC   H4X 5134   6.904   3.948   7.484 -0.7091 -0.6227  0.4079
   38POPC   H4Y 5135   6.786   3.850   7.390  0.4335 -0.6256  1.0812
   38POPC   C35 5136   6.698   4.011   7.493  0.3112  0.0743 -0.2889
   38POPC   H5X 5137   6.604   4.023   7.436 -0.5090  1.1999  1.2377
   38POPC   H5Y 5138   6.729   4.111   7.531 -0.8453  0.9952 -1.6318
   38POPC   C36 5139   6.663   3.926   7.617  0.6222  0.8596 -0.4324
   38POPC   H6X 5140   6.670   3.817   7.592 -2.4887  0.1117  1.4509
   38POPC   H6Y 5141   6.564   3.940   7.663  1.4363 -0.3425  1.8227
   38POPC   C37 5142   6.757   3.960   7.740  0.6984  0.8016 -0.6888
   38POPC   H7X 5143   6.753   4.067   7.768  1.7738  0.7436 -0.2796
   38POPC   H7Y 5144   6.858   3.941   7.697  1.2891  0.2665  0.8825
   38POPC   C38 5145   6.727   3.861   7.860 -0.4221  0.6318  0.1073
   38POPC   H8X 5146   6.722   3.756   7.826 -0.4074  1.5876 -3.2008
   38POPC   H8Y 5147   6.630   3.899   7.898 -1.1419 -0.0962 -0.9730
   38POPC   C39 5148   6.842   3.872   7.964  0.1972  0.4313  0.2428
   38POPC   H9X 5149   6.938   3.866   7.908  0.6820  1.3008  0.9521
   38POPC   H9Y 5150   6.841   3.779   8.025  0.4209  0.5635  0.4513
   38POPC  C310 5151   6.846   3.997   8.046  0.0635 -0.4126 -0.4272
   38POPC  H10X 5152   6.751   4.019   8.099  0.9184  1.6122  0.3671
   38POPC  H10Y 5153   6.854   4.087   7.982 -0.9527 -1.0251 -1.4482
   38POPC  C311 5154   6.961   4.003   8.151 -0.8425  0.2784 -0.2611
   38POPC  H11X 5155   6.955   4.100   8.204 -1.4924  0.3103 -0.3814
   38POPC  H11Y 5156   7.058   4.000   8.097 -0.5214 -1.7699  0.3637
   38POPC  C312 5157   6.963   3.900   8.261 -0.0271 -0.5234 -0.4758
   38POPC  H12X 5158   7.040   3.930   8.335  0.6502 -1.1196 -0.9200
   38POPC  H12Y 5159   6.994   3.804   8.215 -1.0919 -1.9175  1.5437
   38POPC  C313 5160   6.826   3.886   8.338 -0.6851  0.4717 -0.3804
   38POPC  H13X 5161   6.839   3.811   8.419 -1.1399 -0.5665 -1.2636
   38POPC  H13Y 5162   6.747   3.850   8.270  1.7051 -1.4852 -2.3203
   38POPC  C314 5163   6.787   4.011   8.408  0.5491  0.1904  0.6048
   38POPC  H14X 5164   6.749   4.087   8.337  0.0046 -1.1234 -0.5482
   38POPC  H14Y 5165   6.869   4.051   8.471 -0.3771  1.9157  0.7771
   38POPC  C315 5166   6.669   3.993   8.503  0.0224 -0.2680 -0.4024
   38POPC  H15X 5167   6.701   3.922   8.582  0.5593  0.8502  0.4196
   38POPC  H15Y 5168   6.588   3.950   8.441  0.1844  0.3916 -1.0837
   38POPC  C316 5169   6.617   4.120   8.573 -0.4564 -0.0358  0.6021
   38POPC  H16X 5170   6.693   4.155   8.645 -0.1654  0.9730 -0.1809
   38POPC  H16Y 5171   6.525   4.098   8.631 -1.0985 -1.4300 -0.8551
   38POPC  H16Z 5172   6.593   4.206   8.507  3.7804  1.9966  1.4045
   39POPC     N 5173   3.768   6.511   6.105 -0.1910  0.0878  0.7198
   39POPC   C12 5174   3.633   6.570   6.099 -0.0273  0.7314  0.0704
   39POPC  H12A 5175   3.572   6.490   6.059 -0.0388  1.1469 -0.7773
   39POPC  H12B 5176   3.622   6.647   6.023 -0.5440 -2.5838 -3.5009
   39POPC   C13 5177   3.818   6.485   5.967  0.0027  0.4126 -0.9352
   39POPC  H13A 5178   3.925   6.474   5.968  0.1025  0.9811 -2.3590
   39POPC  H13B 5179   3.772   6.399   5.921  1.7706 -1.0957  0.0109
   39POPC  H13C 5180   3.788   6.575   5.915 -0.5334 -0.0673 -1.4683
   39POPC   C14 5181   3.870   6.608   6.166  0.2884  0.2178 -0.3404
   39POPC  H14A 5182   3.839   6.631   6.267 -2.2008 -1.2528 -0.6993
   39POPC  H14B 5183   3.971   6.569   6.170  1.0738  2.2260  0.9136
   39POPC  H14C 5184   3.870   6.697   6.106 -0.4017  0.5337  0.1229
   39POPC   C15 5185   3.773   6.386   6.187  0.0746  0.6433  0.2010
   39POPC  H15A 5186   3.746   6.402   6.291  1.5433 -1.6452  0.9994
   39POPC  H15B 5187   3.869   6.338   6.184  0.0614  0.6785 -1.5184
   39POPC  H15C 5188   3.696   6.316   6.157  1.3820 -1.4480  1.4761
   39POPC   C11 5189   3.583   6.610   6.237 -0.0551 -0.4073 -0.2751
   39POPC  H11A 5190   3.650   6.691   6.273  0.5218 -0.9413 -0.1213
   39POPC  H11B 5191   3.593   6.527   6.311 -3.7880 -0.4339  0.4061
   39POPC     P 5192   3.330   6.567   6.193  0.3241 -0.0109  0.0003
   39POPC   O13 5193   3.354   6.488   6.069  0.2246 -0.1397 -0.1650
   39POPC   O14 5194   3.203   6.647   6.196  0.2389 -0.3713  0.2784
   39POPC   O12 5195   3.449   6.659   6.233 -0.3083 -0.0584  0.3383
   39POPC   O11 5196   3.320   6.467   6.308 -0.0867  0.4777  0.0549
   39POPC    C1 5197   3.318   6.515   6.443  0.4212 -0.3634  0.6066
   39POPC    HA 5198   3.228   6.577   6.463  1.0458  0.9357 -0.4519
   39POPC    HB 5199   3.405   6.582   6.456  0.7884 -0.1422 -2.4210
   39POPC    C2 5200   3.331   6.408   6.555  0.5295  0.3291  0.1634
   39POPC    HS 5201   3.328   6.458   6.654 -0.0728 -1.1116  0.8884
   39POPC   O21 5202   3.448   6.334   6.537 -0.9016  0.1304  0.4580
   39POPC   C21 5203   3.560   6.399   6.570  0.2024  0.6754  0.4630
   39POPC   O22 5204   3.564   6.509   6.622 -0.0954 -0.2363 -0.0517
   39POPC   C22 5205   3.683   6.308   6.565  0.2318 -0.0601 -0.0914
   39POPC   H2R 5206   3.727   6.321   6.464 -2.1340 -0.5127 -1.2666
   39POPC   H2S 5207   3.657   6.200   6.576  0.5087 -0.0221  1.1015
   39POPC    C3 5208   3.207   6.315   6.543 -0.2492  0.2127 -0.0339
   39POPC    HX 5209   3.230   6.215   6.587  0.0250 -0.4878 -1.7138
   39POPC    HY 5210   3.195   6.287   6.437  1.5989 -2.5872  0.3755
   39POPC   O31 5211   3.088   6.382   6.578  0.2810 -0.3950  0.8958
   39POPC   C31 5212   3.056   6.383   6.705 -0.3834 -0.1346 -0.3207
   39POPC   O32 5213   3.126   6.331   6.792 -0.9144 -0.5893  0.4647
   39POPC   C32 5214   2.929   6.454   6.728  0.2548 -0.4975  0.9799
   39POPC   H2X 5215   2.932   6.517   6.820 -1.4718  0.7421  0.2492
   39POPC   H2Y 5216   2.916   6.523   6.642  0.2844 -0.6496  0.8524
   39POPC   C23 5217   3.790   6.340   6.674 -0.2813 -0.6794  0.4983
   39POPC   H3R 5218   3.811   6.449   6.676 -1.0226 -0.5173  2.7964
   39POPC   H3S 5219   3.880   6.289   6.635  0.1893  1.9831 -2.2555
   39POPC   C24 5220   3.750   6.296   6.811  0.1012  0.5502  0.0964
   39POPC   H4R 5221   3.721   6.189   6.803 -0.8020  0.6411  1.7427
   39POPC   H4S 5222   3.653   6.340   6.842 -1.2935 -0.7410 -2.1528
   39POPC   C25 5223   3.861   6.317   6.907 -0.3947 -0.2591 -0.2132
   39POPC   H5R 5224   3.882   6.426   6.910  1.8378 -0.6608  0.8153
   39POPC   H5S 5225   3.948   6.256   6.873 -0.2636  0.0124 -0.3660
   39POPC   C26 5226   3.828   6.271   7.047  0.2819  0.6068 -0.4091
   39POPC   H6R 5227   3.919   6.234   7.099  0.8188  2.5758  0.1349
   39POPC   H6S 5228   3.758   6.184   7.042 -1.3255  1.8942 -1.2490
   39POPC   C27 5229   3.760   6.376   7.142 -0.4284  0.4236 -0.0133
   39POPC   H7R 5230   3.667   6.416   7.096 -1.4431  2.1476  3.1755
   39POPC   H7S 5231   3.827   6.464   7.153  1.5041 -1.0600  0.5423
   39POPC   C28 5232   3.698   6.319   7.270  0.1971 -0.5780  0.6616
   39POPC   H8R 5233   3.644   6.227   7.241 -0.1193 -1.2316  3.0508
   39POPC   H8S 5234   3.636   6.400   7.314 -0.6823  0.5759 -2.4402
   39POPC   C29 5235   3.808   6.285   7.371  0.0578  0.9350 -0.5067
   39POPC   H91 5236   3.898   6.238   7.328 -0.7349 -2.5373  1.2859
   39POPC  C210 5237   3.798   6.306   7.502 -0.4088 -0.4232  0.4992
   39POPC  H101 5238   3.878   6.261   7.563 -0.0647  0.0696  0.4179
   39POPC  C211 5239   3.681   6.373   7.582  0.2231  0.1754  0.4554
   39POPC  H11R 5240   3.584   6.352   7.533  0.7319 -0.5821 -0.2615
   39POPC  H11S 5241   3.693   6.484   7.587  2.9174  0.1225 -1.9025
   39POPC  C212 5242   3.669   6.315   7.725  0.8099  0.4355 -0.3448
   39POPC  H12R 5243   3.679   6.205   7.717 -2.4028  0.1680 -1.9340
   39POPC  H12S 5244   3.571   6.342   7.770  1.0077 -0.8176  0.9127
   39POPC  C213 5245   3.781   6.371   7.802 -0.7758 -0.1080  0.3622
   39POPC  H13R 5246   3.764   6.481   7.811 -0.9567 -0.1438  0.4548
   39POPC  H13S 5247   3.879   6.355   7.753 -1.0220 -1.4127  0.2669
   39POPC  C214 5248   3.804   6.290   7.932 -0.0795  0.3897 -0.1107
   39POPC  H14R 5249   3.913   6.292   7.951  0.2564  1.2078 -1.8492
   39POPC  H14S 5250   3.769   6.186   7.917  0.7060  0.1721 -0.4570
   39POPC  C215 5251   3.726   6.355   8.051 -0.6672  0.3360  0.9792
   39POPC  H15R 5252   3.622   6.372   8.016 -0.0528 -0.8504 -1.7069
   39POPC  H15S 5253   3.774   6.449   8.085 -1.4682  1.9219 -1.9205
   39POPC  C216 5254   3.719   6.266   8.174 -0.2441  0.1418 -0.1734
   39POPC  H16R 5255   3.823   6.251   8.209 -0.6309 -2.3051  0.1266
   39POPC  H16S 5256   3.679   6.168   8.138 -1.1961  0.8983 -1.2305
   39POPC  C217 5257   3.629   6.298   8.299  0.2152 -0.3670 -0.4234
   39POPC  H17R 5258   3.654   6.228   8.382  0.5018 -1.0858 -1.1025
   39POPC  H17S 5259   3.521   6.297   8.274  0.3839 -0.2320 -1.2035
   39POPC  C218 5260   3.671   6.437   8.337 -0.4296 -0.1776 -0.2856
   39POPC  H18R 5261   3.781   6.454   8.346 -0.0932 -1.7767 -1.0051
   39POPC  H18S 5262   3.618   6.463   8.430 -0.7447 -1.9350  0.0545
   39POPC  H18T 5263   3.627   6.511   8.266 -2.2607 -0.2029  0.7703
   39POPC   C33 5264   2.800   6.368   6.727  0.0482 -0.3477 -0.0742
   39POPC   H3X 5265   2.792   6.299   6.640  0.8293  1.6347 -1.7738
   39POPC   H3Y 5266   2.718   6.443   6.716  0.0558  0.0155  1.9011
   39POPC   C34 5267   2.782   6.283   6.850  0.0698  0.4151 -0.6260
   39POPC   H4X 5268   2.874   6.222   6.862  0.6250  1.1061 -1.2980
   39POPC   H4Y 5269   2.705   6.204   6.833 -0.3144  0.4291  0.9085
   39POPC   C35 5270   2.753   6.356   6.978  0.1153 -0.4833 -0.6695
   39POPC   H5X 5271   2.663   6.420   6.968 -0.2990 -0.9392  0.0557
   39POPC   H5Y 5272   2.844   6.411   7.012 -0.5045 -0.0563  0.3679
   39POPC   C36 5273   2.696   6.259   7.085  0.0018  0.3734  0.5595
   39POPC   H6X 5274   2.774   6.181   7.097 -0.1581  0.3270  1.3162
   39POPC   H6Y 5275   2.608   6.203   7.046  1.1096 -1.5479  0.6975
   39POPC   C37 5276   2.661   6.330   7.214 -0.1716  0.1194  0.6872
   39POPC   H7X 5277   2.588   6.408   7.184  1.0951 -0.3264 -4.7530
   39POPC   H7Y 5278   2.755   6.370   7.255 -0.4306  1.2155  0.2464
   39POPC   C38 5279   2.592   6.226   7.309 -0.2820  0.0067 -0.4134
   39POPC   H8X 5280   2.655   6.135   7.294 -1.2687 -0.4164 -2.3627
   39POPC   H8Y 5281   2.489   6.194   7.281  0.2409 -2.8871  0.5889
   39POPC   C39 5282   2.583   6.286   7.447  0.2702  0.8008 -0.5155
   39POPC   H9X 5283   2.500   6.358   7.460 -2.1051 -1.8711  0.2513
   39POPC   H9Y 5284   2.674   6.346   7.467  0.3699  0.0235  1.7138
   39POPC  C310 5285   2.574   6.178   7.555  0.0833 -0.4780 -0.0751
   39POPC  H10X 5286   2.667   6.117   7.545  0.1600 -0.7712  1.9779
   39POPC  H10Y 5287   2.488   6.109   7.538 -0.1154 -0.4357  0.6993
   39POPC  C311 5288   2.578   6.240   7.701 -0.3230 -0.1857 -0.4474
   39POPC  H11X 5289   2.679   6.270   7.734 -0.3517 -0.9028  0.3349
   39POPC  H11Y 5290   2.562   6.149   7.762  0.4810 -0.6906 -0.9715
   39POPC  C312 5291   2.471   6.337   7.738 -0.4630 -0.7736  0.0482
   39POPC  H12X 5292   2.384   6.302   7.679  0.1858 -0.5758 -1.0533
   39POPC  H12Y 5293   2.491   6.443   7.711 -1.2795  0.4459  3.6248
   39POPC  C313 5294   2.430   6.320   7.881 -0.6357  0.5186 -0.3038
   39POPC  H13X 5295   2.372   6.226   7.880 -0.6440  0.4748 -2.7106
   39POPC  H13Y 5296   2.373   6.410   7.912  0.0888  0.0899  2.4809
   39POPC  C314 5297   2.544   6.306   7.991 -0.1843 -1.0873  0.9655
   39POPC  H14X 5298   2.601   6.212   7.978  0.1956 -0.8706  1.0484
   39POPC  H14Y 5299   2.492   6.288   8.087  1.8328 -0.1224  2.3188
   39POPC  C315 5300   2.640   6.424   7.987 -0.3153  0.0314  0.2212
   39POPC  H15X 5301   2.658   6.451   7.881 -0.9878  0.5205  0.2295
   39POPC  H15Y 5302   2.737   6.391   8.031 -0.5312 -0.6172  0.2269
   39POPC  C316 5303   2.584   6.550   8.052 -0.3200 -0.1511 -0.0311
   39POPC  H16X 5304   2.653   6.635   8.035 -0.9678  0.1127 -1.5193
   39POPC  H16Y 5305   2.578   6.535   8.162  0.0615 -0.5221 -0.0594
   39POPC  H16Z 5306   2.481   6.577   8.019 -0.4926  2.0869  2.0491
   40POPC     N 5307   4.386   3.927   6.078  0.1142 -0.7910 -0.5638
   40POPC   C12 5308   4.263   3.991   6.144 -0.2575  0.2017  0.2286
   40POPC  H12A 5309   4.231   3.937   6.232  1.1031 -1.9597 -0.5240
   40POPC  H12B 5310   4.185   3.979   6.071 -0.8001 -4.3900  1.2552
   40POPC   C13 5311   4.509   3.943   6.164  0.1805 -0.3162 -0.3209
   40POPC  H13A 5312   4.499   3.974   6.267  0.0042 -0.0099 -0.4291
   40POPC  H13B 5313   4.580   3.861   6.160  0.1039 -0.3541 -1.2754
   40POPC  H13C 5314   4.558   4.027   6.117 -1.7592 -0.1249 -2.1387
   40POPC   C14 5315   4.371   3.781   6.060 -0.6071  0.3391  0.0805
   40POPC  H14A 5316   4.339   3.724   6.146 -1.9750 -2.8247 -2.3243
   40POPC  H14B 5317   4.297   3.757   5.985  1.8175 -1.0170 -2.0204
   40POPC  H14C 5318   4.453   3.733   6.010 -1.2936 -0.7314 -0.0447
   40POPC   C15 5319   4.416   3.969   5.938  0.0215 -0.7878 -0.4278
   40POPC  H15A 5320   4.431   4.076   5.937 -2.3471 -0.3829  0.0736
   40POPC  H15B 5321   4.335   3.938   5.874 -0.9379  2.2570 -0.8572
   40POPC  H15C 5322   4.499   3.911   5.901 -0.3025 -0.5181 -1.6305
   40POPC   C11 5323   4.264   4.143   6.175  0.0295 -0.4121 -0.0938
   40POPC  H11A 5324   4.169   4.181   6.218  0.6190  1.5676 -0.4232
   40POPC  H11B 5325   4.273   4.190   6.075  2.2464  2.1774  1.1836
   40POPC     P 5326   4.398   4.171   6.402 -0.0727  0.4325 -0.1029
   40POPC   O13 5327   4.356   4.304   6.463 -0.2091  0.4370 -0.8321
   40POPC   O14 5328   4.531   4.112   6.434  1.0461  0.6836  0.4784
   40POPC   O12 5329   4.376   4.182   6.245 -0.0679 -0.2874  0.6833
   40POPC   O11 5330   4.292   4.067   6.430  0.2548 -0.0726 -0.3410
   40POPC    C1 5331   4.155   4.079   6.477 -0.2085  0.1532  0.6555
   40POPC    HA 5332   4.098   4.004   6.419  0.8022 -1.8274  2.1215
   40POPC    HB 5333   4.119   4.182   6.454  0.0446  0.0255 -0.3516
   40POPC    C2 5334   4.141   4.056   6.625 -0.0240 -0.1994 -0.1990
   40POPC    HS 5335   4.034   4.074   6.649 -0.6066 -2.4140 -0.8890
   40POPC   O21 5336   4.227   4.152   6.697  0.3400  0.4921  0.0991
   40POPC   C21 5337   4.172   4.265   6.718 -0.8961 -0.2617  0.4172
   40POPC   O22 5338   4.058   4.298   6.699  0.0333 -0.4293 -0.8095
   40POPC   C22 5339   4.280   4.353   6.777 -0.5815 -1.2756  0.9693
   40POPC   H2R 5340   4.379   4.321   6.737 -0.3970 -0.7247  0.9723
   40POPC   H2S 5341   4.283   4.331   6.886 -2.3453  1.0610  1.5866
   40POPC    C3 5342   4.160   3.919   6.679 -0.0698  0.4823 -0.8301
   40POPC    HX 5343   4.119   3.927   6.782 -2.5949  1.2147 -1.8293
   40POPC    HY 5344   4.267   3.887   6.682  0.3329  1.7969 -0.5495
   40POPC   O31 5345   4.082   3.819   6.610  0.3444  0.0339  0.2030
   40POPC   C31 5346   3.969   3.771   6.664 -0.2992 -0.8202 -0.2845
   40POPC   O32 5347   3.904   3.826   6.750 -0.0866 -0.6179 -0.4720
   40POPC   C32 5348   3.927   3.646   6.585 -0.3824 -0.3197 -0.8656
   40POPC   H2X 5349   4.002   3.620   6.507 -1.3102 -1.0629 -1.5376
   40POPC   H2Y 5350   3.832   3.673   6.534  0.0739 -1.1142 -2.1839
   40POPC   C23 5351   4.265   4.507   6.773 -0.3973 -0.5005 -0.0968
   40POPC   H3R 5352   4.193   4.547   6.848 -0.6698 -0.5292 -0.3416
   40POPC   H3S 5353   4.246   4.544   6.670 -0.0508  1.6292  0.5405
   40POPC   C24 5354   4.402   4.565   6.810 -0.3652  0.3881  0.3395
   40POPC   H4R 5355   4.413   4.676   6.810 -3.6137  0.8149  0.8876
   40POPC   H4S 5356   4.467   4.526   6.729 -0.4498  0.5227  0.2068
   40POPC   C25 5357   4.442   4.526   6.951  0.7915  0.6441  0.1084
   40POPC   H5R 5358   4.483   4.424   6.965  0.7541  0.4961 -0.7801
   40POPC   H5S 5359   4.349   4.525   7.011 -0.2498  2.2866 -1.3818
   40POPC   C26 5360   4.538   4.626   7.008 -0.1283 -0.3149 -0.6904
   40POPC   H6R 5361   4.479   4.718   7.031 -0.5446  0.1429 -3.2889
   40POPC   H6S 5362   4.604   4.649   6.922 -1.1893  1.4573 -1.0846
   40POPC   C27 5363   4.613   4.564   7.137  0.0149  0.2297 -0.0025
   40POPC   H7R 5364   4.640   4.461   7.105 -1.4824  0.2784 -1.6048
   40POPC   H7S 5365   4.536   4.556   7.217  1.2520 -2.0551  1.0453
   40POPC   C28 5366   4.721   4.653   7.200  0.0256  0.2526  0.3301
   40POPC   H8R 5367   4.751   4.612   7.298  1.5553 -1.0532 -0.6376
   40POPC   H8S 5368   4.674   4.754   7.208  0.2295  0.2679  1.5510
   40POPC   C29 5369   4.848   4.661   7.116  0.5805 -0.1212  0.0790
   40POPC   H91 5370   4.834   4.725   7.027  0.8026 -0.2677 -0.0657
   40POPC  C210 5371   4.966   4.594   7.133 -0.6254 -0.0563  0.4211
   40POPC  H101 5372   5.042   4.606   7.055  0.0617 -1.4573  0.8468
   40POPC  C211 5373   5.005   4.506   7.249  0.1175 -0.9133  0.2081
   40POPC  H11R 5374   5.076   4.429   7.210 -0.4943 -1.6376  0.4908
   40POPC  H11S 5375   4.913   4.459   7.289 -0.1631  0.4462  1.2200
   40POPC  C212 5376   5.072   4.579   7.362 -0.2856 -0.0491 -0.3232
   40POPC  H12R 5377   4.990   4.639   7.407  1.4031  1.3998  0.9969
   40POPC  H12S 5378   5.156   4.647   7.335  2.7108 -3.6803 -1.0439
   40POPC  C213 5379   5.122   4.486   7.482 -0.1627  0.2739  0.8087
   40POPC  H13R 5380   5.228   4.461   7.462 -0.8073 -1.0694 -1.1721
   40POPC  H13S 5381   5.063   4.392   7.484 -1.2989  0.9689  0.6467
   40POPC  C214 5382   5.124   4.569   7.607 -0.3797 -0.4526 -0.3322
   40POPC  H14R 5383   5.021   4.597   7.637  0.7076  1.5719  1.8459
   40POPC  H14S 5384   5.176   4.667   7.593 -0.2300 -0.6204 -1.0341
   40POPC  C215 5385   5.199   4.497   7.724 -0.0893 -0.0256 -0.1188
   40POPC  H15R 5386   5.303   4.463   7.707 -0.4386 -1.0307 -0.3396
   40POPC  H15S 5387   5.145   4.401   7.741  2.2176 -1.2950  0.4190
   40POPC  C216 5388   5.188   4.582   7.850 -1.1597 -0.1379 -0.3144
   40POPC  H16R 5389   5.089   4.632   7.853 -3.2428 -3.8915 -0.9383
   40POPC  H16S 5390   5.270   4.657   7.854  1.2955 -2.6503 -0.3940
   40POPC  C217 5391   5.181   4.493   7.979 -0.0103  0.2432  0.0766
   40POPC  H17R 5392   5.268   4.423   7.975 -1.1998 -1.3664  1.1397
   40POPC  H17S 5393   5.087   4.435   7.979  1.7043 -2.7577  0.0653
   40POPC  C218 5394   5.188   4.582   8.099 -0.7105 -0.4876  0.9279
   40POPC  H18R 5395   5.204   4.531   8.196  0.1352 -0.3365  0.8739
   40POPC  H18S 5396   5.092   4.637   8.109 -1.1585 -1.0507 -0.1007
   40POPC  H18T 5397   5.287   4.632   8.102  1.0671 -3.7100  0.7049
   40POPC   C33 5398   3.915   3.534   6.687  0.9043 -0.0636  0.3590
   40POPC   H3X 5399   3.836   3.469   6.642  1.2449 -0.4371  0.2951
   40POPC   H3Y 5400   3.858   3.579   6.771 -0.6270 -0.9162 -0.1712
   40POPC   C34 5401   4.034   3.452   6.735  0.3056  0.6416 -0.2519
   40POPC   H4X 5402   4.124   3.511   6.763  1.5193 -1.9217  1.5756
   40POPC   H4Y 5403   4.066   3.388   6.650 -2.2806 -0.3618 -0.5719
   40POPC   C35 5404   4.004   3.357   6.847  0.2001  0.1751 -0.2480
   40POPC   H5X 5405   4.089   3.285   6.854  0.3715  0.4011  0.0079
   40POPC   H5Y 5406   3.909   3.303   6.824  0.2756  0.3404 -0.9690
   40POPC   C36 5407   4.005   3.427   6.993  0.0944  0.3394 -0.2089
   40POPC   H6X 5408   3.929   3.507   7.007 -2.7365 -2.3018  0.6210
   40POPC   H6Y 5409   4.104   3.476   7.003  0.7646 -1.1913  1.0111
   40POPC   C37 5410   3.994   3.327   7.116 -0.4204  0.2116  0.3933
   40POPC   H7X 5411   4.079   3.258   7.094 -0.1074  1.3160 -2.2805
   40POPC   H7Y 5412   3.892   3.285   7.113 -1.7335  3.1279  0.4609
   40POPC   C38 5413   4.019   3.389   7.254  0.4002 -0.5480 -0.3431
   40POPC   H8X 5414   3.997   3.498   7.261  0.9506 -0.4415 -0.2265
   40POPC   H8Y 5415   4.125   3.367   7.281  0.2962 -1.6662 -0.7908
   40POPC   C39 5416   3.937   3.317   7.365 -0.1798 -0.5206  0.0251
   40POPC   H9X 5417   3.963   3.210   7.350  0.0358 -0.3396 -0.9632
   40POPC   H9Y 5418   3.829   3.334   7.348 -0.0600  0.7159  0.4008
   40POPC  C310 5419   3.980   3.356   7.508  0.2267  0.0037 -0.4691
   40POPC  H10X 5420   3.963   3.465   7.520 -0.6708 -0.2720  0.9591
   40POPC  H10Y 5421   4.089   3.339   7.522  0.2862  0.9248  0.2586
   40POPC  C311 5422   3.925   3.269   7.617 -0.3108  0.1189  0.4546
   40POPC  H11X 5423   3.975   3.171   7.629 -2.0048 -0.7710  0.5865
   40POPC  H11Y 5424   3.816   3.255   7.599 -0.2591  0.7041 -0.3945
   40POPC  C312 5425   3.956   3.342   7.752  0.3107  0.2922 -0.2144
   40POPC  H12X 5426   3.943   3.452   7.764  0.3653  0.1807  1.0081
   40POPC  H12Y 5427   4.066   3.347   7.755  0.3772  1.6643 -2.6560
   40POPC  C313 5428   3.891   3.260   7.858  0.0908  0.4726 -0.5407
   40POPC  H13X 5429   3.901   3.150   7.857  0.3510  0.4364  1.3764
   40POPC  H13Y 5430   3.780   3.268   7.850 -0.1482 -0.6180  1.1438
   40POPC  C314 5431   3.947   3.312   7.994 -0.1068 -0.2855  0.9639
   40POPC  H14X 5432   3.943   3.421   8.013  2.7521 -0.2614  1.9270
   40POPC  H14Y 5433   4.056   3.292   8.001  0.2475  0.8342 -0.6680
   40POPC  C315 5434   3.876   3.242   8.110  0.1845  0.3415  0.3253
   40POPC  H15X 5435   3.945   3.241   8.197  1.3622 -2.7598 -0.5175
   40POPC  H15Y 5436   3.862   3.135   8.087 -0.9622  0.5676 -0.0928
   40POPC  C316 5437   3.742   3.304   8.150  0.7626 -0.6029 -0.0911
   40POPC  H16X 5438   3.756   3.409   8.184 -0.1209  0.1313 -1.8274
   40POPC  H16Y 5439   3.706   3.249   8.240  0.9733  0.8842  0.9376
   40POPC  H16Z 5440   3.655   3.301   8.081 -0.6255  1.5047  1.4207
   41CHL1    C3 5441   3.851   3.779   9.833 -0.1539  0.9796 -0.7448
   41CHL1    H3 5442   3.907   3.818   9.745 -0.3455  2.2884 -0.3101
   41CHL1    O3 5443   3.863   3.874   9.939 -0.2522 -0.3705  0.6005
   41CHL1   H3' 5444   3.954   3.867   9.968 -0.5616  0.0612  1.7565
   41CHL1    C4 5445   3.697   3.768   9.799  0.3870  0.0778 -0.1225
   41CHL1   H4A 5446   3.637   3.734   9.886 -2.9887  1.3468 -1.7865
   41CHL1   H4B 5447   3.680   3.876   9.780  1.5145  0.5047  1.1533
   41CHL1    C5 5448   3.682   3.667   9.689  0.2189 -0.3158 -0.1517
   41CHL1    C6 5449   3.634   3.703   9.565 -0.0704  0.0223  0.0085
   41CHL1    H6 5450   3.582   3.799   9.552  0.6775  0.0391 -4.0377
   41CHL1    C7 5451   3.627   3.606   9.449 -0.4968  0.6789  0.1296
   41CHL1   H7A 5452   3.529   3.609   9.397 -1.7544  1.6307  2.4347
   41CHL1   H7B 5453   3.703   3.631   9.371 -1.2568  1.1956 -0.4648
   41CHL1    C8 5454   3.663   3.461   9.486 -0.5077 -0.0119 -0.0276
   41CHL1    H8 5455   3.574   3.412   9.532  1.1696 -2.1585  1.0936
   41CHL1   C14 5456   3.700   3.388   9.361 -0.5091 -0.0342  0.6944
   41CHL1   H14 5457   3.797   3.424   9.321 -0.1223 -0.3266  1.3395
   41CHL1   C15 5458   3.602   3.392   9.242  0.3570 -0.0349 -0.2267
   41CHL1  H15A 5459   3.508   3.392   9.302  1.4049 -0.5629  1.5038
   41CHL1  H15B 5460   3.614   3.481   9.177  2.8069 -1.4919 -1.9424
   41CHL1   C16 5461   3.614   3.266   9.160 -0.3836 -0.3021  0.2044
   41CHL1  H16A 5462   3.514   3.218   9.151 -1.4526  1.7719  0.5510
   41CHL1  H16B 5463   3.655   3.287   9.059 -0.8224  0.7913  0.2432
   41CHL1   C17 5464   3.718   3.177   9.244  0.5730 -0.0206  0.9924
   41CHL1   H17 5465   3.818   3.196   9.201 -0.5942  1.9304 -1.0977
   41CHL1   C13 5466   3.718   3.237   9.387 -0.0046  0.2199  0.2897
   41CHL1   C18 5467   3.598   3.177   9.458 -0.2658 -0.0237 -0.2465
   41CHL1  H18A 5468   3.517   3.185   9.383  0.5730  0.6951 -1.0980
   41CHL1  H18B 5469   3.614   3.071   9.487 -0.9502 -0.3786 -1.1335
   41CHL1  H18C 5470   3.574   3.223   9.556 -0.5867 -1.8921  0.6005
   41CHL1   C12 5471   3.844   3.232   9.460  0.3528 -0.4322  0.2400
   41CHL1  H12A 5472   3.874   3.127   9.476 -0.5562 -1.1074 -2.1655
   41CHL1  H12B 5473   3.928   3.272   9.399 -1.3270 -0.7546 -2.4255
   41CHL1   C11 5474   3.836   3.304   9.599 -0.1661  0.0393  0.5011
   41CHL1  H11A 5475   3.767   3.237   9.654 -3.1725  0.4870 -2.3630
   41CHL1  H11B 5476   3.928   3.303   9.660 -0.1278 -0.6299  0.4312
   41CHL1    C9 5477   3.778   3.452   9.592 -0.4599  0.3712  0.2963
   41CHL1    H9 5478   3.865   3.495   9.539 -0.0463 -1.9017 -1.0025
   41CHL1   C10 5479   3.747   3.527   9.725  0.0664 -0.3093  0.4029
   41CHL1   C19 5480   3.644   3.445   9.810 -0.7877  0.6451 -0.3415
   41CHL1  H19A 5481   3.667   3.337   9.823 -1.8844  0.5287  0.8514
   41CHL1  H19B 5482   3.628   3.494   9.908  0.0222  0.0992  0.0819
   41CHL1  H19C 5483   3.547   3.454   9.757 -1.4331 -2.1752  0.1932
   41CHL1    C1 5484   3.878   3.535   9.804 -0.3513 -0.4667 -0.4192
   41CHL1   H1A 5485   3.909   3.450   9.869 -0.3937 -0.2309 -0.0915
   41CHL1   H1B 5486   3.959   3.514   9.731 -0.1366  0.8586 -0.5865
   41CHL1    C2 5487   3.900   3.651   9.894 -0.0494  0.6344  0.1417
   41CHL1   H2A 5488   4.007   3.656   9.924  0.2763 -2.0153 -0.3097
   41CHL1   H2B 5489   3.843   3.623   9.985  0.1554 -1.3679 -0.2813
   41CHL1   C20 5490   3.678   3.032   9.209 -0.1039 -0.1602  0.9572
   41CHL1   H20 5491   3.581   3.009   9.257 -0.7577  2.2422  0.8919
   41CHL1   C21 5492   3.778   2.933   9.270  0.4238 -0.4140 -0.6685
   41CHL1  H21A 5493   3.761   2.825   9.248 -2.0550 -0.1649 -0.2035
   41CHL1  H21B 5494   3.778   2.943   9.381 -0.7545  0.9215 -0.7687
   41CHL1  H21C 5495   3.884   2.961   9.249 -0.4571  2.6189 -1.5393
   41CHL1   C22 5496   3.663   3.007   9.057  0.5834  0.2989  0.3663
   41CHL1  H22A 5497   3.644   2.901   9.030  1.2411 -0.0329  1.1910
   41CHL1  H22B 5498   3.574   3.061   9.019  0.7271  0.9930  0.9967
   41CHL1   C23 5499   3.791   3.032   8.982  0.3568 -0.1350  0.1641
   41CHL1  H23A 5500   3.819   3.140   8.987  0.0434 -0.0762  0.6604
   41CHL1  H23B 5501   3.878   2.972   9.017  1.3455 -0.1541 -2.1617
   41CHL1   C24 5502   3.768   3.001   8.834 -0.3038  0.6776  0.2430
   41CHL1  H24A 5503   3.716   2.904   8.815 -0.5120  1.0241 -1.0466
   41CHL1  H24B 5504   3.696   3.077   8.796  0.9010  1.0102 -1.4701
   41CHL1   C25 5505   3.893   3.002   8.743  0.2040  0.0948  0.5960
   41CHL1   H25 5506   3.951   3.094   8.767 -0.2821  0.3626  0.7643
   41CHL1   C26 5507   3.986   2.880   8.760  0.0792  0.8687  0.0462
   41CHL1  H26A 5508   4.000   2.849   8.865 -0.5462  0.1182 -0.0871
   41CHL1  H26B 5509   3.932   2.792   8.719  1.3362  0.2518 -0.3078
   41CHL1  H26C 5510   4.086   2.902   8.717  1.0515 -0.4806  1.5479
   41CHL1   C27 5511   3.854   3.016   8.592  0.0274  0.3508  0.5510
   41CHL1  H27A 5512   3.814   2.917   8.562  2.1226 -0.3940  0.0357
   41CHL1  H27B 5513   3.779   3.097   8.578 -0.7874 -0.6128 -0.8493
   41CHL1  H27C 5514   3.943   3.029   8.527 -1.3420  1.2346 -1.2258
   42CHL1    C3 5515   3.332   4.891   9.805  0.7885  0.4205 -0.6684
   42CHL1    H3 5516   3.442   4.872   9.805  0.7090 -0.1074 -1.7470
   42CHL1    O3 5517   3.284   4.949   9.928 -0.1705  0.8085 -0.4949
   42CHL1   H3' 5518   3.366   4.976   9.969 -0.2620  2.4306 -1.3132
   42CHL1    C4 5519   3.291   4.989   9.694 -0.0066 -0.8382  0.4144
   42CHL1   H4A 5520   3.184   5.018   9.696  0.2116  0.1586 -1.0026
   42CHL1   H4B 5521   3.351   5.081   9.710 -1.5427  0.4455 -0.8836
   42CHL1    C5 5522   3.323   4.936   9.560  0.6492 -0.4074  0.5162
   42CHL1    C6 5523   3.391   5.008   9.471 -0.3492  0.4789 -0.7324
   42CHL1    H6 5524   3.428   5.105   9.507 -1.8376  0.3926  1.1923
   42CHL1    C7 5525   3.418   4.960   9.332 -0.2719  0.1506 -0.6030
   42CHL1   H7A 5526   3.398   5.038   9.255 -0.6298  1.6213  0.9115
   42CHL1   H7B 5527   3.525   4.930   9.326 -0.3636 -0.6459  1.2011
   42CHL1    C8 5528   3.317   4.848   9.288 -0.8249 -0.6240  0.7596
   42CHL1    H8 5529   3.215   4.892   9.285 -0.3472  1.0721  4.0849
   42CHL1   C14 5530   3.353   4.787   9.152  0.7989 -1.0794 -0.5230
   42CHL1   H14 5531   3.459   4.754   9.153  1.5694  1.2032  0.7903
   42CHL1   C15 5532   3.350   4.884   9.034  0.3069  0.2024  0.2983
   42CHL1  H15A 5533   3.251   4.934   9.025 -0.3326 -0.4537  3.0043
   42CHL1  H15B 5534   3.421   4.970   9.037  0.2137  0.2577  0.9621
   42CHL1   C16 5535   3.356   4.791   8.913 -0.5384 -0.2533 -0.4813
   42CHL1  H16A 5536   3.273   4.818   8.843  0.3914  0.1849 -1.4348
   42CHL1  H16B 5537   3.452   4.797   8.858 -0.3578 -0.0567 -0.1484
   42CHL1   C17 5538   3.342   4.647   8.971 -0.2260  0.2586  0.1676
   42CHL1   H17 5539   3.445   4.616   8.997  0.7646 -0.5342 -4.0026
   42CHL1   C13 5540   3.278   4.660   9.112 -0.3361  0.0358  0.1403
   42CHL1   C18 5541   3.125   4.689   9.090  0.8414 -0.1657  0.1154
   42CHL1  H18A 5542   3.110   4.736   8.991  1.0363  0.8594  0.5618
   42CHL1  H18B 5543   3.064   4.596   9.085 -2.0704  1.5525  1.6084
   42CHL1  H18C 5544   3.088   4.750   9.175 -0.5532 -2.2861  1.1173
   42CHL1   C12 5545   3.301   4.545   9.215  0.4705 -0.2623  0.6041
   42CHL1  H12A 5546   3.240   4.456   9.190  1.3597 -0.8101  0.3021
   42CHL1  H12B 5547   3.410   4.525   9.221  0.7468  1.4565  2.3258
   42CHL1   C11 5548   3.251   4.603   9.353 -0.4068  0.1983  0.2558
   42CHL1  H11A 5549   3.140   4.610   9.355 -0.5805 -2.0581  0.8925
   42CHL1  H11B 5550   3.271   4.515   9.417  1.8830 -0.9085 -1.7966
   42CHL1    C9 5551   3.314   4.737   9.396 -0.2641  0.1080 -0.5284
   42CHL1    H9 5552   3.420   4.705   9.408  0.1463  1.4892 -0.3219
   42CHL1   C10 5553   3.262   4.797   9.529  0.0790  0.9521  0.2421
   42CHL1   C19 5554   3.102   4.822   9.522 -0.1595  0.8332 -0.0723
   42CHL1  H19A 5555   3.063   4.871   9.614  3.2789 -0.2221  2.1730
   42CHL1  H19B 5556   3.071   4.877   9.430  0.0791 -0.3810 -0.8923
   42CHL1  H19C 5557   3.064   4.719   9.507  0.2386  0.8681 -1.4307
   42CHL1    C1 5558   3.300   4.699   9.636  0.1813 -0.2877  0.2435
   42CHL1   H1A 5559   3.249   4.601   9.622 -0.4982  0.2097 -1.0225
   42CHL1   H1B 5560   3.407   4.677   9.618 -0.5822 -1.6248 -3.9805
   42CHL1    C2 5561   3.270   4.750   9.782  0.2742  0.2565  0.1489
   42CHL1   H2A 5562   3.324   4.679   9.848  1.4738  0.4349 -0.6245
   42CHL1   H2B 5563   3.159   4.759   9.789  0.2988 -0.5001  2.4379
   42CHL1   C20 5564   3.287   4.548   8.862 -0.1098 -0.0546  0.4918
   42CHL1   H20 5565   3.186   4.583   8.832 -0.4525 -1.8470 -0.5936
   42CHL1   C21 5566   3.275   4.400   8.912  0.9702 -0.3129 -0.6799
   42CHL1  H21A 5567   3.382   4.369   8.922  1.2235  0.5736 -0.5845
   42CHL1  H21B 5568   3.236   4.330   8.835 -1.1366 -1.5105  1.3512
   42CHL1  H21C 5569   3.217   4.385   9.005  1.9035  0.6079  0.0828
   42CHL1   C22 5570   3.386   4.546   8.738 -0.3458 -0.7209  0.7538
   42CHL1  H22A 5571   3.375   4.640   8.679  1.3454 -0.4017  0.9010
   42CHL1  H22B 5572   3.493   4.546   8.769 -0.4010  0.3532  1.0139
   42CHL1   C23 5573   3.363   4.435   8.633  0.0503  0.1456  0.1788
   42CHL1  H23A 5574   3.394   4.336   8.674 -1.4790 -0.8127 -0.8715
   42CHL1  H23B 5575   3.253   4.433   8.615  0.3242 -0.7278 -1.6563
   42CHL1   C24 5576   3.423   4.462   8.496 -0.4545  0.5188 -0.4548
   42CHL1  H24A 5577   3.356   4.528   8.437 -2.1399 -0.1685  0.6344
   42CHL1  H24B 5578   3.526   4.503   8.508 -0.0558 -0.6660  0.2713
   42CHL1   C25 5579   3.424   4.333   8.408 -0.3780 -0.2489 -0.3180
   42CHL1   H25 5580   3.458   4.249   8.472  0.8299  0.4310 -0.0544
   42CHL1   C26 5581   3.286   4.285   8.356 -0.4229  0.1548  0.2801
   42CHL1  H26A 5582   3.243   4.363   8.289  0.2848  0.6721  0.4143
   42CHL1  H26B 5583   3.306   4.189   8.304 -0.0983 -0.9598  2.3734
   42CHL1  H26C 5584   3.219   4.271   8.444 -0.1920 -0.3958  0.3754
   42CHL1   C27 5585   3.524   4.359   8.294 -0.2218 -0.3706  0.2203
   42CHL1  H27A 5586   3.495   4.449   8.235  0.2183 -0.3889 -0.0218
   42CHL1  H27B 5587   3.626   4.371   8.337 -0.3870 -1.2000  0.8579
   42CHL1  H27C 5588   3.537   4.275   8.223 -0.3226 -0.3035  0.1208
   43CHL1    C3 5589   3.751   5.119   9.767  0.0109 -0.2596  0.0397
   43CHL1    H3 5590   3.728   5.012   9.744 -2.4308  0.5385 -1.5465
   43CHL1    O3 5591   3.688   5.165   9.884  0.2391  0.3418 -0.6436
   43CHL1   H3' 5592   3.634   5.096   9.923 -0.0864  1.6584  1.4100
   43CHL1    C4 5593   3.904   5.140   9.772 -0.6099  0.3950  0.1555
   43CHL1   H4A 5594   3.910   5.249   9.790 -1.6263  0.8325 -1.8366
   43CHL1   H4B 5595   3.945   5.092   9.863 -2.0806  1.3456  1.3631
   43CHL1    C5 5596   3.974   5.105   9.642  0.2619 -0.6132  0.6891
   43CHL1    C6 5597   4.066   5.008   9.636 -0.7364 -0.2504 -0.2643
   43CHL1    H6 5598   4.100   4.962   9.730 -1.1103 -1.7231 -0.8309
   43CHL1    C7 5599   4.140   4.964   9.513 -0.1056  0.3054 -0.0439
   43CHL1   H7A 5600   4.247   4.951   9.539 -0.1718 -0.9529 -0.3243
   43CHL1   H7B 5601   4.107   4.861   9.486  1.8061 -0.3632  0.0514
   43CHL1    C8 5602   4.126   5.063   9.399  0.4627 -0.2137 -0.6961
   43CHL1    H8 5603   4.186   5.153   9.422  0.0836 -0.2713  0.5686
   43CHL1   C14 5604   4.165   5.003   9.268 -0.7225  0.0176 -0.4475
   43CHL1   H14 5605   4.100   4.913   9.259  1.4487 -1.6738 -0.2602
   43CHL1   C15 5606   4.318   4.963   9.245  0.3051 -0.3899 -0.2824
   43CHL1  H15A 5607   4.385   5.043   9.282  0.0639  0.3615 -1.4332
   43CHL1  H15B 5608   4.343   4.866   9.293  1.2362  0.1165  0.2663
   43CHL1   C16 5609   4.338   4.955   9.092 -0.0235  0.6045  0.2226
   43CHL1  H16A 5610   4.416   5.028   9.062 -0.5860  1.2951  0.3911
   43CHL1  H16B 5611   4.375   4.854   9.065  0.6109  0.9675 -0.3053
   43CHL1   C17 5612   4.199   4.987   9.035  0.0885  0.8862 -0.2425
   43CHL1   H17 5613   4.144   4.890   9.029  1.5234  0.1012 -2.3654
   43CHL1   C13 5614   4.132   5.077   9.139 -0.6899  0.1004 -0.3086
   43CHL1   C18 5615   4.210   5.212   9.134 -0.1016  0.1137 -0.5241
   43CHL1  H18A 5616   4.185   5.278   9.220 -0.2456  0.6794 -0.9915
   43CHL1  H18B 5617   4.320   5.198   9.135  0.1170  1.0826 -3.1546
   43CHL1  H18C 5618   4.186   5.265   9.039  1.8250 -1.9496 -2.2790
   43CHL1   C12 5619   3.977   5.106   9.135 -0.0274  1.3603  0.1092
   43CHL1  H12A 5620   3.944   5.163   9.046  1.8404  0.7260 -1.0648
   43CHL1  H12B 5621   3.937   5.002   9.129  2.7365  0.1491  0.6940
   43CHL1   C11 5622   3.934   5.171   9.260  0.0057  0.2234 -0.8097
   43CHL1  H11A 5623   3.980   5.272   9.251  2.7633 -0.8935 -0.2235
   43CHL1  H11B 5624   3.824   5.186   9.266 -0.3281 -2.2840  1.9600
   43CHL1    C9 5625   3.977   5.103   9.391 -0.0857  0.5136  0.3701
   43CHL1    H9 5626   3.927   5.004   9.387  0.0483  0.3758  1.6191
   43CHL1   C10 5627   3.915   5.166   9.516 -0.0254  0.3104  0.0338
   43CHL1   C19 5628   3.964   5.317   9.520  0.1876  0.2905  0.6063
   43CHL1  H19A 5629   4.074   5.333   9.513  0.5158 -1.4308  1.4646
   43CHL1  H19B 5630   3.911   5.360   9.432 -2.3747 -2.7614  0.4623
   43CHL1  H19C 5631   3.925   5.365   9.612 -1.3290 -1.1404  0.7464
   43CHL1    C1 5632   3.756   5.163   9.516  0.2012  0.4086  0.4096
   43CHL1   H1A 5633   3.723   5.220   9.427  0.7140  0.3545  0.1821
   43CHL1   H1B 5634   3.722   5.058   9.504 -0.1933  0.4227  1.3170
   43CHL1    C2 5635   3.695   5.200   9.651 -0.1425  0.0320  0.6645
   43CHL1   H2A 5636   3.584   5.195   9.649 -0.2002  0.0343 -2.5240
   43CHL1   H2B 5637   3.711   5.307   9.676 -1.7851  0.1448  1.2921
   43CHL1   C20 5638   4.203   5.019   8.883  0.1459  0.5591 -0.2667
   43CHL1   H20 5639   4.267   5.109   8.876  0.8172  0.3050  1.7764
   43CHL1   C21 5640   4.068   5.048   8.840  0.2259 -0.2088  0.0282
   43CHL1  H21A 5641   3.989   4.976   8.870 -0.3474  0.1956 -0.4911
   43CHL1  H21B 5642   4.061   5.060   8.729 -3.2838  0.1104  0.1649
   43CHL1  H21C 5643   4.049   5.151   8.878 -1.2434  0.1097 -1.4640
   43CHL1   C22 5644   4.258   4.905   8.788  0.6057 -0.3357  0.0323
   43CHL1  H22A 5645   4.332   4.850   8.849 -1.0542 -1.7972  0.8222
   43CHL1  H22B 5646   4.182   4.828   8.762 -1.5885  2.1118 -1.4191
   43CHL1   C23 5647   4.318   4.955   8.653  0.1667 -0.6805  0.2284
   43CHL1  H23A 5648   4.231   4.978   8.587  0.2759  0.6997  0.5215
   43CHL1  H23B 5649   4.373   5.047   8.683 -0.4671 -0.1899 -0.0928
   43CHL1   C24 5650   4.404   4.841   8.604 -0.2613  0.2111  0.5588
   43CHL1  H24A 5651   4.468   4.822   8.693 -1.5199  1.1599  1.7155
   43CHL1  H24B 5652   4.336   4.756   8.584 -1.1159  1.5958 -3.4588
   43CHL1   C25 5653   4.482   4.876   8.477  0.4862 -0.3783  1.0414
   43CHL1   H25 5654   4.568   4.931   8.519 -1.0692  3.1458  0.0120
   43CHL1   C26 5655   4.520   4.745   8.405 -0.2128  0.5856  0.1953
   43CHL1  H26A 5656   4.431   4.684   8.379  1.4273 -0.6338 -3.0986
   43CHL1  H26B 5657   4.583   4.767   8.317 -0.6805 -2.1657 -0.9090
   43CHL1  H26C 5658   4.586   4.682   8.469  0.1159  1.4712  0.7474
   43CHL1   C27 5659   4.396   4.959   8.377 -0.3593  0.4640  1.3372
   43CHL1  H27A 5660   4.353   5.055   8.415  0.2641  0.5895  1.7341
   43CHL1  H27B 5661   4.441   4.974   8.276 -2.7779  0.8222  0.2230
   43CHL1  H27C 5662   4.309   4.892   8.357 -0.9726  1.3382  0.9787
   44CHL1    C3 5663   5.236   4.763  10.224  0.2676 -0.0552  0.4469
   44CHL1    H3 5664   5.227   4.873  10.228  1.3624  0.0592  0.0982
   44CHL1    O3 5665   5.251   4.728  10.364  0.0946  0.0628  0.0326
   44CHL1   H3' 5666   5.305   4.649  10.358 -2.2911 -1.7074  0.0055
   44CHL1    C4 5667   5.116   4.706  10.153 -0.3708 -0.2938 -0.3946
   44CHL1   H4A 5668   5.112   4.597  10.176  2.4943 -0.2093  0.9199
   44CHL1   H4B 5669   5.025   4.748  10.202  1.7316  2.8443  1.1726
   44CHL1    C5 5670   5.119   4.739  10.006  0.5111  0.5733  0.4454
   44CHL1    C6 5671   5.029   4.815   9.942  0.5069  0.6661 -0.0188
   44CHL1    H6 5672   4.937   4.838   9.997  0.1939  0.4156 -0.4322
   44CHL1    C7 5673   5.021   4.839   9.796 -0.0951  0.9855 -0.0319
   44CHL1   H7A 5674   4.918   4.817   9.763  0.0895  1.7640 -1.1962
   44CHL1   H7B 5675   5.049   4.940   9.758  0.4239  0.8647  0.0243
   44CHL1    C8 5676   5.114   4.736   9.719 -0.3046  0.2949  0.2922
   44CHL1    H8 5677   5.068   4.635   9.725  1.5988 -0.5913  0.8109
   44CHL1   C14 5678   5.121   4.772   9.570 -0.1477  0.9603 -0.1008
   44CHL1   H14 5679   5.168   4.872   9.582  0.3193  0.7910 -0.4757
   44CHL1   C15 5680   4.989   4.794   9.501 -0.2299 -0.3421  0.3934
   44CHL1  H15A 5681   4.920   4.709   9.520 -2.2584  1.2590  0.6121
   44CHL1  H15B 5682   4.943   4.893   9.524 -1.4840 -0.7025 -0.4526
   44CHL1   C16 5683   5.023   4.782   9.356 -0.2127  0.0134 -0.5573
   44CHL1  H16A 5684   4.964   4.697   9.315 -1.6628  0.9829 -0.5378
   44CHL1  H16B 5685   4.996   4.872   9.297 -0.5018  1.1349  1.2424
   44CHL1   C17 5686   5.176   4.750   9.344  0.1220  0.3813 -0.3839
   44CHL1   H17 5687   5.234   4.845   9.345  1.1147 -0.2164 -0.0978
   44CHL1   C13 5688   5.203   4.679   9.485 -0.0978 -0.5980  0.9552
   44CHL1   C18 5689   5.153   4.533   9.471  0.5659  1.3234  0.4858
   44CHL1  H18A 5690   5.195   4.460   9.399 -2.7929 -1.1218  0.7272
   44CHL1  H18B 5691   5.140   4.484   9.570 -0.8742  1.0797  0.2103
   44CHL1  H18C 5692   5.051   4.543   9.428  1.7473  1.0594 -2.5919
   44CHL1   C12 5693   5.344   4.697   9.529 -0.2563  0.8612  0.2405
   44CHL1  H12A 5694   5.417   4.631   9.477  0.0210 -0.6050  2.3689
   44CHL1  H12B 5695   5.363   4.807   9.529 -3.5735  1.5378 -0.8417
   44CHL1   C11 5696   5.349   4.658   9.679 -0.2868 -0.4461  0.4907
   44CHL1  H11A 5697   5.345   4.547   9.685 -2.0174 -0.3967  0.7758
   44CHL1  H11B 5698   5.452   4.684   9.712  0.3402 -0.9777 -0.9626
   44CHL1    C9 5699   5.252   4.730   9.778 -0.1114  0.7076  0.3161
   44CHL1    H9 5700   5.299   4.830   9.779  2.1545 -0.2582  2.4735
   44CHL1   C10 5701   5.240   4.685   9.924  0.2893  0.0113  0.1496
   44CHL1   C19 5702   5.249   4.528   9.931  0.1756  0.7677 -0.3116
   44CHL1  H19A 5703   5.232   4.482  10.031 -0.2588  0.4328 -0.5393
   44CHL1  H19B 5704   5.176   4.475   9.866 -1.0755  0.6076  1.1512
   44CHL1  H19C 5705   5.349   4.490   9.904 -0.2118  0.4967 -1.4104
   44CHL1    C1 5706   5.356   4.755  10.005  0.3595 -0.1853 -0.2181
   44CHL1   H1A 5707   5.454   4.722   9.964  1.3037  1.9483  0.1655
   44CHL1   H1B 5708   5.368   4.863   9.979  0.4228 -0.1865 -0.1945
   44CHL1    C2 5709   5.365   4.728  10.154  0.5694  0.3130 -0.0682
   44CHL1   H2A 5710   5.455   4.781  10.190  0.3721  1.5146 -1.2526
   44CHL1   H2B 5711   5.389   4.620  10.160 -3.2705 -0.5728  2.3668
   44CHL1   C20 5712   5.220   4.698   9.202 -0.1040  0.1239  1.3045
   44CHL1   H20 5713   5.183   4.594   9.209 -2.8407  0.8940 -0.0687
   44CHL1   C21 5714   5.380   4.697   9.193 -0.2180 -0.3716 -0.5744
   44CHL1  H21A 5715   5.412   4.801   9.213 -0.5350 -0.1537 -1.1892
   44CHL1  H21B 5716   5.420   4.697   9.089 -0.0001  0.5771 -0.4937
   44CHL1  H21C 5717   5.436   4.611   9.238 -0.4354 -1.0091 -1.4867
   44CHL1   C22 5718   5.162   4.769   9.071 -0.5479 -0.6318  0.6604
   44CHL1  H22A 5719   5.173   4.696   8.987  2.9247  1.9793 -1.4176
   44CHL1  H22B 5720   5.053   4.786   9.086 -0.7670  0.2664 -1.5087
   44CHL1   C23 5721   5.216   4.910   9.036 -0.5357 -0.4522  0.1971
   44CHL1  H23A 5722   5.203   4.983   9.119  0.7290  0.1934 -0.1366
   44CHL1  H23B 5723   5.324   4.893   9.016 -0.9293 -1.1022 -1.4746
   44CHL1   C24 5724   5.145   4.974   8.910 -0.7323 -0.2002  0.2669
   44CHL1  H24A 5725   5.134   4.899   8.828  1.3909  0.1395 -0.3873
   44CHL1  H24B 5726   5.042   5.003   8.937 -1.0164 -3.6147  3.8100
   44CHL1   C25 5727   5.223   5.094   8.850  0.4676  0.8246  0.0275
   44CHL1   H25 5728   5.225   5.178   8.922  0.9550  0.7852  0.0617
   44CHL1   C26 5729   5.368   5.070   8.794 -0.1047  0.1314 -0.5167
   44CHL1  H26A 5730   5.383   4.972   8.745  1.2617 -1.4922  2.8499
   44CHL1  H26B 5731   5.413   5.149   8.730 -2.1027  3.1836  1.5814
   44CHL1  H26C 5732   5.435   5.055   8.881 -1.2467  0.7217  0.4875
   44CHL1   C27 5733   5.143   5.148   8.723 -0.6607  0.2474 -0.1838
   44CHL1  H27A 5734   5.188   5.240   8.680  1.6373 -1.0094 -0.6373
   44CHL1  H27B 5735   5.159   5.072   8.643  0.9011  0.9777 -0.5903
   44CHL1  H27C 5736   5.035   5.168   8.743 -1.6313  1.2170 -5.0242
   45CHL1    C3 5737   6.859   4.396  10.062  0.3111  0.2909 -0.0928
   45CHL1    H3 5738   6.833   4.292  10.092 -0.4476  1.2687  3.0584
   45CHL1    O3 5739   6.911   4.463  10.173  0.4381  0.0624 -0.1278
   45CHL1   H3' 5740   6.987   4.507  10.135 -0.6708  1.0017 -1.3285
   45CHL1    C4 5741   6.963   4.395   9.950 -0.6985 -0.5474 -0.4953
   45CHL1   H4A 5742   6.990   4.502   9.935 -1.9805 -0.2162 -0.5639
   45CHL1   H4B 5743   7.056   4.347   9.987  1.3001  3.5327  0.3930
   45CHL1    C5 5744   6.909   4.329   9.827  1.3754 -0.4101  0.1132
   45CHL1    C6 5745   6.961   4.224   9.771  0.2264  1.1672 -0.0319
   45CHL1    H6 5746   7.056   4.188   9.811 -0.8615  0.2362  1.8689
   45CHL1    C7 5747   6.911   4.157   9.647 -0.4128 -0.2305  0.2099
   45CHL1   H7A 5748   6.998   4.131   9.583 -0.9016 -1.4418  0.0137
   45CHL1   H7B 5749   6.869   4.056   9.666 -1.3255 -0.2728 -1.7915
   45CHL1    C8 5750   6.810   4.230   9.566 -0.1652  0.2191 -0.5867
   45CHL1    H8 5751   6.755   4.156   9.504 -0.8951  0.2116  0.0631
   45CHL1   C14 5752   6.878   4.321   9.463 -0.1228  0.1178  0.3325
   45CHL1   H14 5753   6.939   4.391   9.525 -1.4644  1.9674 -0.3357
   45CHL1   C15 5754   6.956   4.239   9.353  0.0691  0.0363  0.2815
   45CHL1  H15A 5755   7.048   4.297   9.333 -0.8578  1.2009 -0.7805
   45CHL1  H15B 5756   6.975   4.133   9.379 -0.6423 -0.0424  0.5097
   45CHL1   C16 5757   6.867   4.228   9.229  0.1127  0.7710  0.3252
   45CHL1  H16A 5758   6.930   4.276   9.151  1.8511  1.5268  2.1123
   45CHL1  H16B 5759   6.830   4.126   9.208  1.0855  0.5916 -0.6225
   45CHL1   C17 5760   6.746   4.312   9.258  0.1764 -0.6701  0.1260
   45CHL1   H17 5761   6.676   4.242   9.308  0.2926  0.2205  1.6021
   45CHL1   C13 5762   6.777   4.409   9.379 -0.7139  0.4683  0.1866
   45CHL1   C18 5763   6.859   4.532   9.333 -0.1359  0.3866 -0.0763
   45CHL1  H18A 5764   6.949   4.513   9.272  0.5477  2.9068  0.0082
   45CHL1  H18B 5765   6.793   4.592   9.266 -0.0823  0.5243 -0.0057
   45CHL1  H18C 5766   6.880   4.601   9.418  2.0322  1.2662 -1.2564
   45CHL1   C12 5767   6.649   4.463   9.463 -0.1836 -0.0792  0.0648
   45CHL1  H12A 5768   6.668   4.562   9.510  2.6849 -0.9189  0.8170
   45CHL1  H12B 5769   6.566   4.485   9.393 -0.6262 -1.2443  0.2048
   45CHL1   C11 5770   6.602   4.367   9.575  0.5900 -0.1019  1.0134
   45CHL1  H11A 5771   6.528   4.416   9.641 -1.2937  0.8417 -1.6094
   45CHL1  H11B 5772   6.549   4.285   9.521 -0.7385  0.3299  1.6008
   45CHL1    C9 5773   6.711   4.302   9.660  0.7181 -0.1029 -0.1946
   45CHL1    H9 5774   6.649   4.225   9.711  0.4024 -0.6607 -1.3794
   45CHL1   C10 5775   6.774   4.384   9.778 -0.2829 -0.0335 -0.4807
   45CHL1   C19 5776   6.804   4.523   9.737 -0.4192  0.0798 -0.0773
   45CHL1  H19A 5777   6.712   4.579   9.708 -0.0299 -0.7314 -3.2204
   45CHL1  H19B 5778   6.855   4.587   9.813  0.7501  1.2959 -1.8002
   45CHL1  H19C 5779   6.859   4.535   9.641 -1.3942  0.5263 -0.5921
   45CHL1    C1 5780   6.676   4.383   9.901  0.2941 -0.1530  0.1504
   45CHL1   H1A 5781   6.578   4.430   9.876  0.7738  0.2645 -0.9908
   45CHL1   H1B 5782   6.641   4.281   9.926  1.2605 -0.3196  0.8627
   45CHL1    C2 5783   6.723   4.458  10.018 -0.2997  0.0707 -1.0735
   45CHL1   H2A 5784   6.656   4.441  10.106  1.3358 -0.9510  0.0400
   45CHL1   H2B 5785   6.730   4.564   9.986 -1.8644 -0.2762 -2.7296
   45CHL1   C20 5786   6.661   4.372   9.145  0.1414 -0.3296  0.5930
   45CHL1   H20 5787   6.601   4.458   9.181 -1.0428 -0.9277  0.0810
   45CHL1   C21 5788   6.563   4.258   9.107 -0.3485 -0.6615 -0.5408
   45CHL1  H21A 5789   6.505   4.218   9.193  1.9912 -3.3659 -0.0703
   45CHL1  H21B 5790   6.634   4.178   9.076  0.9898  1.2036 -2.5559
   45CHL1  H21C 5791   6.502   4.278   9.016 -0.2649 -1.6255 -0.8234
   45CHL1   C22 5792   6.745   4.427   9.028  0.1768  0.1723  0.3268
   45CHL1  H22A 5793   6.827   4.496   9.059  1.4557  0.0340 -2.4361
   45CHL1  H22B 5794   6.788   4.335   8.982 -1.8370 -1.4305  1.5304
   45CHL1   C23 5795   6.670   4.517   8.921  0.4571  0.0441 -0.1104
   45CHL1  H23A 5796   6.587   4.460   8.875  1.5887 -1.3221 -0.5420
   45CHL1  H23B 5797   6.620   4.600   8.975  1.5391  1.4011 -1.1208
   45CHL1   C24 5798   6.772   4.564   8.828  0.7000  0.8258 -0.4357
   45CHL1  H24A 5799   6.850   4.619   8.883 -0.6768  1.3851  1.0373
   45CHL1  H24B 5800   6.819   4.476   8.779  0.7358  1.2649 -1.1932
   45CHL1   C25 5801   6.695   4.640   8.717 -0.0482 -0.3189  0.7145
   45CHL1   H25 5802   6.624   4.705   8.773 -1.5041 -0.5347 -0.8083
   45CHL1   C26 5803   6.790   4.733   8.651 -0.2007 -0.3205  0.3486
   45CHL1  H26A 5804   6.751   4.782   8.559 -1.3493  0.8976  1.4434
   45CHL1  H26B 5805   6.828   4.817   8.713  0.7552  0.8094 -1.6436
   45CHL1  H26C 5806   6.874   4.672   8.610 -1.0490 -1.2507 -0.0494
   45CHL1   C27 5807   6.620   4.553   8.615 -0.1602  0.2618  0.3737
   45CHL1  H27A 5808   6.541   4.499   8.671  1.3190 -0.8008  1.5423
   45CHL1  H27B 5809   6.574   4.614   8.534 -0.6968 -0.6448 -0.0087
   45CHL1  H27C 5810   6.703   4.488   8.582  0.8455 -0.1500  3.3397
   46CHL1    C3 5811   1.930   0.474  10.126 -0.2049  0.0573 -0.2547
   46CHL1    H3 5812   2.021   0.427  10.085  0.6827  1.5700 -0.0989
   46CHL1    O3 5813   1.935   0.435  10.263  0.4662  0.0445  0.6644
   46CHL1   H3' 5814   1.861   0.491  10.288 -0.7891  0.1387 -2.7172
   46CHL1    C4 5815   1.946   0.625  10.135  0.4297  0.1469 -0.2880
   46CHL1   H4A 5816   1.857   0.660  10.191  1.0193 -1.9178  2.1279
   46CHL1   H4B 5817   2.036   0.642  10.198 -0.3442  1.0314  0.5921
   46CHL1    C5 5818   1.952   0.677   9.995  0.1414  0.3204  0.1338
   46CHL1    C6 5819   2.065   0.737   9.944  0.1647 -0.1868  0.3545
   46CHL1    H6 5820   2.147   0.776  10.006  2.8110 -0.2800 -2.8785
   46CHL1    C7 5821   2.082   0.790   9.804 -0.5673  0.0490  0.9050
   46CHL1   H7A 5822   2.143   0.882   9.801 -0.5202  0.0352  1.4553
   46CHL1   H7B 5823   2.135   0.720   9.735 -2.4222 -0.8906  0.3700
   46CHL1    C8 5824   1.947   0.809   9.736  0.8183  0.5552 -0.2019
   46CHL1    H8 5825   1.901   0.897   9.786  0.8865  1.1155 -1.1163
   46CHL1   C14 5826   1.966   0.839   9.588 -0.4208 -0.4589 -0.5192
   46CHL1   H14 5827   2.023   0.754   9.545 -0.3426 -0.4134 -0.5041
   46CHL1   C15 5828   2.052   0.971   9.555 -0.0270 -0.5376 -0.2986
   46CHL1  H15A 5829   2.022   1.056   9.619  0.7171 -0.0359 -0.6053
   46CHL1  H15B 5830   2.162   0.953   9.561 -0.0517 -0.4887  0.3251
   46CHL1   C16 5831   2.017   1.002   9.412 -0.5362  0.3313 -0.0674
   46CHL1  H16A 5832   1.978   1.106   9.411  0.1682  0.6115  0.5758
   46CHL1  H16B 5833   2.107   0.988   9.349  1.6673  0.3720  2.8542
   46CHL1   C17 5834   1.899   0.906   9.376  0.3369 -0.0808  0.2210
   46CHL1   H17 5835   1.942   0.817   9.324 -0.1084 -1.5354  2.2048
   46CHL1   C13 5836   1.836   0.857   9.513 -0.2165  0.0752  0.6718
   46CHL1   C18 5837   1.746   0.979   9.559 -0.0320  0.5517 -0.3346
   46CHL1  H18A 5838   1.726   0.965   9.667 -1.3352  1.8005 -0.3846
   46CHL1  H18B 5839   1.796   1.077   9.541 -0.4980  0.8177 -0.1880
   46CHL1  H18C 5840   1.645   0.967   9.515 -0.5716  1.0616  0.7311
   46CHL1   C12 5841   1.767   0.717   9.519 -0.3957  0.0778 -0.1586
   46CHL1  H12A 5842   1.672   0.732   9.463 -1.3276  1.3120  1.6579
   46CHL1  H12B 5843   1.810   0.633   9.460  2.3173  2.7151 -2.2602
   46CHL1   C11 5844   1.731   0.679   9.670 -0.4330 -0.3148 -0.0333
   46CHL1  H11A 5845   1.658   0.758   9.700 -1.2421 -0.2273 -2.1002
   46CHL1  H11B 5846   1.674   0.584   9.671 -3.1973  1.2225 -0.8631
   46CHL1    C9 5847   1.864   0.678   9.757  1.1423  0.3418 -0.0868
   46CHL1    H9 5848   1.921   0.597   9.707 -1.3314 -1.5563  0.0102
   46CHL1   C10 5849   1.833   0.641   9.905  0.0251  0.1208  0.2720
   46CHL1   C19 5850   1.717   0.735   9.958 -0.7807  0.3891  0.5334
   46CHL1  H19A 5851   1.730   0.843   9.937  2.4224 -0.0946 -0.5333
   46CHL1  H19B 5852   1.618   0.700   9.920 -0.4310  0.1220 -0.1447
   46CHL1  H19C 5853   1.706   0.727  10.069 -2.0439  1.5801  0.5217
   46CHL1    C1 5854   1.797   0.485   9.919 -0.5738 -0.7995  0.1959
   46CHL1   H1A 5855   1.694   0.468   9.882  0.2416  0.1396 -2.8006
   46CHL1   H1B 5856   1.874   0.433   9.859  0.9667  2.4512 -0.9191
   46CHL1    C2 5857   1.806   0.432  10.062  0.0292 -0.0648  0.1777
   46CHL1   H2A 5858   1.803   0.323  10.046 -1.0143 -0.3700  2.1533
   46CHL1   H2B 5859   1.724   0.465  10.130  1.1004  1.6051  0.7371
   46CHL1   C20 5860   1.803   0.966   9.267  0.1610 -0.5525 -0.0625
   46CHL1   H20 5861   1.758   1.055   9.315  1.4150  0.2997 -0.4189
   46CHL1   C21 5862   1.687   0.871   9.229  0.1562  0.0153  0.5081
   46CHL1  H21A 5863   1.638   0.913   9.139 -0.5177 -0.2062  0.7663
   46CHL1  H21B 5864   1.614   0.858   9.312  0.6065  0.4405  0.9851
   46CHL1  H21C 5865   1.737   0.773   9.213 -0.9136 -0.4456 -0.1062
   46CHL1   C22 5866   1.871   1.014   9.135  0.3781 -1.2473 -0.5811
   46CHL1  H22A 5867   1.786   1.061   9.080 -0.6841  1.0762  2.7343
   46CHL1  H22B 5868   1.941   1.090   9.176 -0.5968  1.7585 -3.9030
   46CHL1   C23 5869   1.942   0.903   9.062  0.1542  0.0832  0.3947
   46CHL1  H23A 5870   2.034   0.882   9.120  1.4941 -0.9940 -1.9727
   46CHL1  H23B 5871   1.881   0.811   9.043  1.5888 -1.0232  0.9878
   46CHL1   C24 5872   1.986   0.952   8.922  0.5399 -0.3953 -0.1371
   46CHL1  H24A 5873   1.894   0.992   8.874  0.7833 -1.5525 -1.6291
   46CHL1  H24B 5874   2.055   1.038   8.931  0.7886 -0.4954 -1.0078
   46CHL1   C25 5875   2.059   0.845   8.841  0.2383  0.2292  0.0084
   46CHL1   H25 5876   2.127   0.881   8.761  1.4780 -2.3058 -0.1567
   46CHL1   C26 5877   2.140   0.750   8.921 -0.1181  0.2286 -0.0942
   46CHL1  H26A 5878   2.205   0.685   8.858  0.5115  1.9708 -1.3030
   46CHL1  H26B 5879   2.194   0.811   8.997  0.4152  0.5939 -0.7547
   46CHL1  H26C 5880   2.084   0.689   8.995  0.8322  0.8087  1.1542
   46CHL1   C27 5881   1.954   0.760   8.757 -0.7987  0.6124  0.7163
   46CHL1  H27A 5882   1.865   0.734   8.818 -0.5844 -1.2080  0.3263
   46CHL1  H27B 5883   1.926   0.814   8.664  0.6015 -0.6679 -0.5119
   46CHL1  H27C 5884   2.000   0.662   8.730  1.9522  1.4882  1.8421
   47CHL1    C3 5885   4.876   3.929  10.087 -0.1249 -0.2263 -0.3248
   47CHL1    H3 5886   4.880   3.818  10.082  4.8902 -0.2693 -0.8432
   47CHL1    O3 5887   4.854   3.973  10.225  0.2153 -0.3651 -0.2276
   47CHL1   H3' 5888   4.939   3.992  10.265 -0.3902 -0.7438  1.3269
   47CHL1    C4 5889   5.016   3.960  10.059 -0.4847  0.6599 -0.0814
   47CHL1   H4A 5890   5.029   4.068  10.082 -0.4247  0.1041  2.8400
   47CHL1   H4B 5891   5.075   3.906  10.136 -1.0484  0.3014  0.1010
   47CHL1    C5 5892   5.067   3.929   9.924  0.1418  0.3929 -0.6862
   47CHL1    C6 5893   5.176   3.848   9.903  0.3749  0.2148 -0.1972
   47CHL1    H6 5894   5.224   3.808   9.993  1.3791  0.2499 -0.6960
   47CHL1    C7 5895   5.236   3.813   9.767  0.0326  0.7558 -0.0446
   47CHL1   H7A 5896   5.343   3.841   9.754  0.7127 -1.6362 -0.0799
   47CHL1   H7B 5897   5.235   3.704   9.750  0.7874  0.4243  1.7636
   47CHL1    C8 5898   5.158   3.890   9.652 -0.1566 -0.5303  0.4731
   47CHL1    H8 5899   5.187   3.996   9.638 -0.2946 -0.2584  2.0985
   47CHL1   C14 5900   5.181   3.835   9.504  0.2374  0.6887 -0.4164
   47CHL1   H14 5901   5.148   3.729   9.502 -2.3944  1.3943  1.2216
   47CHL1   C15 5902   5.324   3.839   9.459  0.0016  0.8529 -0.2241
   47CHL1  H15A 5903   5.381   3.929   9.490  0.6209  0.1730  0.6603
   47CHL1  H15B 5904   5.383   3.752   9.496  0.1778  0.4749 -1.3518
   47CHL1   C16 5905   5.309   3.822   9.306 -0.2743  0.3925 -0.2039
   47CHL1  H16A 5906   5.363   3.907   9.260 -2.3756  1.3657 -1.0100
   47CHL1  H16B 5907   5.357   3.730   9.268 -0.8124 -1.3360  2.8938
   47CHL1   C17 5908   5.156   3.830   9.276  0.1951 -0.9206 -0.3231
   47CHL1   H17 5909   5.109   3.730   9.272 -1.4631 -0.1265 -2.6436
   47CHL1   C13 5910   5.099   3.904   9.398 -0.6532  0.5665 -0.5886
   47CHL1   C18 5911   5.121   4.062   9.387  0.1997 -0.5251  0.3293
   47CHL1  H18A 5912   5.230   4.071   9.366  0.0727  3.6407  0.6878
   47CHL1  H18B 5913   5.049   4.109   9.318 -2.0510 -1.4389  1.9374
   47CHL1  H18C 5914   5.107   4.104   9.489  0.6511 -1.6983  0.8963
   47CHL1   C12 5915   4.954   3.865   9.432  0.8200 -0.3368  0.5575
   47CHL1  H12A 5916   4.888   3.916   9.359  1.1726  1.9132  1.7208
   47CHL1  H12B 5917   4.938   3.755   9.439 -1.5965 -0.2092 -1.4856
   47CHL1   C11 5918   4.914   3.928   9.563 -0.2212  0.1970 -0.5052
   47CHL1  H11A 5919   4.912   4.038   9.546 -2.1086  0.3483  0.3697
   47CHL1  H11B 5920   4.811   3.889   9.577  0.7192 -2.9042 -1.4660
   47CHL1    C9 5921   5.007   3.887   9.685  0.1721 -0.6240  0.5134
   47CHL1    H9 5922   4.979   3.780   9.697  0.3332 -1.0845 -2.4618
   47CHL1   C10 5923   4.971   3.973   9.809 -0.2394 -0.0648  0.3796
   47CHL1   C19 5924   4.999   4.127   9.788 -0.7105 -0.3701  0.1399
   47CHL1  H19A 5925   5.104   4.156   9.767 -0.6293 -0.5068  0.3544
   47CHL1  H19B 5926   4.930   4.170   9.712  0.2548  0.9821 -0.0115
   47CHL1  H19C 5927   4.964   4.187   9.875  2.6436  2.2654 -0.1028
   47CHL1    C1 5928   4.815   3.964   9.844 -0.5475  0.2034 -0.2869
   47CHL1   H1A 5929   4.779   4.037   9.768 -2.0975  0.0500  0.2835
   47CHL1   H1B 5930   4.774   3.864   9.820 -0.6436  0.0068  0.6523
   47CHL1    C2 5931   4.777   3.995   9.987 -0.0824  0.3103  0.0765
   47CHL1   H2A 5932   4.670   3.975  10.008 -0.5157  1.4007 -1.0035
   47CHL1   H2B 5933   4.790   4.100  10.018 -0.0342 -0.2362  2.0530
   47CHL1   C20 5934   5.132   3.887   9.133 -0.0590  0.1021 -0.3553
   47CHL1   H20 5935   5.174   3.989   9.121 -4.5900  2.1375 -1.3594
   47CHL1   C21 5936   4.978   3.898   9.109 -0.2701  0.1817 -0.5343
   47CHL1  H21A 5937   4.930   3.975   9.173  2.4440  2.1563 -0.7014
   47CHL1  H21B 5938   4.922   3.803   9.122  1.3740 -0.7006  0.3349
   47CHL1  H21C 5939   4.956   3.938   9.007 -1.8951 -1.4615 -0.8608
   47CHL1   C22 5940   5.203   3.793   9.028  0.2797 -0.4564  0.1520
   47CHL1  H22A 5941   5.301   3.759   9.067  0.7637  0.5832 -0.1171
   47CHL1  H22B 5942   5.144   3.699   9.018  1.4748 -1.1813 -0.3416
   47CHL1   C23 5943   5.211   3.861   8.892  0.7362  0.1211  0.3910
   47CHL1  H23A 5944   5.106   3.867   8.856  0.1367 -3.3815  1.2268
   47CHL1  H23B 5945   5.258   3.962   8.890 -0.4045  0.6596  0.2742
   47CHL1   C24 5946   5.282   3.762   8.801 -0.0032 -0.0562  0.8736
   47CHL1  H24A 5947   5.383   3.733   8.837  0.6769  0.1253 -0.7807
   47CHL1  H24B 5948   5.233   3.663   8.789 -0.6101  0.4901 -2.0716
   47CHL1   C25 5949   5.296   3.813   8.654 -0.1727 -0.3149 -0.2641
   47CHL1   H25 5950   5.347   3.912   8.653 -2.0643  0.7182 -2.4186
   47CHL1   C26 5951   5.377   3.710   8.579  0.8199 -0.2205 -0.0939
   47CHL1  H26A 5952   5.347   3.608   8.610 -3.9532  1.1377  0.6028
   47CHL1  H26B 5953   5.482   3.727   8.613  0.2378  1.9764  0.8049
   47CHL1  H26C 5954   5.364   3.730   8.471 -2.1419 -1.0381  0.0402
   47CHL1   C27 5955   5.162   3.825   8.583  0.3410 -0.4507  0.1662
   47CHL1  H27A 5956   5.094   3.876   8.654  0.0684 -1.5463  0.7237
   47CHL1  H27B 5957   5.167   3.871   8.482 -2.2255  0.8036  0.5360
   47CHL1  H27C 5958   5.117   3.724   8.572 -0.3649 -0.2984  1.4662
   48CHL1    C3 5959   0.124   6.677  10.263  0.7815  0.1166  0.3695
   48CHL1    H3 5960   0.212   6.630  10.215 -0.1092 -1.6199  0.3750
   48CHL1    O3 5961   0.147   6.637  10.402  0.0808 -0.4790 -0.4530
   48CHL1   H3' 5962   0.095   6.559  10.425  0.2751  0.2453  2.9670
   48CHL1    C4 5963   0.115   6.831  10.249  0.1108  0.6935 -0.7631
   48CHL1   H4A 5964   0.042   6.871  10.322  0.3942 -0.1380 -0.0101
   48CHL1   H4B 5965   0.213   6.868  10.287 -0.1253  0.9383 -0.3910
   48CHL1    C5 5966   0.084   6.874  10.110 -0.4546  0.2857  0.1949
   48CHL1    C6 5967   0.163   6.963  10.046 -0.1967 -0.0277  0.0953
   48CHL1    H6 5968   0.256   7.009  10.086  1.0404 -0.5739 -2.0133
   48CHL1    C7 5969   0.130   7.017   9.910  0.6177 -0.9189  0.9879
   48CHL1   H7A 5970   0.122   7.128   9.909 -0.3436 -0.9762 -0.6120
   48CHL1   H7B 5971   0.216   6.989   9.845 -0.8349 -0.8395 -1.0511
   48CHL1    C8 5972  -0.004   6.964   9.842  0.3117  0.4394 -0.3223
   48CHL1    H8 5973  -0.088   7.023   9.885  0.9074  0.7997  0.3812
   48CHL1   C14 5974   0.012   6.979   9.695  1.0001  0.4130 -0.7575
   48CHL1   H14 5975   0.106   6.924   9.674  2.2362  2.1362  0.0205
   48CHL1   C15 5976   0.022   7.110   9.627 -0.6270  0.1493 -0.5308
   48CHL1  H15A 5977  -0.048   7.184   9.671 -0.1130 -0.6558  1.7590
   48CHL1  H15B 5978   0.119   7.162   9.640 -1.3167  1.8362 -1.8377
   48CHL1   C16 5979  -0.004   7.091   9.481 -0.3827  0.0332 -0.0948
   48CHL1  H16A 5980  -0.093   7.153   9.455 -1.6147 -0.9669  1.5071
   48CHL1  H16B 5981   0.083   7.112   9.416 -1.6356  0.4925 -1.7098
   48CHL1   C17 5982  -0.054   6.947   9.465  0.1200  0.5167 -1.3553
   48CHL1   H17 5983   0.035   6.887   9.438  0.0156  0.3434 -1.3151
   48CHL1   C13 5984  -0.106   6.912   9.610 -0.6960  0.0388  0.2355
   48CHL1   C18 5985  -0.242   6.976   9.634  0.1929 -0.3197 -0.3186
   48CHL1  H18A 5986  -0.243   7.082   9.600 -2.1825 -0.3402 -0.4209
   48CHL1  H18B 5987  -0.327   6.925   9.585 -0.2859  1.4372 -1.4052
   48CHL1  H18C 5988  -0.269   6.985   9.741 -1.7945  3.0096 -0.9659
   48CHL1   C12 5989  -0.115   6.766   9.646 -0.0997 -1.1310 -0.0498
   48CHL1  H12A 5990  -0.199   6.712   9.596 -0.5512 -1.7197  1.3077
   48CHL1  H12B 5991  -0.023   6.723   9.601 -0.7386  1.1230 -3.9672
   48CHL1   C11 5992  -0.128   6.754   9.797  0.4753  0.7970  0.0768
   48CHL1  H11A 5993  -0.228   6.790   9.830 -1.2686 -0.7571 -3.0222
   48CHL1  H11B 5994  -0.126   6.645   9.817  0.6641  0.7501 -0.1993
   48CHL1    C9 5995  -0.015   6.819   9.881  0.2966 -0.2102  0.1019
   48CHL1    H9 5996   0.079   6.771   9.847  0.9618  0.9831  0.1839
   48CHL1   C10 5997  -0.030   6.798  10.036  0.3897 -0.4983  0.0765
   48CHL1   C19 5998  -0.166   6.850  10.088  0.0106  0.1029 -0.8189
   48CHL1  H19A 5999  -0.167   6.851  10.199  0.7723 -0.5065 -0.7954
   48CHL1  H19B 6000  -0.181   6.959  10.070 -2.4788 -0.3485 -1.8537
   48CHL1  H19C 6001  -0.253   6.793  10.050 -0.4600  0.4098 -0.2111
   48CHL1    C1 6002  -0.041   6.643  10.062  0.1080  0.1580  0.0436
   48CHL1   H1A 6003  -0.139   6.600  10.033 -0.0957  0.9960 -0.5284
   48CHL1   H1B 6004   0.036   6.588  10.004  1.3007  0.5311  1.2340
   48CHL1    C2 6005  -0.007   6.613  10.207  0.3565 -0.0478 -0.2122
   48CHL1   H2A 6006   0.007   6.503  10.219  2.7272  0.0604 -1.3807
   48CHL1   H2B 6007  -0.098   6.616  10.270  1.0730 -0.8886  0.8991
   48CHL1   C20 6008  -0.144   6.941   9.348  0.5158 -0.1560 -0.4372
   48CHL1   H20 6009  -0.228   7.013   9.354 -1.1751 -1.8968 -1.6804
   48CHL1   C21 6010  -0.211   6.802   9.339  0.4313 -0.4238 -0.1423
   48CHL1  H21A 6011  -0.271   6.802   9.246 -2.2108  1.4487  1.4012
   48CHL1  H21B 6012  -0.288   6.782   9.417 -1.5069  0.8482 -1.6400
   48CHL1  H21C 6013  -0.141   6.716   9.335  1.1508  0.2145 -2.3313
   48CHL1   C22 6014  -0.064   6.985   9.217  0.0831  0.0271  0.2191
   48CHL1  H22A 6015  -0.027   7.088   9.237 -1.6340  0.6173  0.5193
   48CHL1  H22B 6016   0.017   6.910   9.206 -0.3977 -0.3969 -0.5035
   48CHL1   C23 6017  -0.136   6.976   9.083  0.0204  0.4205 -0.2381
   48CHL1  H23A 6018  -0.066   6.978   8.997 -0.9240 -1.2388 -1.1004
   48CHL1  H23B 6019  -0.178   6.874   9.073  0.4353  0.2167  0.1465
   48CHL1   C24 6020  -0.254   7.076   9.061 -0.7379  0.4493 -0.4754
   48CHL1  H24A 6021  -0.327   7.041   9.138  1.7111 -1.4440  1.1524
   48CHL1  H24B 6022  -0.222   7.181   9.080  2.9402 -0.1886 -2.3801
   48CHL1   C25 6023  -0.318   7.067   8.917 -0.3634  0.1614  0.4389
   48CHL1   H25 6024  -0.339   6.960   8.896  0.4248  0.1612 -0.4037
   48CHL1   C26 6025  -0.439   7.144   8.900 -0.0376  0.4640 -0.1228
   48CHL1  H26A 6026  -0.416   7.253   8.910 -2.5524  1.0983 -0.6470
   48CHL1  H26B 6027  -0.477   7.135   8.796  0.3089 -0.3535 -0.1880
   48CHL1  H26C 6028  -0.518   7.117   8.974 -1.9980 -1.0744 -2.6145
   48CHL1   C27 6029  -0.223   7.096   8.801  0.0645 -0.6938 -0.6560
   48CHL1  H27A 6030  -0.262   7.087   8.697  1.1843  0.6965 -1.2243
   48CHL1  H27B 6031  -0.174   7.195   8.811 -0.6394 -0.1752 -2.0888
   48CHL1  H27C 6032  -0.142   7.020   8.808 -0.2279 -1.0078 -0.6584
   49CHL1    C3 6033   4.550   6.294  10.059 -0.0579  0.4475 -0.8896
   49CHL1    H3 6034   4.543   6.203   9.996 -0.7134 -1.0352  1.2263
   49CHL1    O3 6035   4.507   6.252  10.191 -0.3057 -0.2076 -0.0812
   49CHL1   H3' 6036   4.412   6.262  10.199 -0.4887 -0.9164 -1.1127
   49CHL1    C4 6037   4.696   6.346  10.062  0.5059  0.1060  0.5147
   49CHL1   H4A 6038   4.692   6.440  10.121 -1.5123  1.9324 -2.2821
   49CHL1   H4B 6039   4.759   6.267  10.109  0.0398  0.5414  1.9233
   49CHL1    C5 6040   4.731   6.381   9.918 -0.5918  1.0735 -0.9820
   49CHL1    C6 6041   4.844   6.323   9.864  0.4680  0.0347 -0.4933
   49CHL1    H6 6042   4.902   6.259   9.932  0.9405  0.7023 -0.2687
   49CHL1    C7 6043   4.906   6.368   9.736  0.1885 -0.8560 -0.5106
   49CHL1   H7A 6044   5.017   6.379   9.746 -0.0439  0.3459  1.1071
   49CHL1   H7B 6045   4.896   6.281   9.668 -0.1514 -2.4393  1.4653
   49CHL1    C8 6046   4.847   6.493   9.678 -0.0435 -0.9537 -0.6727
   49CHL1    H8 6047   4.891   6.579   9.733 -0.1081 -1.2015 -0.2265
   49CHL1   C14 6048   4.889   6.488   9.532  0.1798  0.1476 -0.1099
   49CHL1   H14 6049   4.846   6.392   9.497 -0.5754  0.6276 -0.5104
   49CHL1   C15 6050   5.036   6.481   9.489  0.5399 -0.0266 -0.7305
   49CHL1  H15A 6051   5.099   6.550   9.548 -0.1751 -0.7900  1.0133
   49CHL1  H15B 6052   5.086   6.382   9.491  2.0616  0.7206 -0.7594
   49CHL1   C16 6053   5.033   6.513   9.339  0.3664 -0.0010  0.2892
   49CHL1  H16A 6054   5.119   6.583   9.326  0.6543  0.1416  2.5688
   49CHL1  H16B 6055   5.044   6.426   9.271 -1.3731 -0.3207  0.3590
   49CHL1   C17 6056   4.891   6.574   9.309 -0.1108  0.0982  0.2227
   49CHL1   H17 6057   4.835   6.486   9.270  0.1522 -0.6840  1.5554
   49CHL1   C13 6058   4.833   6.601   9.448 -0.0320  0.3655  0.0801
   49CHL1   C18 6059   4.879   6.735   9.507  0.1371 -0.3259  0.0465
   49CHL1  H18A 6060   4.849   6.823   9.446 -0.2821  0.7809  1.7955
   49CHL1  H18B 6061   4.852   6.760   9.611  2.0773  0.5108  0.3890
   49CHL1  H18C 6062   4.990   6.734   9.500  0.0597 -1.6845 -1.9670
   49CHL1   C12 6063   4.682   6.587   9.459  0.3403 -0.3359 -0.5096
   49CHL1  H12A 6064   4.631   6.675   9.413 -0.7520 -2.3273 -3.3369
   49CHL1  H12B 6065   4.641   6.495   9.414 -1.4495 -0.2506  0.8271
   49CHL1   C11 6066   4.634   6.593   9.606  0.5176  0.1719  0.0672
   49CHL1  H11A 6067   4.634   6.696   9.645 -1.5551  0.6603 -1.0253
   49CHL1  H11B 6068   4.525   6.568   9.611  0.4617  0.6615  1.6064
   49CHL1    C9 6069   4.697   6.492   9.698 -0.5124  1.1252  0.0895
   49CHL1    H9 6070   4.666   6.395   9.655  2.3752  0.5649 -0.8985
   49CHL1   C10 6071   4.644   6.480   9.849 -0.1396 -0.9629 -0.3627
   49CHL1   C19 6072   4.661   6.625   9.917  0.4132  0.5162 -0.7384
   49CHL1  H19A 6073   4.601   6.706   9.870  0.4859  1.3005  0.5056
   49CHL1  H19B 6074   4.636   6.628  10.025  0.2831 -0.1819 -0.7413
   49CHL1  H19C 6075   4.769   6.648   9.907  0.8750 -1.2582 -0.1444
   49CHL1    C1 6076   4.499   6.437   9.854 -0.1545  0.1191  0.3683
   49CHL1   H1A 6077   4.433   6.513   9.809 -0.3350 -0.9754 -1.3187
   49CHL1   H1B 6078   4.496   6.350   9.785 -0.2293  1.2200 -1.0598
   49CHL1    C2 6079   4.457   6.400  10.000  0.3064  0.1856 -0.1038
   49CHL1   H2A 6080   4.354   6.358   9.987  0.5793 -0.8486  0.9516
   49CHL1   H2B 6081   4.445   6.483  10.072 -0.5813  0.7613 -0.8891
   49CHL1   C20 6082   4.889   6.687   9.201  0.5806  0.8924 -1.0919
   49CHL1   H20 6083   4.957   6.769   9.234  0.1072  0.6493  0.5810
   49CHL1   C21 6084   4.748   6.738   9.182 -0.1320  0.6556 -0.0687
   49CHL1  H21A 6085   4.732   6.790   9.085 -0.9548  0.0026 -0.2927
   49CHL1  H21B 6086   4.710   6.802   9.265  1.7654 -2.5333  3.5598
   49CHL1  H21C 6087   4.684   6.647   9.184 -1.0389  1.2837  1.9331
   49CHL1   C22 6088   4.941   6.629   9.066  0.0356 -0.3950 -0.5822
   49CHL1  H22A 6089   5.024   6.561   9.096  0.7597  1.8437  3.1998
   49CHL1  H22B 6090   4.853   6.574   9.028 -0.5221  0.2652 -0.2862
   49CHL1   C23 6091   4.998   6.728   8.964 -0.2938 -0.2076  0.1025
   49CHL1  H23A 6092   4.918   6.791   8.920  1.6739  0.2561 -3.0966
   49CHL1  H23B 6093   5.057   6.798   9.026  0.5474 -1.5547  0.8753
   49CHL1   C24 6094   5.086   6.666   8.859  1.1204  0.5026  0.3532
   49CHL1  H24A 6095   5.157   6.588   8.894 -1.4563 -1.3805  1.7119
   49CHL1  H24B 6096   5.026   6.603   8.790  0.2582  0.1284  1.4194
   49CHL1   C25 6097   5.153   6.765   8.759 -0.4353  0.2758 -0.3217
   49CHL1   H25 6098   5.219   6.834   8.815  0.7697  0.1288 -1.5085
   49CHL1   C26 6099   5.254   6.684   8.674  0.1896 -0.0306  0.0562
   49CHL1  H26A 6100   5.305   6.617   8.747 -1.3536 -1.1211  0.1806
   49CHL1  H26B 6101   5.206   6.634   8.588 -0.6581 -0.9991  1.0686
   49CHL1  H26C 6102   5.326   6.759   8.634 -0.0642  0.5209  0.6216
   49CHL1   C27 6103   5.069   6.852   8.668  0.9507  0.6715  0.8871
   49CHL1  H27A 6104   5.011   6.789   8.597 -1.7290  1.2400  2.4385
   49CHL1  H27B 6105   5.006   6.906   8.742 -0.2716 -0.7326  0.9220
   49CHL1  H27C 6106   5.131   6.920   8.606 -1.5873 -0.0241 -2.6827
   50CHL1    C3 6107   5.946   5.526   9.956 -0.3635 -0.5572 -0.2126
   50CHL1    H3 6108   5.840   5.549   9.934 -0.3130  0.3603  0.4458
   50CHL1    O3 6109   5.956   5.492  10.096 -0.8355 -0.4541  0.8507
   50CHL1   H3' 6110   6.000   5.571  10.129 -1.9906 -0.2520  2.0151
   50CHL1    C4 6111   5.997   5.413   9.862 -0.1791 -0.4558 -0.5962
   50CHL1   H4A 6112   6.101   5.391   9.896  0.1081  0.6675 -0.7114
   50CHL1   H4B 6113   5.942   5.319   9.884 -2.5461  0.2329 -3.1162
   50CHL1    C5 6114   5.985   5.450   9.720 -0.2134 -0.2748  1.1823
   50CHL1    C6 6115   5.906   5.383   9.632 -0.1914 -0.7113 -0.4590
   50CHL1    H6 6116   5.845   5.296   9.660 -0.1357 -0.8383 -0.7363
   50CHL1    C7 6117   5.887   5.424   9.490  0.3740  0.6588 -0.6693
   50CHL1   H7A 6118   5.873   5.339   9.419 -3.2895  0.5308  0.0120
   50CHL1   H7B 6119   5.787   5.472   9.492  0.1127  0.3294 -3.0362
   50CHL1    C8 6120   5.997   5.522   9.438 -0.1649  0.5278 -0.0067
   50CHL1    H8 6121   6.089   5.461   9.440 -0.0174  0.7329 -0.6714
   50CHL1   C14 6122   5.965   5.567   9.297  0.1826  0.3254  0.3825
   50CHL1   H14 6123   5.875   5.628   9.316  0.7393  0.9784  0.9652
   50CHL1   C15 6124   5.938   5.454   9.186  0.4210 -0.0238 -0.5363
   50CHL1  H15A 6125   6.015   5.374   9.187  0.4951  0.0433  0.7777
   50CHL1  H15B 6126   5.835   5.413   9.188  1.3681 -2.5869 -1.3666
   50CHL1   C16 6127   5.954   5.532   9.054 -0.6435  0.4235 -0.0822
   50CHL1  H16A 6128   6.017   5.482   8.977 -0.2009  0.7505  0.0624
   50CHL1  H16B 6129   5.859   5.549   8.999 -2.3049 -1.5880  1.9792
   50CHL1   C17 6130   6.015   5.671   9.088 -0.3995  0.3482  0.8767
   50CHL1   H17 6131   5.935   5.748   9.092  0.5732  1.3598  1.5107
   50CHL1   C13 6132   6.064   5.662   9.240 -0.8188  0.3591  0.0093
   50CHL1   C18 6133   6.209   5.597   9.243  0.8626 -0.6066  0.3668
   50CHL1  H18A 6134   6.245   5.561   9.342 -0.7066  1.5854  1.8482
   50CHL1  H18B 6135   6.226   5.527   9.159  0.7090 -0.1210 -0.0709
   50CHL1  H18C 6136   6.271   5.690   9.234 -0.1942  0.1295  0.5135
   50CHL1   C12 6137   6.053   5.785   9.325 -0.2875 -0.2317 -0.5110
   50CHL1  H12A 6138   6.120   5.871   9.307  3.7896 -2.8577  0.7857
   50CHL1  H12B 6139   5.949   5.825   9.325  0.3811  1.5867 -0.7314
   50CHL1   C11 6140   6.098   5.745   9.470 -0.2648 -0.9319  0.1694
   50CHL1  H11A 6141   6.206   5.722   9.465 -0.1118 -0.4207  0.9548
   50CHL1  H11B 6142   6.104   5.839   9.530 -0.3248 -0.5187 -0.4617
   50CHL1    C9 6143   6.011   5.639   9.531  0.3518  0.6614 -0.9488
   50CHL1    H9 6144   5.911   5.680   9.556 -0.1677 -1.4596  0.8116
   50CHL1   C10 6145   6.055   5.583   9.673  0.6426  0.0895 -0.2985
   50CHL1   C19 6146   6.206   5.559   9.681 -0.0279  0.7975  0.0071
   50CHL1  H19A 6147   6.265   5.650   9.658 -0.1095  0.8319 -0.0691
   50CHL1  H19B 6148   6.236   5.515   9.778 -0.0618  0.4487 -0.1372
   50CHL1  H19C 6149   6.226   5.485   9.600 -0.0911  1.1580 -0.3386
   50CHL1    C1 6150   6.011   5.690   9.768 -0.8103 -1.3270  0.0446
   50CHL1   H1A 6151   6.066   5.782   9.740 -0.3004 -1.4105  0.7660
   50CHL1   H1B 6152   5.905   5.721   9.754 -0.2339  1.4526  1.2047
   50CHL1    C2 6153   6.017   5.654   9.915  0.3784 -0.4324 -0.1569
   50CHL1   H2A 6154   5.977   5.738   9.976  0.7321 -0.0964 -0.3868
   50CHL1   H2B 6155   6.123   5.644   9.947  1.7301  2.4995 -3.1394
   50CHL1   C20 6156   6.104   5.734   8.986 -0.8442 -0.3500 -0.0406
   50CHL1   H20 6157   6.189   5.666   8.963 -2.4253 -1.6751 -2.4077
   50CHL1   C21 6158   6.169   5.868   9.035  0.3852 -0.1380  0.2223
   50CHL1  H21A 6159   6.236   5.839   9.119 -0.0973  0.6216  0.8811
   50CHL1  H21B 6160   6.095   5.945   9.065 -0.9199 -0.8972 -0.9140
   50CHL1  H21C 6161   6.224   5.910   8.948  0.1339 -1.0794 -0.4011
   50CHL1   C22 6162   6.032   5.748   8.849 -0.9544  0.5044  0.3992
   50CHL1  H22A 6163   5.931   5.702   8.844 -0.7411  0.1481 -1.2793
   50CHL1  H22B 6164   6.013   5.857   8.844 -1.2968  0.4437  0.3577
   50CHL1   C23 6165   6.124   5.704   8.728  0.1358  0.2527 -0.1816
   50CHL1  H23A 6166   6.227   5.743   8.738 -0.3081  1.2315  0.7264
   50CHL1  H23B 6167   6.123   5.593   8.724 -0.8653  0.2290  0.4483
   50CHL1   C24 6168   6.066   5.749   8.586  0.1616 -0.5982 -1.0072
   50CHL1  H24A 6169   6.062   5.860   8.584 -1.9347 -0.4686  2.4269
   50CHL1  H24B 6170   6.139   5.706   8.513  1.6262  1.7962 -1.0445
   50CHL1   C25 6171   5.921   5.702   8.556 -0.1645 -0.1865 -0.3992
   50CHL1   H25 6172   5.846   5.730   8.633  0.9813  1.1722  0.2703
   50CHL1   C26 6173   5.860   5.778   8.436  0.3792 -0.2150 -0.1951
   50CHL1  H26A 6174   5.760   5.737   8.410 -0.3353 -0.5121  2.7328
   50CHL1  H26B 6175   5.836   5.886   8.447  1.2190  0.1068 -1.3057
   50CHL1  H26C 6176   5.927   5.762   8.348  0.4631  1.6571 -0.5234
   50CHL1   C27 6177   5.906   5.552   8.534  0.1105 -0.1394  0.3291
   50CHL1  H27A 6178   5.963   5.530   8.441 -1.6601 -1.9498 -0.4208
   50CHL1  H27B 6179   5.937   5.487   8.618  1.6290  0.4517  0.2508
   50CHL1  H27C 6180   5.798   5.535   8.513  0.0803  1.2942 -0.8699
   51CHL1    C3 6181   2.476   6.595  10.168 -0.2450  0.5154 -0.2395
   51CHL1    H3 6182   2.571   6.645  10.137  1.0293 -1.6231  0.0533
   51CHL1    O3 6183   2.488   6.588  10.306  0.0317  0.0129 -0.3462
   51CHL1   H3' 6184   2.545   6.513  10.323 -2.0333 -1.3321  1.2723
   51CHL1    C4 6185   2.362   6.697  10.135  0.2932  0.2179 -0.3755
   51CHL1   H4A 6186   2.269   6.663  10.185  1.1178  0.3880  1.3542
   51CHL1   H4B 6187   2.396   6.792  10.180 -0.4752  0.3315 -0.0294
   51CHL1    C5 6188   2.330   6.712   9.998 -0.5148 -0.1759 -0.0533
   51CHL1    C6 6189   2.313   6.830   9.946  0.1989  0.0458 -0.4956
   51CHL1    H6 6190   2.301   6.915  10.014 -2.3236 -2.5003  2.5846
   51CHL1    C7 6191   2.291   6.854   9.796 -0.1367  0.1018  0.2492
   51CHL1   H7A 6192   2.212   6.932   9.786  1.3208  1.6047  0.0339
   51CHL1   H7B 6193   2.388   6.887   9.755  0.5745 -0.8258  1.1392
   51CHL1    C8 6194   2.255   6.723   9.721 -0.5170 -0.2299  0.1519
   51CHL1    H8 6195   2.153   6.694   9.755 -0.0189 -0.0487  1.8778
   51CHL1   C14 6196   2.261   6.744   9.568  0.3119 -0.0074  0.4857
   51CHL1   H14 6197   2.363   6.784   9.550 -0.9849  4.7222  2.0310
   51CHL1   C15 6198   2.173   6.846   9.501  0.0517  0.5103 -0.3266
   51CHL1  H15A 6199   2.067   6.853   9.535 -0.2968 -0.1592 -1.2236
   51CHL1  H15B 6200   2.223   6.945   9.508 -0.2414  0.7578 -1.4770
   51CHL1   C16 6201   2.168   6.803   9.350 -0.3458  0.0782  0.2694
   51CHL1  H16A 6202   2.067   6.789   9.306  0.1364 -0.7732 -0.6156
   51CHL1  H16B 6203   2.214   6.885   9.292  2.6198 -0.1786  2.0200
   51CHL1   C17 6204   2.246   6.670   9.332 -0.2632  0.4643  0.1164
   51CHL1   H17 6205   2.353   6.688   9.307  0.3003 -0.2531  1.8842
   51CHL1   C13 6206   2.252   6.614   9.477 -0.1621 -0.8460  0.1195
   51CHL1   C18 6207   2.117   6.549   9.517  0.0715 -0.0558  0.3422
   51CHL1  H18A 6208   2.107   6.472   9.437  1.4044  1.5835 -1.5034
   51CHL1  H18B 6209   2.126   6.509   9.620  0.8185 -1.3216 -0.1977
   51CHL1  H18C 6210   2.029   6.615   9.499  0.1863 -0.4287 -1.8940
   51CHL1   C12 6211   2.376   6.525   9.514  0.2848  0.3105 -0.2387
   51CHL1  H12A 6212   2.386   6.426   9.465 -1.2038 -0.8683  1.7012
   51CHL1  H12B 6213   2.468   6.585   9.499  0.8618 -0.1617  1.2918
   51CHL1   C11 6214   2.370   6.491   9.663  0.2356  0.3298  1.0129
   51CHL1  H11A 6215   2.288   6.420   9.683 -0.8485  1.2616  0.0182
   51CHL1  H11B 6216   2.468   6.441   9.678  1.9300  2.4127 -1.9004
   51CHL1    C9 6217   2.359   6.616   9.759  0.0758  0.4341 -0.8396
   51CHL1    H9 6218   2.458   6.666   9.745 -0.6458  2.0511 -0.3490
   51CHL1   C10 6219   2.340   6.583   9.910  0.5778 -0.4242 -0.3453
   51CHL1   C19 6220   2.208   6.505   9.926  0.2436 -0.2752 -0.2399
   51CHL1  H19A 6221   2.206   6.478  10.034  0.5403  0.9385  0.0892
   51CHL1  H19B 6222   2.121   6.569   9.900 -1.1041 -0.9183  2.2773
   51CHL1  H19C 6223   2.191   6.414   9.865 -0.9883 -0.8323  0.8735
   51CHL1    C1 6224   2.454   6.494   9.959  0.3578  0.6651  0.4292
   51CHL1   H1A 6225   2.448   6.401   9.899 -1.3472 -0.2601  1.9630
   51CHL1   H1B 6226   2.547   6.547   9.928  1.0456 -1.0095 -0.5411
   51CHL1    C2 6227   2.459   6.460  10.105  0.2400  1.0078  0.8918
   51CHL1   H2A 6228   2.545   6.391  10.117 -1.9696 -2.6383 -2.0485
   51CHL1   H2B 6229   2.361   6.416  10.134 -2.5371  5.1981 -1.0387
   51CHL1   C20 6230   2.200   6.569   9.213 -0.0692  0.2512 -0.6278
   51CHL1   H20 6231   2.102   6.530   9.248 -0.7007  1.8859 -0.5066
   51CHL1   C21 6232   2.301   6.467   9.174  0.1390 -0.3688  0.0931
   51CHL1  H21A 6233   2.258   6.407   9.091  0.1366 -2.5071  1.5742
   51CHL1  H21B 6234   2.326   6.387   9.247  0.7942 -2.0871 -1.8996
   51CHL1  H21C 6235   2.391   6.518   9.132 -0.9360  0.8895 -0.7492
   51CHL1   C22 6236   2.172   6.650   9.085 -0.2957  0.0581 -0.4037
   51CHL1  H22A 6237   2.134   6.752   9.108 -0.0178 -0.0172  0.4643
   51CHL1  H22B 6238   2.266   6.683   9.035 -0.0487  0.9933  0.6178
   51CHL1   C23 6239   2.067   6.590   8.987 -0.2441 -0.5791 -1.1281
   51CHL1  H23A 6240   2.095   6.488   8.953 -3.7126 -1.3475 -2.0968
   51CHL1  H23B 6241   1.980   6.587   9.057  1.4731 -1.5995  1.1152
   51CHL1   C24 6242   2.049   6.690   8.868 -0.4777  0.4827  0.6950
   51CHL1  H24A 6243   2.042   6.793   8.907 -2.6446  0.5756  0.2033
   51CHL1  H24B 6244   2.145   6.687   8.812 -0.7436  1.7626  0.1515
   51CHL1   C25 6245   1.925   6.671   8.780 -0.0148  0.9915 -0.3456
   51CHL1   H25 6246   1.939   6.572   8.731  1.1576  1.2995 -0.6639
   51CHL1   C26 6247   1.796   6.672   8.859 -0.9761 -0.4111 -0.1858
   51CHL1  H26A 6248   1.784   6.584   8.926 -0.2757 -0.4911 -0.1543
   51CHL1  H26B 6249   1.798   6.758   8.930  0.0962 -0.8869  0.4008
   51CHL1  H26C 6250   1.704   6.675   8.797 -0.1826 -0.2905 -1.3964
   51CHL1   C27 6251   1.916   6.780   8.676  0.1184 -0.6834 -0.2676
   51CHL1  H27A 6252   1.916   6.883   8.718  0.5321  0.2148 -2.3300
   51CHL1  H27B 6253   2.010   6.757   8.621  0.1867  1.0208 -0.9411
   51CHL1  H27C 6254   1.829   6.768   8.608 -0.7721 -5.1685  1.3126
   52CHL1    C3 6255   6.164   3.881  10.207  0.5209 -0.2747 -0.1873
   52CHL1    H3 6256   6.273   3.884  10.185  1.6483  0.9535  4.4603
   52CHL1    O3 6257   6.129   3.845  10.341 -0.2377 -0.1473 -0.2567
   52CHL1   H3' 6258   6.034   3.828  10.338 -0.0872 -0.9170 -1.2710
   52CHL1    C4 6259   6.097   4.023  10.181 -0.5537  0.0960 -0.2710
   52CHL1   H4A 6260   5.989   4.018  10.207 -0.7799  2.4958 -0.5058
   52CHL1   H4B 6261   6.157   4.083  10.253 -0.4765  0.7784 -0.8919
   52CHL1    C5 6262   6.111   4.064  10.038 -0.6049  0.3289 -0.1183
   52CHL1    C6 6263   6.180   4.180  10.014  0.4120 -0.3445  1.0228
   52CHL1    H6 6264   6.227   4.247  10.087  2.2669 -0.5109  0.0559
   52CHL1    C7 6265   6.202   4.230   9.876 -0.0197  0.0670  0.1014
   52CHL1   H7A 6266   6.176   4.338   9.874  1.4614  0.4303 -0.2942
   52CHL1   H7B 6267   6.305   4.215   9.839 -0.6861 -3.9213 -0.5705
   52CHL1    C8 6268   6.111   4.162   9.772  0.5557 -0.0991 -0.0643
   52CHL1    H8 6269   6.007   4.200   9.778  0.3267 -0.5121 -1.1153
   52CHL1   C14 6270   6.169   4.191   9.635  0.0848 -0.3463  0.6412
   52CHL1   H14 6271   6.275   4.157   9.637  0.1946 -0.0407  0.1019
   52CHL1   C15 6272   6.185   4.338   9.588  0.5134 -0.1887 -1.0402
   52CHL1  H15A 6273   6.095   4.400   9.609  0.7641 -0.2290  0.2484
   52CHL1  H15B 6274   6.273   4.384   9.637 -0.3117 -0.9781  1.3897
   52CHL1   C16 6275   6.203   4.338   9.439 -0.1316  0.2330  0.0034
   52CHL1  H16A 6276   6.127   4.411   9.404  1.0514  0.0200 -3.4490
   52CHL1  H16B 6277   6.308   4.359   9.411 -0.4643  1.5549 -0.3026
   52CHL1   C17 6278   6.157   4.198   9.400  0.2753 -1.1779  0.1217
   52CHL1   H17 6279   6.253   4.144   9.383  0.8675 -0.2176  0.3530
   52CHL1   C13 6280   6.090   4.127   9.518  0.2621  0.0388 -0.4720
   52CHL1   C18 6281   5.944   4.168   9.529  0.5990  0.2182 -0.2549
   52CHL1  H18A 6282   5.930   4.278   9.534 -0.2613  0.1124 -0.1294
   52CHL1  H18B 6283   5.877   4.124   9.452  0.8582 -3.9013  1.5938
   52CHL1  H18C 6284   5.888   4.119   9.612  0.5402 -1.8688 -1.4583
   52CHL1   C12 6285   6.116   3.974   9.527 -0.0067  0.9368 -0.1785
   52CHL1  H12A 6286   6.053   3.919   9.453  1.2831 -1.2098  0.2194
   52CHL1  H12B 6287   6.225   3.956   9.522 -0.1372 -1.8593  3.0344
   52CHL1   C11 6288   6.056   3.926   9.670 -0.1653 -0.4889  0.6075
   52CHL1  H11A 6289   5.945   3.924   9.666 -0.2582  2.1047  0.0545
   52CHL1  H11B 6290   6.094   3.822   9.679  0.9183 -0.2984 -1.2883
   52CHL1    C9 6291   6.107   4.014   9.790  0.3079  0.2698  0.1280
   52CHL1    H9 6292   6.213   3.980   9.786  0.2708  0.1890 -3.2930
   52CHL1   C10 6293   6.060   3.968   9.930  0.4273 -0.2475 -0.4421
   52CHL1   C19 6294   5.902   3.982   9.931  0.0192  1.0822  0.1086
   52CHL1  H19A 6295   5.853   3.923   9.850 -3.6046  0.6580  2.4249
   52CHL1  H19B 6296   5.859   3.934  10.021 -0.9164  1.0314 -0.3625
   52CHL1  H19C 6297   5.867   4.088   9.932 -0.5007  0.9120  0.0361
   52CHL1    C1 6298   6.104   3.813   9.959  0.2315 -0.4275  0.2675
   52CHL1   H1A 6299   6.040   3.748   9.896 -0.9356 -0.5203  1.5018
   52CHL1   H1B 6300   6.213   3.797   9.942  0.8643 -0.1406  3.3826
   52CHL1    C2 6301   6.089   3.776  10.114 -0.1462 -0.2497  0.1239
   52CHL1   H2A 6302   6.141   3.680  10.134  0.7785  0.7434  2.9773
   52CHL1   H2B 6303   5.983   3.765  10.147  0.5655 -3.2215  1.7709
   52CHL1   C20 6304   6.087   4.203   9.262 -0.1287  0.5847 -0.1960
   52CHL1   H20 6305   5.977   4.219   9.271 -0.4728 -1.0805 -1.0118
   52CHL1   C21 6306   6.086   4.057   9.198  0.2390  0.2464  0.0383
   52CHL1  H21A 6307   6.049   4.063   9.093 -1.9475  0.3928  0.7705
   52CHL1  H21B 6308   6.018   3.988   9.252  1.6917  0.7753  2.6991
   52CHL1  H21C 6309   6.189   4.015   9.196  0.2741  0.3535 -1.0537
   52CHL1   C22 6310   6.157   4.303   9.165  0.4557 -0.9266  0.1607
   52CHL1  H22A 6311   6.139   4.405   9.206  2.5154 -0.7126  0.6496
   52CHL1  H22B 6312   6.267   4.297   9.172  0.5257  0.5174  0.5221
   52CHL1   C23 6313   6.118   4.294   9.016  0.6792 -0.2565 -0.2635
   52CHL1  H23A 6314   6.150   4.192   8.986  1.3162 -0.1688  0.0898
   52CHL1  H23B 6315   6.008   4.304   9.010  0.6388 -0.9517 -0.7832
   52CHL1   C24 6316   6.196   4.409   8.938 -0.5439 -0.2544  0.0954
   52CHL1  H24A 6317   6.144   4.506   8.945  0.0077  0.1751 -1.3257
   52CHL1  H24B 6318   6.298   4.416   8.982 -1.0297  0.8135  1.0921
   52CHL1   C25 6319   6.206   4.393   8.783 -0.2033 -0.2290  0.2819
   52CHL1   H25 6320   6.274   4.473   8.747 -0.0982  0.2464  1.5145
   52CHL1   C26 6321   6.275   4.257   8.748 -0.3220  0.7159  0.1692
   52CHL1  H26A 6322   6.307   4.259   8.641  2.9639 -0.9196  0.9964
   52CHL1  H26B 6323   6.372   4.240   8.800 -0.8892 -2.0502  0.4462
   52CHL1  H26C 6324   6.211   4.167   8.755  2.6056 -1.3885  1.5961
   52CHL1   C27 6325   6.062   4.403   8.719 -0.4621 -0.2225 -0.2351
   52CHL1  H27A 6326   5.995   4.327   8.764 -0.0091 -0.2570  0.3932
   52CHL1  H27B 6327   6.030   4.507   8.742  0.6930  0.1927 -0.4022
   52CHL1  H27C 6328   6.068   4.390   8.609 -1.5388  1.7925 -0.5725
   53CHL1    C3 6329   4.750   3.034  10.127 -0.1424 -0.0616  0.2747
   53CHL1    H3 6330   4.803   2.955  10.183  0.6062  0.3339  0.1358
   53CHL1    O3 6331   4.690   3.131  10.217  0.3326 -0.3703  0.4948
   53CHL1   H3' 6332   4.764   3.148  10.276  0.6902  1.2464 -0.3549
   53CHL1    C4 6333   4.847   3.103  10.039  0.6130 -0.3315 -0.5180
   53CHL1   H4A 6334   4.788   3.190  10.004 -1.3341 -0.4963  2.0753
   53CHL1   H4B 6335   4.920   3.161  10.099 -0.4229  0.1152  0.3518
   53CHL1    C5 6336   4.908   3.027   9.924  0.9185  0.3065 -0.6128
   53CHL1    C6 6337   5.037   3.008   9.901 -0.3772  0.4427 -0.5823
   53CHL1    H6 6338   5.112   3.046   9.971 -0.4356 -0.0230 -0.2585
   53CHL1    C7 6339   5.090   2.952   9.772  0.3509  0.0416 -1.0485
   53CHL1   H7A 6340   5.166   3.019   9.728 -0.9675  2.8871  0.7063
   53CHL1   H7B 6341   5.138   2.854   9.795  0.7512  0.8878  2.2785
   53CHL1    C8 6342   4.986   2.931   9.660 -0.5354  0.3535  0.3427
   53CHL1    H8 6343   4.967   3.034   9.623  0.4964 -0.1123 -1.6288
   53CHL1   C14 6344   5.041   2.842   9.539 -0.1920 -0.4091 -0.7165
   53CHL1   H14 6345   5.065   2.742   9.580  1.9855  1.2052  2.3628
   53CHL1   C15 6346   5.184   2.882   9.481  0.7947  0.0603  0.1854
   53CHL1  H15A 6347   5.189   2.992   9.468  2.7968 -0.0121  0.0409
   53CHL1  H15B 6348   5.270   2.830   9.528  0.0807 -2.9499 -1.5779
   53CHL1   C16 6349   5.176   2.811   9.343 -0.2800 -0.0122  0.1625
   53CHL1  H16A 6350   5.196   2.885   9.263  5.8013 -0.7956  0.4799
   53CHL1  H16B 6351   5.255   2.733   9.337  0.9602  1.2660 -0.7885
   53CHL1   C17 6352   5.035   2.747   9.326  0.0593 -0.3135  0.6804
   53CHL1   H17 6353   5.034   2.642   9.362  0.1492 -1.9984 -3.6995
   53CHL1   C13 6354   4.949   2.825   9.425  0.0181  1.2450 -0.3563
   53CHL1   C18 6355   4.912   2.957   9.358 -0.5396  0.5906 -0.3909
   53CHL1  H18A 6356   4.890   3.032   9.438 -1.3827 -2.1754  2.1515
   53CHL1  H18B 6357   4.992   2.994   9.290 -0.4959 -1.7086 -1.6933
   53CHL1  H18C 6358   4.823   2.961   9.291 -0.4488 -0.3790 -0.5746
   53CHL1   C12 6359   4.830   2.747   9.494 -0.1880  0.5495  0.7601
   53CHL1  H12A 6360   4.749   2.723   9.422 -2.7727  0.3020  3.5478
   53CHL1  H12B 6361   4.862   2.645   9.522 -0.6223  0.7729  2.1299
   53CHL1   C11 6362   4.762   2.817   9.609  0.5263  0.0678  0.2626
   53CHL1  H11A 6363   4.718   2.903   9.555 -0.9088 -1.6501 -1.4541
   53CHL1  H11B 6364   4.666   2.773   9.643  0.3531  0.8240  0.7634
   53CHL1    C9 6365   4.856   2.872   9.723  0.6021  0.2836  0.2169
   53CHL1    H9 6366   4.895   2.793   9.790  1.5726  0.8597  0.3525
   53CHL1   C10 6367   4.798   2.976   9.826  0.3557 -0.2727 -0.0652
   53CHL1   C19 6368   4.713   3.087   9.755  0.2175  0.2146  0.6921
   53CHL1  H19A 6369   4.620   3.047   9.708 -1.0364  2.5695  0.9787
   53CHL1  H19B 6370   4.686   3.171   9.822 -1.2007 -0.0091  0.4333
   53CHL1  H19C 6371   4.778   3.142   9.684  0.9939 -1.2115  0.2799
   53CHL1    C1 6372   4.702   2.899   9.915  0.6722 -0.0273 -0.6295
   53CHL1   H1A 6373   4.617   2.875   9.847 -0.4452  2.4190 -0.2082
   53CHL1   H1B 6374   4.751   2.809   9.957  0.7781  1.0965  1.8228
   53CHL1    C2 6375   4.640   2.979  10.035 -0.4134  0.1920 -0.1037
   53CHL1   H2A 6376   4.570   2.915  10.094  0.3160 -1.8783 -1.3710
   53CHL1   H2B 6377   4.581   3.060   9.987 -1.0018 -0.8239 -1.1610
   53CHL1   C20 6378   4.985   2.733   9.180  0.3129  0.0754 -0.2126
   53CHL1   H20 6379   4.981   2.834   9.132  1.1791 -0.2599 -1.0290
   53CHL1   C21 6380   4.852   2.661   9.175 -0.2476  0.6284 -0.3986
   53CHL1  H21A 6381   4.771   2.729   9.208 -1.3723 -1.5061  1.5097
   53CHL1  H21B 6382   4.863   2.578   9.248 -1.4541  0.6541 -0.1646
   53CHL1  H21C 6383   4.835   2.616   9.076 -0.3054 -0.4950  0.1112
   53CHL1   C22 6384   5.083   2.645   9.092  0.1373 -0.4185 -0.5201
   53CHL1  H22A 6385   5.188   2.666   9.121  0.3499 -0.9877 -0.8510
   53CHL1  H22B 6386   5.062   2.540   9.119  0.6880 -0.1458  1.0237
   53CHL1   C23 6387   5.065   2.657   8.941 -0.3375  0.2336 -0.4947
   53CHL1  H23A 6388   4.973   2.606   8.906 -0.7963 -0.1127  1.1394
   53CHL1  H23B 6389   5.063   2.764   8.910 -0.2313 -0.2358 -2.2623
   53CHL1   C24 6390   5.181   2.589   8.874  0.2124  0.2508  0.8169
   53CHL1  H24A 6391   5.273   2.652   8.875  0.4117 -0.0127 -0.0763
   53CHL1  H24B 6392   5.208   2.491   8.921  0.5918  0.8760  1.9600
   53CHL1   C25 6393   5.155   2.559   8.725 -0.2248 -0.0751 -0.1571
   53CHL1   H25 6394   5.248   2.521   8.678 -1.4410 -3.2153 -0.3229
   53CHL1   C26 6395   5.045   2.445   8.716 -0.8346  0.4032 -0.1187
   53CHL1  H26A 6396   5.046   2.392   8.619 -0.3474 -0.4068  0.3176
   53CHL1  H26B 6397   5.060   2.374   8.800 -1.7013  0.6992  0.2887
   53CHL1  H26C 6398   4.945   2.491   8.726 -2.9646 -3.3619 -2.0599
   53CHL1   C27 6399   5.103   2.682   8.636  0.3480 -0.3047  0.0246
   53CHL1  H27A 6400   5.004   2.715   8.675  1.3385  0.6627  1.8209
   53CHL1  H27B 6401   5.183   2.757   8.651 -0.4464  0.3841  0.8930
   53CHL1  H27C 6402   5.100   2.657   8.528 -1.2907  2.1986 -0.5868
   54CHL1    C3 6403   5.918   1.145  10.024  0.3463  0.0788  0.1896
   54CHL1    H3 6404   6.006   1.207  10.055 -0.0422  1.9403 -2.1414
   54CHL1    O3 6405   5.861   1.086  10.141  0.1005 -0.5692  0.0091
   54CHL1   H3' 6406   5.915   1.010  10.166  0.4186 -0.3648 -0.0670
   54CHL1    C4 6407   5.801   1.230   9.971  0.3050  0.1443  0.2813
   54CHL1   H4A 6408   5.704   1.176   9.976 -0.1391  0.7353 -1.4066
   54CHL1   H4B 6409   5.770   1.314  10.036 -1.0348 -0.6429  0.6995
   54CHL1    C5 6410   5.825   1.282   9.828  0.2480 -0.0706 -1.0064
   54CHL1    C6 6411   5.814   1.411   9.794 -0.8111 -0.2155  0.1086
   54CHL1    H6 6412   5.793   1.480   9.877 -0.2573 -0.9915  0.9194
   54CHL1    C7 6413   5.834   1.464   9.650  0.1518 -0.0519 -0.0603
   54CHL1   H7A 6414   5.759   1.545   9.633 -0.8629 -0.8375  0.5729
   54CHL1   H7B 6415   5.938   1.494   9.626  0.7661 -0.4790  1.9527
   54CHL1    C8 6416   5.807   1.337   9.547 -0.0057 -0.1030 -0.2810
   54CHL1    H8 6417   5.702   1.303   9.561  0.3044 -0.4246  1.5024
   54CHL1   C14 6418   5.840   1.381   9.406 -0.5015 -0.9419 -0.4720
   54CHL1   H14 6419   5.948   1.405   9.416 -0.6978 -0.4066  0.5425
   54CHL1   C15 6420   5.773   1.511   9.355 -0.6476 -0.3979  0.3025
   54CHL1  H15A 6421   5.664   1.513   9.378 -0.5509  0.0958  0.7082
   54CHL1  H15B 6422   5.814   1.599   9.408 -2.4967 -0.0382  1.2311
   54CHL1   C16 6423   5.810   1.507   9.203  0.5167 -0.6800  0.1959
   54CHL1  H16A 6424   5.714   1.508   9.147  0.7008 -0.2596 -0.1159
   54CHL1  H16B 6425   5.874   1.589   9.163 -0.0020 -0.5293 -0.3449
   54CHL1   C17 6426   5.886   1.368   9.179 -0.0803  0.4939 -0.4811
   54CHL1   H17 6427   5.996   1.368   9.195  0.0954 -4.1754 -0.4191
   54CHL1   C13 6428   5.838   1.276   9.297  0.0765 -0.0833 -0.8358
   54CHL1   C18 6429   5.693   1.233   9.259  0.6700  0.3715 -0.0257
   54CHL1  H18A 6430   5.687   1.143   9.195  2.5063  0.6888 -0.7148
   54CHL1  H18B 6431   5.639   1.208   9.353 -0.8780  2.6897 -0.2156
   54CHL1  H18C 6432   5.629   1.312   9.214  1.0153  1.2388  0.9561
   54CHL1   C12 6433   5.936   1.166   9.342  0.0128 -0.2412 -0.3528
   54CHL1  H12A 6434   5.949   1.082   9.270  1.2778 -0.3620 -0.0171
   54CHL1  H12B 6435   6.039   1.206   9.355  0.9222 -2.6309  0.2801
   54CHL1   C11 6436   5.893   1.106   9.478 -0.1671 -0.6538 -0.6344
   54CHL1  H11A 6437   5.794   1.058   9.460 -0.3238 -0.1078 -1.2703
   54CHL1  H11B 6438   5.967   1.033   9.516  0.4414 -0.0272 -0.6076
   54CHL1    C9 6439   5.894   1.218   9.587 -0.7138 -0.1362  0.2256
   54CHL1    H9 6440   5.999   1.252   9.588 -0.8962  0.4491 -0.0732
   54CHL1   C10 6441   5.860   1.170   9.734  0.6352 -0.0830 -0.1527
   54CHL1   C19 6442   5.740   1.073   9.715  0.1154 -0.4495  0.0503
   54CHL1  H19A 6443   5.692   1.062   9.814  0.7816  2.3149  0.7582
   54CHL1  H19B 6444   5.673   1.128   9.646 -0.8583 -2.5204 -0.7514
   54CHL1  H19C 6445   5.772   0.979   9.663 -0.5553 -1.3748  1.2717
   54CHL1    C1 6446   5.981   1.087   9.791 -0.5183  0.0460  0.5421
   54CHL1   H1A 6447   6.009   1.010   9.715 -0.2934  0.1865  0.4814
   54CHL1   H1B 6448   6.063   1.161   9.795 -1.3249  0.9452  0.6937
   54CHL1    C2 6449   5.960   1.039   9.927  0.1650  0.3991 -0.2372
   54CHL1   H2A 6450   6.053   0.990   9.964  0.2027  0.8727  0.3218
   54CHL1   H2B 6451   5.886   0.958   9.918  1.4053 -0.7638 -0.3291
   54CHL1   C20 6452   5.874   1.320   9.035 -0.1959  0.4829 -0.3147
   54CHL1   H20 6453   5.765   1.325   9.017  0.1467  2.1908 -2.2638
   54CHL1   C21 6454   5.946   1.179   9.029 -0.7319  0.6732  0.7473
   54CHL1  H21A 6455   5.880   1.103   9.078  0.0876 -0.0164  0.7996
   54CHL1  H21B 6456   6.049   1.180   9.071  0.9929  0.5318 -3.0588
   54CHL1  H21C 6457   5.967   1.150   8.924  3.8757  0.5184  1.5238
   54CHL1   C22 6458   5.930   1.413   8.925 -0.5488  0.1152  0.7812
   54CHL1  H22A 6459   5.891   1.515   8.947 -0.5900  0.3227 -0.2049
   54CHL1  H22B 6460   6.041   1.412   8.930 -0.4512  0.0226 -0.8973
   54CHL1   C23 6461   5.889   1.389   8.778 -0.2950  0.4759 -0.3244
   54CHL1  H23A 6462   5.904   1.286   8.738  0.8825 -0.7097  2.8615
   54CHL1  H23B 6463   5.780   1.400   8.789 -0.5140 -1.2438 -0.4605
   54CHL1   C24 6464   5.945   1.483   8.674  0.0847  0.3051  0.5003
   54CHL1  H24A 6465   5.874   1.492   8.589  0.7423  2.7676  0.1265
   54CHL1  H24B 6466   5.964   1.579   8.727 -0.0662 -1.1435  3.3662
   54CHL1   C25 6467   6.083   1.437   8.630  0.3997  0.0850 -1.2310
   54CHL1   H25 6468   6.137   1.386   8.713 -0.9801  0.7969  0.1488
   54CHL1   C26 6469   6.079   1.338   8.511 -0.3223  0.1525 -0.3747
   54CHL1  H26A 6470   6.041   1.400   8.427  1.2519  3.0822  0.9481
   54CHL1  H26B 6471   6.176   1.287   8.490 -1.6333 -2.3626 -0.6464
   54CHL1  H26C 6472   6.009   1.256   8.537 -1.6301  1.0578 -0.9366
   54CHL1   C27 6473   6.162   1.554   8.583 -0.2789  0.2386 -0.0933
   54CHL1  H27A 6474   6.120   1.603   8.494  0.2078  1.0351  0.1027
   54CHL1  H27B 6475   6.176   1.625   8.668  0.1736 -0.7883  0.7179
   54CHL1  H27C 6476   6.266   1.528   8.551  0.6285  0.6303  2.2994
   55CHL1    C3 6477   4.181   3.228  10.111  0.1698 -0.1031 -0.3529
   55CHL1    H3 6478   4.084   3.175  10.101 -0.6221  1.4104 -1.1716
   55CHL1    O3 6479   4.196   3.277  10.245 -0.0253  0.1413  0.5699
   55CHL1   H3' 6480   4.179   3.198  10.296 -1.4745 -2.1748 -3.0698
   55CHL1    C4 6481   4.303   3.134  10.079  0.1610  0.6696 -0.1410
   55CHL1   H4A 6482   4.398   3.192  10.086 -0.6672  1.8366  2.3823
   55CHL1   H4B 6483   4.303   3.048  10.150 -3.1240  1.5333  1.0496
   55CHL1    C5 6484   4.298   3.079   9.935  0.3452 -0.1627 -0.3177
   55CHL1    C6 6485   4.285   2.943   9.925 -0.2826 -0.0610 -0.0095
   55CHL1    H6 6486   4.295   2.879  10.014  0.6400 -0.4977 -0.4066
   55CHL1    C7 6487   4.266   2.870   9.799 -0.0107  1.3515 -1.4382
   55CHL1   H7A 6488   4.332   2.781   9.808  1.0730  2.3189  1.6760
   55CHL1   H7B 6489   4.160   2.836   9.793 -0.3378  1.5606  1.3585
   55CHL1    C8 6490   4.302   2.961   9.675 -0.3448 -0.1772 -0.7860
   55CHL1    H8 6491   4.411   2.980   9.688 -0.3886  3.8004 -4.0981
   55CHL1   C14 6492   4.283   2.890   9.542 -0.4923  0.6582  0.6578
   55CHL1   H14 6493   4.173   2.878   9.532 -0.2527 -0.6926 -0.5671
   55CHL1   C15 6494   4.348   2.752   9.510  0.4733  0.5526  0.0373
   55CHL1  H15A 6495   4.453   2.739   9.545 -0.2640 -1.5116  1.7053
   55CHL1  H15B 6496   4.290   2.669   9.555 -1.7121  2.4556  0.9617
   55CHL1   C16 6497   4.336   2.752   9.356 -0.6463  0.1306  0.3675
   55CHL1  H16A 6498   4.437   2.751   9.309  0.0237  0.9106  1.7312
   55CHL1  H16B 6499   4.291   2.663   9.306 -0.2143 -0.4847  1.0576
   55CHL1   C17 6500   4.271   2.878   9.305  0.2443 -0.2695 -0.3138
   55CHL1   H17 6501   4.162   2.857   9.305  0.4983 -1.8074 -2.0942
   55CHL1   C13 6502   4.316   2.975   9.413 -0.2033 -0.4385  0.2566
   55CHL1   C18 6503   4.471   3.004   9.398  0.1927 -0.3849 -0.0582
   55CHL1  H18A 6504   4.490   3.079   9.318  1.1362 -0.0876  0.4256
   55CHL1  H18B 6505   4.519   3.027   9.496 -1.8227  2.8762  0.3022
   55CHL1  H18C 6506   4.523   2.910   9.371 -1.0609 -0.6763 -1.5733
   55CHL1   C12 6507   4.238   3.111   9.429  0.2066 -0.0698 -0.1607
   55CHL1  H12A 6508   4.270   3.181   9.349  0.4074  0.9020  0.7634
   55CHL1  H12B 6509   4.128   3.100   9.412  0.4251 -3.0671 -0.2136
   55CHL1   C11 6510   4.267   3.187   9.557 -0.2444  0.5494  0.5969
   55CHL1  H11A 6511   4.372   3.225   9.556 -0.5613  1.5019  1.7166
   55CHL1  H11B 6512   4.201   3.275   9.569  1.1540  1.3308  3.7051
   55CHL1    C9 6513   4.242   3.104   9.690  0.6810  0.3833  0.0894
   55CHL1    H9 6514   4.133   3.085   9.687  0.8568 -0.5287 -0.9474
   55CHL1   C10 6515   4.270   3.180   9.822 -0.0837  0.6860 -0.2324
   55CHL1   C19 6516   4.410   3.256   9.800  0.3592 -0.2344 -0.0808
   55CHL1  H19A 6517   4.372   3.344   9.744 -0.6239  0.0530  1.0007
   55CHL1  H19B 6518   4.456   3.295   9.894 -0.7885  0.0865  0.3527
   55CHL1  H19C 6519   4.483   3.188   9.750 -0.9338  0.4252 -3.0917
   55CHL1    C1 6520   4.164   3.289   9.873 -0.0944  0.1795  0.1022
   55CHL1   H1A 6521   4.188   3.368   9.798  0.8232  1.8794  2.0622
   55CHL1   H1B 6522   4.067   3.245   9.844  0.8820 -0.6583 -2.1784
   55CHL1    C2 6523   4.188   3.343  10.012 -0.1814 -1.0293 -0.0299
   55CHL1   H2A 6524   4.100   3.409  10.027  1.0840  0.7487 -0.0117
   55CHL1   H2B 6525   4.285   3.398  10.015  0.1432 -1.6356  1.6674
   55CHL1   C20 6526   4.313   2.918   9.164  0.3605 -0.3240  0.1615
   55CHL1   H20 6527   4.415   2.961   9.167  0.1706  0.2517 -1.0995
   55CHL1   C21 6528   4.217   3.022   9.110  0.5010 -0.0604  0.2983
   55CHL1  H21A 6529   4.237   3.043   9.003 -1.2966 -1.9056 -0.4716
   55CHL1  H21B 6530   4.227   3.117   9.166  0.8635 -0.5562  1.0914
   55CHL1  H21C 6531   4.116   2.977   9.119  1.3498 -2.4762 -1.1798
   55CHL1   C22 6532   4.329   2.809   9.055 -0.3139  0.3272  0.2851
   55CHL1  H22A 6533   4.314   2.705   9.090 -1.8970  0.9090  1.4532
   55CHL1  H22B 6534   4.243   2.804   8.984 -0.3200  1.9185  0.1388
   55CHL1   C23 6535   4.454   2.828   8.960 -0.3250  0.1050  0.1678
   55CHL1  H23A 6536   4.458   2.931   8.920 -0.1272 -1.1198 -3.2466
   55CHL1  H23B 6537   4.552   2.821   9.013 -0.3728 -1.0279  0.1210
   55CHL1   C24 6538   4.444   2.740   8.841  0.0808 -0.0910  0.1182
   55CHL1  H24A 6539   4.544   2.727   8.793 -0.0950  0.4254 -0.4002
   55CHL1  H24B 6540   4.400   2.645   8.877  0.4824 -0.6967 -0.9427
   55CHL1   C25 6541   4.359   2.795   8.724 -0.8905  0.2434 -0.5795
   55CHL1   H25 6542   4.265   2.834   8.769  0.1473  0.1692  1.8222
   55CHL1   C26 6543   4.437   2.901   8.640 -0.1496  0.3029  0.7272
   55CHL1  H26A 6544   4.378   2.933   8.552 -0.1046 -0.7991  0.2841
   55CHL1  H26B 6545   4.463   2.989   8.703  0.9383 -1.3473  2.7295
   55CHL1  H26C 6546   4.531   2.857   8.599  0.0186  1.0262  0.3173
   55CHL1   C27 6547   4.319   2.677   8.634 -0.3094 -0.0093  0.4287
   55CHL1  H27A 6548   4.217   2.698   8.596 -1.4846  2.1745  4.1783
   55CHL1  H27B 6549   4.396   2.648   8.559 -1.9203 -1.7733 -0.6159
   55CHL1  H27C 6550   4.304   2.581   8.687 -0.0950 -0.0421  0.4342
   56CHL1    C3 6551   3.624   6.362   9.979 -0.3677  0.1920 -0.0612
   56CHL1    H3 6552   3.548   6.444   9.976 -0.9624 -0.3703 -0.5968
   56CHL1    O3 6553   3.680   6.354  10.109  0.5330 -0.0777  0.2195
   56CHL1   H3' 6554   3.625   6.295  10.163  0.0686 -0.9468 -1.1470
   56CHL1    C4 6555   3.553   6.225   9.952  0.6121 -0.0162 -0.6751
   56CHL1   H4A 6556   3.624   6.140   9.963  1.8671  1.0815 -0.0312
   56CHL1   H4B 6557   3.472   6.202  10.024  0.3800 -0.4476 -1.0700
   56CHL1    C5 6558   3.507   6.218   9.807 -0.4958  0.1666 -0.5248
   56CHL1    C6 6559   3.384   6.200   9.776  0.9852  0.7111  0.1055
   56CHL1    H6 6560   3.301   6.189   9.847 -0.7556  0.5066 -1.8592
   56CHL1    C7 6561   3.331   6.199   9.634  0.5369  0.1075  0.1234
   56CHL1   H7A 6562   3.251   6.124   9.618  0.8712  0.1247 -1.9724
   56CHL1   H7B 6563   3.290   6.300   9.613  3.0386  1.5246  1.5341
   56CHL1    C8 6564   3.442   6.176   9.532 -0.5993 -0.0747  0.0559
   56CHL1    H8 6565   3.476   6.071   9.542  0.1648  0.3596  2.8856
   56CHL1   C14 6566   3.396   6.214   9.395 -0.5688 -0.6052  0.1491
   56CHL1   H14 6567   3.382   6.324   9.396 -3.1260 -0.8558  1.3281
   56CHL1   C15 6568   3.266   6.157   9.345 -0.0394 -0.5643 -0.7110
   56CHL1  H15A 6569   3.253   6.049   9.366  1.5758 -0.7222 -0.4069
   56CHL1  H15B 6570   3.178   6.209   9.388 -0.1342 -0.7559 -0.6726
   56CHL1   C16 6571   3.272   6.161   9.191 -0.4415  0.2336 -0.1984
   56CHL1  H16A 6572   3.264   6.057   9.154  2.3205 -0.8312  1.8308
   56CHL1  H16B 6573   3.206   6.235   9.141 -0.3288  2.4764  2.6925
   56CHL1   C17 6574   3.421   6.214   9.158 -0.0333  0.3899  0.3633
   56CHL1   H17 6575   3.419   6.325   9.155  0.1998  0.4051 -2.5946
   56CHL1   C13 6576   3.502   6.182   9.285  0.8053 -0.0342  0.3737
   56CHL1   C18 6577   3.531   6.029   9.286  0.1276 -0.3359  0.5386
   56CHL1  H18A 6578   3.447   5.960   9.265 -0.2083  0.1051  0.4352
   56CHL1  H18B 6579   3.613   6.006   9.214 -1.1353 -0.1061 -1.0456
   56CHL1  H18C 6580   3.576   6.001   9.384  3.3905  3.7031  0.4541
   56CHL1   C12 6581   3.629   6.270   9.308  0.2215  0.5369 -0.2395
   56CHL1  H12A 6582   3.707   6.246   9.234  0.3140 -1.4668  0.4455
   56CHL1  H12B 6583   3.604   6.378   9.295  1.6910  0.6914 -2.2231
   56CHL1   C11 6584   3.678   6.242   9.449 -0.1802 -0.7307 -0.7297
   56CHL1  H11A 6585   3.715   6.137   9.443 -0.7654 -1.2288  2.4868
   56CHL1  H11B 6586   3.767   6.305   9.471 -2.6581  2.3270  1.3445
   56CHL1    C9 6587   3.568   6.257   9.559 -0.5757 -1.1691 -0.5377
   56CHL1    H9 6588   3.540   6.365   9.557  0.5429 -0.8488  0.3944
   56CHL1   C10 6589   3.617   6.234   9.706  0.6428 -0.3153 -0.4654
   56CHL1   C19 6590   3.707   6.112   9.706 -0.5675 -0.6259  0.6683
   56CHL1  H19A 6591   3.755   6.100   9.806 -1.4195 -1.8428  0.9646
   56CHL1  H19B 6592   3.650   6.019   9.681  0.8376 -1.4163  0.3196
   56CHL1  H19C 6593   3.789   6.131   9.635  1.3878  1.1213  3.2095
   56CHL1    C1 6594   3.690   6.364   9.743 -0.4819 -0.6869 -0.1487
   56CHL1   H1A 6595   3.774   6.399   9.680 -1.1212 -0.5164 -0.9196
   56CHL1   H1B 6596   3.618   6.448   9.741 -0.4286 -0.6421 -0.2109
   56CHL1    C2 6597   3.743   6.386   9.882  0.5704  0.6603 -0.4157
   56CHL1   H2A 6598   3.786   6.488   9.893  1.1873  0.5057 -1.2974
   56CHL1   H2B 6599   3.826   6.315   9.903  0.5612  0.6834 -0.3009
   56CHL1   C20 6600   3.467   6.171   9.020 -0.5001 -0.3344  0.3185
   56CHL1   H20 6601   3.457   6.060   9.015  0.7865 -0.4516 -0.0219
   56CHL1   C21 6602   3.612   6.195   8.996 -0.4986  0.6759 -0.3663
   56CHL1  H21A 6603   3.631   6.302   9.021 -0.3051  0.4579  0.4570
   56CHL1  H21B 6604   3.635   6.205   8.888  0.3845 -3.1702 -0.6743
   56CHL1  H21C 6605   3.688   6.131   9.045  0.5836  1.3238 -1.1379
   56CHL1   C22 6606   3.376   6.234   8.902  0.0786  0.2046 -0.5974
   56CHL1  H22A 6607   3.403   6.175   8.812 -1.2827 -0.3663 -0.6531
   56CHL1  H22B 6608   3.272   6.212   8.932  0.0271  0.9687 -0.1922
   56CHL1   C23 6609   3.396   6.385   8.884  0.2438  0.5513  0.6192
   56CHL1  H23A 6610   3.423   6.438   8.978  1.4841  3.2772 -1.1599
   56CHL1  H23B 6611   3.496   6.390   8.836  0.7985 -1.1354  1.4732
   56CHL1   C24 6612   3.288   6.447   8.794 -0.5081 -0.2202 -0.0465
   56CHL1  H24A 6613   3.262   6.380   8.709  0.7132  1.6009 -1.9708
   56CHL1  H24B 6614   3.194   6.455   8.853 -0.7314 -1.8628 -0.1525
   56CHL1   C25 6615   3.316   6.597   8.753  0.0700 -0.3618 -0.3842
   56CHL1   H25 6616   3.355   6.646   8.844 -0.9576  0.8518 -0.5554
   56CHL1   C26 6617   3.409   6.630   8.638 -0.2301  0.1846 -0.0987
   56CHL1  H26A 6618   3.516   6.604   8.657 -0.1125 -0.0956 -1.0642
   56CHL1  H26B 6619   3.386   6.567   8.549 -2.0245  1.2614 -0.4396
   56CHL1  H26C 6620   3.394   6.735   8.605  1.7338  1.2668  2.0879
   56CHL1   C27 6621   3.177   6.675   8.729  0.3697 -0.0550  0.0041
   56CHL1  H27A 6622   3.112   6.652   8.816 -0.8136 -0.9252 -1.0850
   56CHL1  H27B 6623   3.189   6.785   8.728 -0.5220  0.0537 -1.9243
   56CHL1  H27C 6624   3.127   6.642   8.636  0.8925  0.1492 -0.3525
   57CHL1    C3 6625   6.292   3.005  10.257  0.7045 -0.9561  0.2314
   57CHL1    H3 6626   6.191   2.966  10.229  0.6078 -1.1372  0.8194
   57CHL1    O3 6627   6.293   3.036  10.393  0.2359 -0.4429 -0.0254
   57CHL1   H3' 6628   6.375   3.001  10.430  1.3321  2.4957  0.5913
   57CHL1    C4 6629   6.399   2.891  10.233 -0.3775 -0.2222 -0.2974
   57CHL1   H4A 6630   6.497   2.925  10.273 -1.2509  0.4221  1.3965
   57CHL1   H4B 6631   6.370   2.804  10.295 -0.3546  0.1080  0.1872
   57CHL1    C5 6632   6.416   2.870  10.083  0.0366  0.0895  0.1065
   57CHL1    C6 6633   6.418   2.744  10.040 -0.4072 -0.3463  0.6945
   57CHL1    H6 6634   6.409   2.663  10.113  2.0757 -2.6222 -1.3032
   57CHL1    C7 6635   6.436   2.712   9.886  0.3195  0.1351 -1.4392
   57CHL1   H7A 6636   6.496   2.619   9.872  0.0062 -1.0912  3.5852
   57CHL1   H7B 6637   6.342   2.685   9.834  1.5035  1.1983 -4.3584
   57CHL1    C8 6638   6.485   2.838   9.804 -0.8685  0.0419  0.0086
   57CHL1    H8 6639   6.593   2.854   9.821 -1.0345  0.8300  0.3902
   57CHL1   C14 6640   6.457   2.818   9.655 -0.5535  0.1051 -0.5175
   57CHL1   H14 6641   6.350   2.800   9.634 -0.8739  0.4861  0.7171
   57CHL1   C15 6642   6.538   2.698   9.607 -0.2367  0.0257  0.5180
   57CHL1  H15A 6643   6.643   2.699   9.645 -0.4285 -0.4543  1.0822
   57CHL1  H15B 6644   6.491   2.599   9.628 -3.6380  1.4435  0.0917
   57CHL1   C16 6645   6.556   2.718   9.456 -0.3120  0.3277 -0.9507
   57CHL1  H16A 6646   6.664   2.700   9.440 -0.0326  0.4402  0.6430
   57CHL1  H16B 6647   6.507   2.636   9.400  0.0404  1.1297 -2.4905
   57CHL1   C17 6648   6.513   2.868   9.431 -0.6254  0.5413 -0.8245
   57CHL1   H17 6649   6.408   2.865   9.395 -0.2578 -0.5559 -1.8500
   57CHL1   C13 6650   6.509   2.934   9.568  0.1410  0.8437 -0.0256
   57CHL1   C18 6651   6.654   2.968   9.605 -0.5516  0.3929  0.5702
   57CHL1  H18A 6652   6.726   2.895   9.561 -1.8747 -1.3934  1.2559
   57CHL1  H18B 6653   6.670   3.064   9.552  2.7107 -0.4135 -0.1707
   57CHL1  H18C 6654   6.677   2.989   9.712  1.6862 -0.1678  0.2672
   57CHL1   C12 6655   6.412   3.047   9.604 -0.6922 -0.2108  0.9743
   57CHL1  H12A 6656   6.426   3.136   9.538 -1.0020  1.4777  3.0759
   57CHL1  H12B 6657   6.308   3.014   9.580 -0.4415  0.8688 -2.0942
   57CHL1   C11 6658   6.424   3.083   9.752 -0.1731 -0.0636 -0.4931
   57CHL1  H11A 6659   6.523   3.130   9.772 -0.0496  0.0493 -1.3315
   57CHL1  H11B 6660   6.352   3.167   9.761  2.4065  2.5531 -2.2963
   57CHL1    C9 6661   6.408   2.965   9.848  0.2741  0.0585  0.5782
   57CHL1    H9 6662   6.303   2.928   9.843  0.1401  0.5193 -0.1599
   57CHL1   C10 6663   6.431   3.003   9.997 -0.5660  0.2479  0.7475
   57CHL1   C19 6664   6.571   3.051  10.021 -0.1562 -0.0948 -0.3826
   57CHL1  H19A 6665   6.587   3.143   9.959  1.8541 -1.0416 -1.3846
   57CHL1  H19B 6666   6.578   3.088  10.125 -0.9663 -0.1245 -0.3150
   57CHL1  H19C 6667   6.650   2.974  10.009  0.7699  0.6404  0.7626
   57CHL1    C1 6668   6.340   3.127  10.027 -0.2580  0.5564 -0.4711
   57CHL1   H1A 6669   6.386   3.214   9.977  0.3672  0.0258 -0.8363
   57CHL1   H1B 6670   6.242   3.107   9.979 -0.7662  0.8405  0.4174
   57CHL1    C2 6671   6.319   3.140  10.184 -0.2842 -0.2895  0.2117
   57CHL1   H2A 6672   6.240   3.215  10.205 -0.1657 -0.7932  2.7172
   57CHL1   H2B 6673   6.416   3.187  10.210 -0.4437  0.5400 -0.6123
   57CHL1   C20 6674   6.599   2.935   9.317  0.0937  1.0522 -0.1863
   57CHL1   H20 6675   6.704   2.955   9.348  0.8664  0.2845 -2.1804
   57CHL1   C21 6676   6.535   3.070   9.291 -0.2019 -0.6387  0.1409
   57CHL1  H21A 6677   6.428   3.074   9.263  0.5005  2.4877 -2.7441
   57CHL1  H21B 6678   6.581   3.121   9.204 -0.4862  2.0461  1.4310
   57CHL1  H21C 6679   6.544   3.142   9.376 -1.2046 -0.2439 -0.0757
   57CHL1   C22 6680   6.623   2.855   9.190  0.2286  0.1662  0.2494
   57CHL1  H22A 6681   6.679   2.762   9.211  2.1289  0.8731 -1.3214
   57CHL1  H22B 6682   6.533   2.826   9.134  1.4020 -0.5846 -1.3173
   57CHL1   C23 6683   6.719   2.917   9.081  0.0049 -0.1180  0.4050
   57CHL1  H23A 6684   6.692   3.021   9.050  0.7914 -0.6288 -2.2862
   57CHL1  H23B 6685   6.821   2.918   9.123  0.7685 -1.2816 -1.2975
   57CHL1   C24 6686   6.715   2.828   8.954  0.2838  0.3568  0.3210
   57CHL1  H24A 6687   6.756   2.729   8.984  0.0809  0.7484  1.9701
   57CHL1  H24B 6688   6.613   2.813   8.912  1.6822  0.0994 -3.3827
   57CHL1   C25 6689   6.812   2.876   8.842  0.2217 -0.4518  0.0126
   57CHL1   H25 6690   6.810   2.800   8.762  2.6131 -2.6584  1.8410
   57CHL1   C26 6691   6.768   3.009   8.781 -0.2920 -0.5418 -0.1721
   57CHL1  H26A 6692   6.743   3.086   8.857  0.4466 -0.6405  0.1765
   57CHL1  H26B 6693   6.850   3.052   8.721 -0.0403  0.6552  0.9804
   57CHL1  H26C 6694   6.677   3.000   8.718  0.5057  1.1039 -1.6044
   57CHL1   C27 6695   6.961   2.886   8.882 -0.1210 -0.1072  0.2825
   57CHL1  H27A 6696   6.984   2.959   8.963  2.6814  0.8856 -1.2621
   57CHL1  H27B 6697   6.991   2.785   8.915 -1.5921 -1.8434 -3.1737
   57CHL1  H27C 6698   7.023   2.911   8.792 -0.0001  2.1186  0.9154
   58CHL1    C3 6699   2.426   2.376  10.073  0.0563  0.0467 -0.4388
   58CHL1    H3 6700   2.321   2.371  10.107 -0.8005 -0.9482 -3.0166
   58CHL1    O3 6701   2.506   2.334  10.183 -0.3165 -0.0207  0.0682
   58CHL1   H3' 6702   2.479   2.245  10.207  0.4895 -0.3126 -0.0719
   58CHL1    C4 6703   2.426   2.258   9.962 -0.1025  0.9227 -0.6080
   58CHL1   H4A 6704   2.531   2.227   9.944 -0.2867  0.5019 -0.9401
   58CHL1   H4B 6705   2.370   2.171  10.002  1.0347 -0.1363 -1.2780
   58CHL1    C5 6706   2.361   2.304   9.835 -0.3644 -0.1543  0.6063
   58CHL1    C6 6707   2.258   2.239   9.780 -0.2169  0.0212 -0.1835
   58CHL1    H6 6708   2.223   2.146   9.827 -0.0615  0.4246  0.7601
   58CHL1    C7 6709   2.213   2.263   9.640 -0.0066 -0.0086 -0.3661
   58CHL1   H7A 6710   2.214   2.166   9.586 -0.1449  0.4782 -1.2567
   58CHL1   H7B 6711   2.110   2.301   9.657  0.0751  0.3852 -0.7323
   58CHL1    C8 6712   2.299   2.366   9.562  1.0494  0.2799 -0.0955
   58CHL1    H8 6713   2.388   2.312   9.523 -0.0654  0.3444 -3.0110
   58CHL1   C14 6714   2.220   2.405   9.437  0.3800 -0.3704 -0.5526
   58CHL1   H14 6715   2.141   2.473   9.477  1.9246  0.9235  0.4368
   58CHL1   C15 6716   2.145   2.299   9.352  0.2010  0.3708 -0.4202
   58CHL1  H15A 6717   2.197   2.202   9.343  0.0505  0.4720 -2.9491
   58CHL1  H15B 6718   2.042   2.274   9.387 -0.2146  1.4097 -0.8650
   58CHL1   C16 6719   2.140   2.359   9.212 -0.6329  0.1120 -0.1681
   58CHL1  H16A 6720   2.212   2.303   9.149  1.2040  1.8705  0.2637
   58CHL1  H16B 6721   2.041   2.363   9.161 -0.3166 -1.5170 -0.9837
   58CHL1   C17 6722   2.204   2.501   9.226  0.3082 -0.4623  0.6569
   58CHL1   H17 6723   2.132   2.566   9.280  0.5875  0.5856 -0.1828
   58CHL1   C13 6724   2.302   2.490   9.343 -0.1722 -0.2992  0.7507
   58CHL1   C18 6725   2.421   2.407   9.282 -0.0550 -0.0925 -0.1537
   58CHL1  H18A 6726   2.402   2.307   9.238 -0.9380  0.7883 -1.9043
   58CHL1  H18B 6727   2.468   2.470   9.203 -1.3291  0.3339 -0.6072
   58CHL1  H18C 6728   2.493   2.392   9.365 -1.0109 -1.4948  0.4647
   58CHL1   C12 6729   2.340   2.617   9.417 -0.3565 -0.0823 -0.3827
   58CHL1  H12A 6730   2.424   2.670   9.367 -0.4615  1.5218  1.0204
   58CHL1  H12B 6731   2.260   2.694   9.414  0.3417  0.6858  0.0794
   58CHL1   C11 6732   2.406   2.602   9.555  1.0290  0.0338  0.2950
   58CHL1  H11A 6733   2.503   2.555   9.527  0.2289  0.4002 -3.6080
   58CHL1  H11B 6734   2.415   2.699   9.608  1.7472  1.1292 -1.7296
   58CHL1    C9 6735   2.338   2.490   9.645 -0.0979  0.2330  0.2879
   58CHL1    H9 6736   2.243   2.530   9.684 -1.6739 -1.7982 -1.1973
   58CHL1   C10 6737   2.416   2.432   9.766 -0.3095 -0.6120 -0.7384
   58CHL1   C19 6738   2.568   2.405   9.735 -0.6991 -0.0666  0.4849
   58CHL1  H19A 6739   2.619   2.333   9.803  0.2598 -0.2376 -0.3790
   58CHL1  H19B 6740   2.571   2.357   9.635 -0.9244  1.1960 -0.1512
   58CHL1  H19C 6741   2.616   2.505   9.739 -1.9519  0.5020  2.0402
   58CHL1    C1 6742   2.419   2.537   9.885 -0.1431 -0.4612 -0.1655
   58CHL1   H1A 6743   2.450   2.632   9.837 -0.3614 -0.5606 -0.5092
   58CHL1   H1B 6744   2.316   2.564   9.915  0.5679 -0.0556  2.0502
   58CHL1    C2 6745   2.493   2.498  10.017  0.1842 -0.1692  1.1443
   58CHL1   H2A 6746   2.491   2.583  10.089  0.1492  0.3807  0.4999
   58CHL1   H2B 6747   2.601   2.479  10.004 -0.2979 -1.7639 -0.9438
   58CHL1   C20 6748   2.249   2.572   9.088 -0.3986 -0.8208 -1.0701
   58CHL1   H20 6749   2.333   2.642   9.109 -0.4211 -0.3603 -2.4271
   58CHL1   C21 6750   2.125   2.661   9.062 -0.6214  0.0521 -0.5788
   58CHL1  H21A 6751   2.122   2.718   8.967 -0.7527  1.2188  0.1200
   58CHL1  H21B 6752   2.111   2.733   9.145 -0.4119 -0.8441  0.2510
   58CHL1  H21C 6753   2.033   2.597   9.063 -0.7405  0.1871  2.2364
   58CHL1   C22 6754   2.277   2.487   8.959 -0.1942  0.1380  0.5164
   58CHL1  H22A 6755   2.362   2.419   8.983 -0.7892 -0.5266  0.7770
   58CHL1  H22B 6756   2.202   2.410   8.930 -1.2191  0.8566  1.2071
   58CHL1   C23 6757   2.328   2.575   8.836 -0.3079  0.4728  0.0815
   58CHL1  H23A 6758   2.234   2.619   8.798  0.1689  0.7599 -0.7851
   58CHL1  H23B 6759   2.397   2.653   8.874  1.5630 -1.1941  0.2424
   58CHL1   C24 6760   2.399   2.476   8.742  0.6977 -0.1801  0.6076
   58CHL1  H24A 6761   2.503   2.453   8.773  0.8610 -0.3133 -0.0187
   58CHL1  H24B 6762   2.330   2.390   8.732  0.4239  0.3273 -4.0476
   58CHL1   C25 6763   2.399   2.534   8.599  0.0513 -0.3838 -0.1495
   58CHL1   H25 6764   2.298   2.578   8.584  0.0900 -0.2222  0.0571
   58CHL1   C26 6765   2.503   2.653   8.588  0.0350  0.3887  0.1251
   58CHL1  H26A 6766   2.480   2.721   8.503  0.5208  0.5625  0.1274
   58CHL1  H26B 6767   2.504   2.711   8.683 -2.3166 -0.1839  0.5529
   58CHL1  H26C 6768   2.603   2.608   8.570 -0.9511 -1.1640 -1.8191
   58CHL1   C27 6769   2.434   2.426   8.498  0.0703  0.4666  0.1662
   58CHL1  H27A 6770   2.457   2.460   8.395  0.0417 -0.9240 -0.3140
   58CHL1  H27B 6771   2.528   2.379   8.535  0.4625  1.5507  0.5911
   58CHL1  H27C 6772   2.352   2.353   8.487  0.7801 -0.1364 -1.5114
   59CHL1    C3 6773   1.367   6.180  10.186 -0.2093  0.3739 -0.4874
   59CHL1    H3 6774   1.292   6.259  10.164  1.1236  1.4977 -1.1734
   59CHL1    O3 6775   1.392   6.174  10.330  0.3164  0.1898 -0.2809
   59CHL1   H3' 6776   1.317   6.128  10.368 -1.7449  2.5077 -1.2822
   59CHL1    C4 6777   1.320   6.038  10.150 -0.1249  0.3930  0.4657
   59CHL1   H4A 6778   1.398   5.961  10.164  1.2198  1.6580  0.1677
   59CHL1   H4B 6779   1.231   6.012  10.211  0.7563  0.7647  1.9592
   59CHL1    C5 6780   1.282   6.048  10.009  0.0891  0.2353  0.2985
   59CHL1    C6 6781   1.168   5.992   9.964 -0.2175  0.2519  0.3563
   59CHL1    H6 6782   1.101   5.954  10.043  1.4483  0.8033  2.0918
   59CHL1    C7 6783   1.132   5.977   9.823  0.5276 -0.1066 -0.9479
   59CHL1   H7A 6784   1.119   5.868   9.806 -0.0416 -0.0668 -0.7831
   59CHL1   H7B 6785   1.042   6.039   9.804 -0.8077 -1.1849  1.4470
   59CHL1    C8 6786   1.246   6.016   9.719  0.0033 -0.0321 -0.9161
   59CHL1    H8 6787   1.311   5.928   9.700  2.8180  1.7101 -0.0569
   59CHL1   C14 6788   1.176   6.070   9.598  0.3383 -0.8734  0.5956
   59CHL1   H14 6789   1.127   6.162   9.635 -1.5590 -0.8209 -1.8105
   59CHL1   C15 6790   1.058   5.993   9.543 -0.6907  0.3122  0.0817
   59CHL1  H15A 6791   1.087   5.886   9.534  2.1342  1.0151 -0.0568
   59CHL1  H15B 6792   0.971   5.998   9.613  0.7373 -0.5524  2.0002
   59CHL1   C16 6793   1.025   6.054   9.405 -0.1740  0.4260 -0.5826
   59CHL1  H16A 6794   1.027   5.971   9.331  1.2830 -2.2906  2.2163
   59CHL1  H16B 6795   0.931   6.112   9.398 -0.1087  0.8923  1.6767
   59CHL1   C17 6796   1.147   6.149   9.381 -0.3258  0.2112 -0.3447
   59CHL1   H17 6797   1.110   6.249   9.412 -0.6704 -0.2985  0.9701
   59CHL1   C13 6798   1.256   6.110   9.483 -0.1509  0.6357  0.4191
   59CHL1   C18 6799   1.332   5.983   9.429  0.5336 -0.4391 -0.1799
   59CHL1  H18A 6800   1.399   5.948   9.510 -1.0704 -2.3593  0.3722
   59CHL1  H18B 6801   1.262   5.900   9.408 -2.1980  1.4288  1.0365
   59CHL1  H18C 6802   1.399   6.006   9.343  0.1622  0.9076 -0.1409
   59CHL1   C12 6803   1.352   6.220   9.531  0.1271 -0.6771  0.7109
   59CHL1  H12A 6804   1.423   6.227   9.446 -0.3841  2.2909  0.4376
   59CHL1  H12B 6805   1.295   6.312   9.553 -0.7244 -1.3938  1.5726
   59CHL1   C11 6806   1.420   6.186   9.662  0.1028 -0.1048 -0.2821
   59CHL1  H11A 6807   1.494   6.105   9.643  0.0990  0.0032 -0.7514
   59CHL1  H11B 6808   1.476   6.275   9.700  0.5951 -0.3479 -0.4262
   59CHL1    C9 6809   1.328   6.133   9.776  0.1667 -0.3225  0.2613
   59CHL1    H9 6810   1.263   6.221   9.796 -1.1689 -1.2717  0.2817
   59CHL1   C10 6811   1.391   6.100   9.911 -0.0419  0.1349 -0.0478
   59CHL1   C19 6812   1.497   5.994   9.887  0.4099  0.2086 -0.1355
   59CHL1  H19A 6813   1.569   6.034   9.813  0.9460 -0.6157 -0.0603
   59CHL1  H19B 6814   1.545   5.970   9.985  1.7402  1.2649 -0.5009
   59CHL1  H19C 6815   1.459   5.899   9.844 -0.7012  0.3467  0.4910
   59CHL1    C1 6816   1.460   6.230   9.970 -0.1651  0.0289 -0.0956
   59CHL1   H1A 6817   1.552   6.254   9.911  0.1338 -0.3084  0.2309
   59CHL1   H1B 6818   1.383   6.308   9.949 -1.4736 -1.2549 -0.2245
   59CHL1    C2 6819   1.489   6.225  10.117  0.0198  0.1201  0.2590
   59CHL1   H2A 6820   1.524   6.327  10.145  0.3327  0.4543 -1.2363
   59CHL1   H2B 6821   1.565   6.147  10.139  0.4204  0.3666 -0.2153
   59CHL1   C20 6822   1.178   6.155   9.232  0.7071 -0.0594  0.0186
   59CHL1   H20 6823   1.226   6.063   9.192  2.1768 -0.3019  2.2052
   59CHL1   C21 6824   1.283   6.265   9.216 -0.0358  0.1364 -0.3393
   59CHL1  H21A 6825   1.295   6.295   9.110 -0.5264  1.5793 -0.0094
   59CHL1  H21B 6826   1.389   6.239   9.234  0.2683  1.4455 -0.1789
   59CHL1  H21C 6827   1.261   6.358   9.274 -2.2654  1.3303 -2.8677
   59CHL1   C22 6828   1.049   6.171   9.144 -0.2357  0.7597  0.2866
   59CHL1  H22A 6829   0.980   6.085   9.161  1.9059 -0.7139  2.0841
   59CHL1  H22B 6830   1.010   6.273   9.166 -2.4298  0.0633 -0.1296
   59CHL1   C23 6831   1.080   6.172   8.991  0.0617  0.8850  0.0445
   59CHL1  H23A 6832   1.138   6.261   8.959  1.1799 -0.9343 -3.4960
   59CHL1  H23B 6833   1.146   6.085   8.974  1.3835  2.0044 -0.8023
   59CHL1   C24 6834   0.953   6.158   8.911  0.5154 -0.0700  0.4914
   59CHL1  H24A 6835   0.885   6.083   8.958  1.9767 -1.1549  0.9769
   59CHL1  H24B 6836   0.902   6.256   8.899 -0.7411 -0.5964  1.2635
   59CHL1   C25 6837   0.992   6.128   8.765 -0.6546 -0.1628 -0.4095
   59CHL1   H25 6838   1.082   6.064   8.772 -0.4710  0.2478  2.1013
   59CHL1   C26 6839   0.883   6.061   8.687 -0.0225  0.1537  0.5909
   59CHL1  H26A 6840   0.861   5.968   8.742 -0.3255 -0.7336 -0.9675
   59CHL1  H26B 6841   0.789   6.120   8.692 -0.6494 -0.6699 -0.7866
   59CHL1  H26C 6842   0.910   6.025   8.585 -1.4882 -1.3723  0.7045
   59CHL1   C27 6843   1.037   6.255   8.675  0.6224  0.7715  0.6936
   59CHL1  H27A 6844   0.956   6.326   8.647  2.0953  2.3125  0.1522
   59CHL1  H27B 6845   1.115   6.312   8.730  1.1538  2.6730 -1.8373
   59CHL1  H27C 6846   1.072   6.209   8.580 -3.4179  2.1801 -1.7034
   60CHL1    C3 6847   2.379   6.096   9.986  0.4685  0.1721 -0.0643
   60CHL1    H3 6848   2.363   6.206   9.981  0.8084  0.2345  0.1774
   60CHL1    O3 6849   2.399   6.052  10.115  0.3532  0.0606 -0.2923
   60CHL1   H3' 6850   2.474   6.102  10.148 -1.4972  3.0868 -0.2954
   60CHL1    C4 6851   2.259   6.021   9.912 -0.1126 -0.0697 -0.1071
   60CHL1   H4A 6852   2.269   5.912   9.928 -1.1216 -0.0843  0.5145
   60CHL1   H4B 6853   2.170   6.060   9.964  0.1448  0.7654 -0.2744
   60CHL1    C5 6854   2.262   6.047   9.760 -0.5004 -0.5685 -0.4714
   60CHL1    C6 6855   2.156   6.095   9.694 -0.6766 -0.5670 -0.3386
   60CHL1    H6 6856   2.063   6.119   9.747  0.4200  0.8759  1.0273
   60CHL1    C7 6857   2.150   6.126   9.552  0.9481  0.0078  0.0639
   60CHL1   H7A 6858   2.058   6.084   9.506 -0.8133  1.9264  1.6623
   60CHL1   H7B 6859   2.148   6.232   9.519 -1.0249 -0.3420 -1.0642
   60CHL1    C8 6860   2.260   6.045   9.473 -0.8329 -0.0381 -0.0200
   60CHL1    H8 6861   2.219   5.943   9.487 -2.1343  0.7472  2.7212
   60CHL1   C14 6862   2.271   6.079   9.323  0.2526  0.1445 -0.9183
   60CHL1   H14 6863   2.296   6.187   9.325  2.0418 -0.2530 -0.5533
   60CHL1   C15 6864   2.139   6.055   9.235  0.9266  0.1264  0.1568
   60CHL1  H15A 6865   2.098   5.952   9.246  0.1372  0.2954 -1.0578
   60CHL1  H15B 6866   2.061   6.134   9.243 -0.7515 -1.3970 -0.4610
   60CHL1   C16 6867   2.196   6.076   9.095 -0.1307 -0.0079  0.0460
   60CHL1  H16A 6868   2.143   6.000   9.035 -0.5703 -0.9922  1.6344
   60CHL1  H16B 6869   2.172   6.182   9.072  2.7316  0.8509  0.6258
   60CHL1   C17 6870   2.352   6.055   9.100 -0.0333  0.6037  0.0585
   60CHL1   H17 6871   2.387   6.161   9.098 -2.2881  1.4388  0.8589
   60CHL1   C13 6872   2.379   6.008   9.254 -0.0468 -0.3304  0.5900
   60CHL1   C18 6873   2.359   5.856   9.262 -0.5679 -0.1806 -0.0971
   60CHL1  H18A 6874   2.254   5.827   9.241 -1.5913  1.8206  1.8735
   60CHL1  H18B 6875   2.414   5.790   9.191 -2.1592 -0.1216 -1.4468
   60CHL1  H18C 6876   2.402   5.813   9.354  1.8863  0.0989 -1.0283
   60CHL1   C12 6877   2.516   6.041   9.316  0.3710  0.1512  0.0731
   60CHL1  H12A 6878   2.607   5.999   9.268  1.4278  0.4923  1.7035
   60CHL1  H12B 6879   2.532   6.151   9.310 -1.6132  0.4510 -0.3711
   60CHL1   C11 6880   2.519   6.011   9.463 -0.0549 -0.5339  0.6283
   60CHL1  H11A 6881   2.536   5.903   9.485  1.3094 -0.5705 -0.4792
   60CHL1  H11B 6882   2.609   6.062   9.502  2.4103 -2.1429 -2.4946
   60CHL1    C9 6883   2.393   6.064   9.541 -0.1028  0.0217 -0.1783
   60CHL1    H9 6884   2.412   6.174   9.539  1.3806 -0.2127 -0.1420
   60CHL1   C10 6885   2.400   6.023   9.692 -0.8623  0.2598  0.3410
   60CHL1   C19 6886   2.427   5.868   9.697 -1.1183 -0.9306 -0.9930
   60CHL1  H19A 6887   2.352   5.801   9.650 -0.4249 -1.9858 -0.6424
   60CHL1  H19B 6888   2.524   5.834   9.655 -0.0977  0.8592 -0.1524
   60CHL1  H19C 6889   2.438   5.829   9.800 -0.3067  1.2099 -0.2132
   60CHL1    C1 6890   2.511   6.105   9.765 -0.6743  0.7683 -0.1703
   60CHL1   H1A 6891   2.611   6.078   9.724 -0.9666 -0.7282  0.0734
   60CHL1   H1B 6892   2.486   6.212   9.745  3.6030  2.5756  2.7107
   60CHL1    C2 6893   2.510   6.086   9.918  0.0227 -0.2300 -0.3427
   60CHL1   H2A 6894   2.590   6.149   9.960  0.5263 -1.2768  0.3269
   60CHL1   H2B 6895   2.542   5.981   9.936 -2.1261 -1.1112 -1.2576
   60CHL1   C20 6896   2.417   5.971   8.979 -0.6060 -0.4268 -0.4219
   60CHL1   H20 6897   2.380   5.867   8.991 -0.9810 -0.2442  0.0030
   60CHL1   C21 6898   2.573   5.953   8.984  0.0797 -0.0846 -0.0831
   60CHL1  H21A 6899   2.599   5.890   9.072 -1.3429  0.7832  0.9980
   60CHL1  H21B 6900   2.631   6.047   8.990  0.2715 -0.0197 -2.2034
   60CHL1  H21C 6901   2.608   5.896   8.895  5.3938 -0.6361  1.9897
   60CHL1   C22 6902   2.369   6.018   8.839  0.4438  0.2471 -0.5081
   60CHL1  H22A 6903   2.419   5.956   8.762  1.4471 -1.2019  1.2380
   60CHL1  H22B 6904   2.260   5.997   8.830  0.5174  0.3338 -1.7012
   60CHL1   C23 6905   2.406   6.160   8.818  0.1093 -0.1394  0.4534
   60CHL1  H23A 6906   2.350   6.225   8.888  0.9898  2.4892 -1.1474
   60CHL1  H23B 6907   2.514   6.168   8.842 -0.1834 -0.0046  1.7953
   60CHL1   C24 6908   2.374   6.205   8.669 -0.3138 -0.2391 -0.1536
   60CHL1  H24A 6909   2.428   6.146   8.592 -3.6059 -1.4942 -1.6872
   60CHL1  H24B 6910   2.265   6.193   8.649 -0.5993 -4.2668  2.5573
   60CHL1   C25 6911   2.409   6.358   8.649 -0.2934  0.5870  0.4113
   60CHL1   H25 6912   2.516   6.364   8.677 -0.1292 -1.0095  0.2031
   60CHL1   C26 6913   2.402   6.388   8.495 -0.0419  0.8292  0.2580
   60CHL1  H26A 6914   2.444   6.488   8.470  0.0883  0.3660 -1.5050
   60CHL1  H26B 6915   2.432   6.307   8.426 -4.2162 -0.5905 -0.1916
   60CHL1  H26C 6916   2.292   6.385   8.476  0.4078  0.3638 -2.6349
   60CHL1   C27 6917   2.322   6.453   8.736  0.4493 -0.1065 -0.4696
   60CHL1  H27A 6918   2.358   6.556   8.717 -0.1972  0.6105  1.8723
   60CHL1  H27B 6919   2.213   6.455   8.713  0.5947  3.5586 -1.3645
   60CHL1  H27C 6920   2.329   6.427   8.844 -1.5454  1.2165  0.0307
   61CHL1    C3 6921   4.583   5.739  10.253 -0.2260  0.2666 -0.0449
   61CHL1    H3 6922   4.498   5.795  10.298  1.0631 -1.4741  5.3430
   61CHL1    O3 6923   4.614   5.648  10.356 -0.4398 -0.2190 -0.3805
   61CHL1   H3' 6924   4.685   5.682  10.411  0.8807 -1.3329 -1.3151
   61CHL1    C4 6925   4.535   5.650  10.134 -0.1603 -0.4270  0.2533
   61CHL1   H4A 6926   4.614   5.573  10.125  0.3800 -0.1481  2.2489
   61CHL1   H4B 6927   4.444   5.589  10.148  1.9510 -4.4774 -1.8790
   61CHL1    C5 6928   4.520   5.729  10.007 -0.3370  0.2390  0.1308
   61CHL1    C6 6929   4.403   5.730   9.941  0.0406 -0.3662 -0.2588
   61CHL1    H6 6930   4.317   5.687   9.995  0.5534  0.4888  1.3137
   61CHL1    C7 6931   4.384   5.782   9.802  0.4032  0.7177 -0.2341
   61CHL1   H7A 6932   4.330   5.719   9.729  2.1116 -1.0748 -0.0384
   61CHL1   H7B 6933   4.321   5.873   9.806 -1.6591 -0.5503 -1.6415
   61CHL1    C8 6934   4.519   5.818   9.747  0.6219 -0.6811  0.5858
   61CHL1    H8 6935   4.574   5.723   9.728  1.5125 -0.1019  0.2069
   61CHL1   C14 6936   4.491   5.894   9.619  0.4704  0.1771  0.4369
   61CHL1   H14 6937   4.439   5.987   9.652 -3.1231 -1.8472  1.0576
   61CHL1   C15 6938   4.385   5.835   9.521  0.2747  0.3825 -0.2467
   61CHL1  H15A 6939   4.386   5.726   9.500 -0.4854  0.4439 -0.6212
   61CHL1  H15B 6940   4.285   5.862   9.559  0.6000  1.1772  0.0617
   61CHL1   C16 6941   4.412   5.919   9.394  0.1890  0.7881  0.1706
   61CHL1  H16A 6942   4.426   5.845   9.313  0.9965  0.0403  0.9727
   61CHL1  H16B 6943   4.330   5.988   9.364  0.2510  0.0899 -1.7393
   61CHL1   C17 6944   4.533   6.013   9.424  0.2767  0.7140  0.8255
   61CHL1   H17 6945   4.493   6.109   9.463 -2.2415  0.3718 -0.6633
   61CHL1   C13 6946   4.613   5.948   9.542  0.2036  0.8646  0.4262
   61CHL1   C18 6947   4.697   5.825   9.481  0.2065 -0.3596  0.6353
   61CHL1  H18A 6948   4.643   5.786   9.392  0.8985 -1.0596  0.5066
   61CHL1  H18B 6949   4.799   5.862   9.455  0.6361 -2.3219 -0.6881
   61CHL1  H18C 6950   4.712   5.747   9.559  0.1128 -0.0175  0.9969
   61CHL1   C12 6951   4.695   6.031   9.638 -0.0760  0.5224  0.4670
   61CHL1  H12A 6952   4.788   6.071   9.591 -1.6774  2.1438 -1.5099
   61CHL1  H12B 6953   4.640   6.125   9.659 -1.5142  0.4597 -2.5101
   61CHL1   C11 6954   4.726   5.958   9.770 -0.6738  0.4594 -0.1119
   61CHL1  H11A 6955   4.783   5.869   9.735 -1.8008 -0.0945 -0.5880
   61CHL1  H11B 6956   4.792   6.020   9.835  0.8897 -0.4506 -0.7673
   61CHL1    C9 6957   4.602   5.900   9.847 -0.8206  1.1011 -0.2771
   61CHL1    H9 6958   4.539   5.985   9.882 -3.3680 -0.5082 -0.6447
   61CHL1   C10 6959   4.642   5.812   9.965 -0.1033  0.3948 -0.3317
   61CHL1   C19 6960   4.756   5.711   9.932  0.1354 -0.4896  0.4281
   61CHL1  H19A 6961   4.742   5.653   9.838 -1.1755  0.7355 -0.1645
   61CHL1  H19B 6962   4.849   5.767   9.913 -1.1642  1.5784 -0.1425
   61CHL1  H19C 6963   4.774   5.640  10.016 -0.7550 -0.9967  0.2080
   61CHL1    C1 6964   4.676   5.897  10.088 -0.1972  0.0818  0.4298
   61CHL1   H1A 6965   4.769   5.953  10.066  0.8967 -1.5706  0.7364
   61CHL1   H1B 6966   4.599   5.977  10.101  1.3504  1.6677  0.1584
   61CHL1    C2 6967   4.705   5.814  10.214  1.2753 -0.1987 -0.5123
   61CHL1   H2A 6968   4.727   5.876  10.302 -1.1561  0.0566 -0.0287
   61CHL1   H2B 6969   4.793   5.749  10.190  0.8065 -0.7518 -0.7544
   61CHL1   C20 6970   4.623   6.053   9.302 -0.1562  0.1609  0.3711
   61CHL1   H20 6971   4.668   5.963   9.256 -0.7334  0.9103 -1.7825
   61CHL1   C21 6972   4.734   6.152   9.353  0.1914 -1.0652  0.3252
   61CHL1  H21A 6973   4.823   6.094   9.385  1.4613 -0.0527 -1.2056
   61CHL1  H21B 6974   4.690   6.219   9.429  2.7446 -0.5527  1.4759
   61CHL1  H21C 6975   4.771   6.220   9.273 -2.7619  0.8593  0.4306
   61CHL1   C22 6976   4.532   6.120   9.199 -0.1906 -0.2482 -0.4136
   61CHL1  H22A 6977   4.426   6.088   9.189  0.0071 -1.2997  0.6240
   61CHL1  H22B 6978   4.517   6.224   9.234 -0.6113 -0.5081  0.1784
   61CHL1   C23 6979   4.596   6.121   9.057 -0.7574 -0.4843 -0.0504
   61CHL1  H23A 6980   4.707   6.127   9.067 -0.5132 -2.8960 -0.6701
   61CHL1  H23B 6981   4.591   6.022   9.007  0.9940 -0.3042 -0.6674
   61CHL1   C24 6982   4.523   6.227   8.977 -0.0684 -0.4904  0.8519
   61CHL1  H24A 6983   4.421   6.190   8.954 -0.0576  0.7580 -1.5733
   61CHL1  H24B 6984   4.510   6.324   9.031  0.3301 -0.0806  0.2163
   61CHL1   C25 6985   4.589   6.256   8.846 -0.1146  0.1813 -0.5452
   61CHL1   H25 6986   4.637   6.170   8.794 -0.7638 -2.0383  2.3019
   61CHL1   C26 6987   4.487   6.329   8.761 -0.0415 -0.2550  0.2048
   61CHL1  H26A 6988   4.533   6.361   8.665  1.3589 -0.6391  0.7097
   61CHL1  H26B 6989   4.402   6.260   8.742  1.1867 -1.5329 -0.8918
   61CHL1  H26C 6990   4.445   6.422   8.805  1.2664 -0.1043  1.1997
   61CHL1   C27 6991   4.707   6.353   8.861  0.5363  0.4953  0.1717
   61CHL1  H27A 6992   4.755   6.385   8.766 -0.4671  1.1566 -0.1254
   61CHL1  H27B 6993   4.681   6.448   8.912  1.6174  0.4764  0.8000
   61CHL1  H27C 6994   4.782   6.302   8.925  0.0776  0.4657  0.6956
   62CHL1    C3 6995   0.079   4.985  10.062  0.7236  0.3253  0.2834
   62CHL1    H3 6996   0.179   5.034  10.068  0.1469  2.1681 -2.9265
   62CHL1    O3 6997   0.031   4.947  10.186  0.0244  0.3456 -0.0955
   62CHL1   H3' 6998  -0.059   4.915  10.177  0.5440 -1.4663  0.6233
   62CHL1    C4 6999  -0.027   5.079  10.004  0.3478  0.1859 -0.1869
   62CHL1   H4A 7000  -0.132   5.044  10.017  0.5300  0.2815  1.8493
   62CHL1   H4B 7001  -0.025   5.169  10.070 -3.0767  1.4688 -1.6043
   62CHL1    C5 7002  -0.010   5.098   9.851  0.2258 -0.3151 -0.8526
   62CHL1    C6 7003   0.015   5.221   9.795  0.4404 -0.2665  0.1827
   62CHL1    H6 7004   0.003   5.314   9.852 -0.9925  1.7008 -3.0681
   62CHL1    C7 7005   0.014   5.247   9.646 -0.1159  0.1944  1.0507
   62CHL1   H7A 7006  -0.061   5.323   9.615 -0.1973 -0.2836  0.0613
   62CHL1   H7B 7007   0.111   5.294   9.617  0.0878 -1.3387 -0.9176
   62CHL1    C8 7008  -0.016   5.120   9.562 -0.1559  0.6931 -0.1486
   62CHL1    H8 7009  -0.124   5.093   9.569  0.8013 -3.5045  1.4533
   62CHL1   C14 7010   0.016   5.139   9.419 -0.8077  0.4993  1.2584
   62CHL1   H14 7011   0.125   5.159   9.410 -1.0256  0.9349 -1.0239
   62CHL1   C15 7012  -0.047   5.255   9.351  0.6552  0.1588 -0.2802
   62CHL1  H15A 7013  -0.156   5.254   9.372  0.5435  0.0702 -0.8331
   62CHL1  H15B 7014  -0.008   5.350   9.392  5.2174 -1.6880  0.2849
   62CHL1   C16 7015  -0.016   5.231   9.200  0.1585  0.6038 -0.1635
   62CHL1  H16A 7016  -0.107   5.253   9.142 -0.8760  2.3305  1.9891
   62CHL1  H16B 7017   0.055   5.307   9.161  0.7304  0.9735  1.5382
   62CHL1   C17 7018   0.035   5.088   9.182  0.1870  0.2439 -0.1879
   62CHL1   H17 7019   0.146   5.084   9.183  0.2810  1.0481 -2.1349
   62CHL1   C13 7020  -0.009   5.018   9.316  0.6239 -0.1636  0.0955
   62CHL1   C18 7021  -0.162   4.985   9.312  0.0976 -0.1752 -0.1497
   62CHL1  H18A 7022  -0.190   4.894   9.255  1.5661 -0.9774  0.3426
   62CHL1  H18B 7023  -0.195   4.960   9.415  2.2419 -0.2520  0.5761
   62CHL1  H18C 7024  -0.220   5.072   9.275  0.3126 -0.0208 -0.1283
   62CHL1   C12 7025   0.068   4.901   9.371 -0.5053  0.9987 -0.4546
   62CHL1  H12A 7026   0.065   4.806   9.314 -1.8301  0.7194  0.0460
   62CHL1  H12B 7027   0.176   4.927   9.366  0.7468 -3.3020  0.5033
   62CHL1   C11 7028   0.034   4.870   9.518 -0.1258 -0.0820 -0.5916
   62CHL1  H11A 7029  -0.062   4.815   9.509 -0.3337  0.0835  0.5295
   62CHL1  H11B 7030   0.101   4.786   9.548  0.5383  0.2582 -1.0987
   62CHL1    C9 7031   0.046   4.993   9.616 -0.2881  0.0185 -0.5999
   62CHL1    H9 7032   0.153   5.023   9.611 -0.5451  0.9004 -1.1128
   62CHL1   C10 7033   0.006   4.969   9.768  0.1145  0.3907  0.0734
   62CHL1   C19 7034  -0.131   4.889   9.773 -0.0636 -0.3759  0.1299
   62CHL1  H19A 7035  -0.206   4.950   9.718  0.0269 -0.8432 -0.5185
   62CHL1  H19B 7036  -0.127   4.789   9.724 -1.3669 -0.4067  0.0520
   62CHL1  H19C 7037  -0.174   4.871   9.874  1.5395  0.0023  0.9149
   62CHL1    C1 7038   0.106   4.875   9.836 -0.5647 -0.6502 -0.9004
   62CHL1   H1A 7039   0.122   4.785   9.773  0.3565 -0.8999 -0.3297
   62CHL1   H1B 7040   0.197   4.939   9.836 -1.2153  0.3428  0.9476
   62CHL1    C2 7041   0.075   4.855   9.985 -0.4027 -0.2993  1.1931
   62CHL1   H2A 7042   0.154   4.790  10.030  2.5783  2.1626 -0.0871
   62CHL1   H2B 7043  -0.024   4.806   9.993 -0.7153 -0.7187 -2.9998
   62CHL1   C20 7044  -0.006   5.016   9.057  0.4071 -0.8286  0.2838
   62CHL1   H20 7045  -0.117   5.013   9.057  0.3016  1.4415 -0.1530
   62CHL1   C21 7046   0.048   4.872   9.051 -0.6256 -0.3417 -0.1194
   62CHL1  H21A 7047  -0.028   4.814   9.108 -1.8267  1.5167  0.2584
   62CHL1  H21B 7048   0.146   4.862   9.103 -0.6327 -0.8076 -0.1918
   62CHL1  H21C 7049   0.058   4.835   8.947  2.0025  0.9044 -0.3930
   62CHL1   C22 7050   0.013   5.102   8.926 -0.2494  0.1267 -0.1684
   62CHL1  H22A 7051  -0.051   5.053   8.850  1.0028 -0.4041 -0.9273
   62CHL1  H22B 7052  -0.029   5.205   8.930 -0.1587  0.2100 -1.0498
   62CHL1   C23 7053   0.155   5.118   8.869 -1.1549 -0.0661 -0.0562
   62CHL1  H23A 7054   0.193   5.204   8.928 -1.9582 -0.7664  1.5429
   62CHL1  H23B 7055   0.224   5.033   8.887 -0.0545  1.1292  1.6760
   62CHL1   C24 7056   0.155   5.144   8.713  0.0906  0.3268 -0.0987
   62CHL1  H24A 7057   0.113   5.049   8.674 -2.8781  1.7190 -0.6220
   62CHL1  H24B 7058   0.080   5.222   8.688  1.8819  2.2745  0.3755
   62CHL1   C25 7059   0.292   5.180   8.647 -0.3070  0.5432 -0.3656
   62CHL1   H25 7060   0.341   5.263   8.703 -0.4990  1.1260 -1.0434
   62CHL1   C26 7061   0.367   5.051   8.652 -0.4550 -0.5264 -0.4944
   62CHL1  H26A 7062   0.457   5.065   8.588  0.5606  0.1267  1.0155
   62CHL1  H26B 7063   0.402   5.032   8.756  1.1573 -1.4009 -1.1609
   62CHL1  H26C 7064   0.303   4.968   8.616 -2.0177  0.6664 -0.5727
   62CHL1   C27 7065   0.275   5.213   8.497 -0.1294  1.3739  0.2529
   62CHL1  H27A 7066   0.214   5.305   8.481 -2.3144 -0.1772 -0.9064
   62CHL1  H27B 7067   0.375   5.217   8.450  0.2557 -1.2977  0.7021
   62CHL1  H27C 7068   0.208   5.137   8.452  0.6882  1.4879 -1.1988
   63CHL1    C3 7069   0.605   3.392  10.099  0.2047 -0.1551  0.3032
   63CHL1    H3 7070   0.500   3.421  10.080 -0.3317 -1.0793  1.6821
   63CHL1    O3 7071   0.606   3.343  10.236  0.1794  0.5882 -0.6144
   63CHL1   H3' 7072   0.698   3.340  10.265  0.2601 -1.1806 -0.9156
   63CHL1    C4 7073   0.646   3.290   9.988  0.0784  0.5768  0.5850
   63CHL1   H4A 7074   0.742   3.237  10.005 -0.7849 -1.4841 -0.6267
   63CHL1   H4B 7075   0.580   3.201   9.996 -1.6190  1.5768 -1.3070
   63CHL1    C5 7076   0.645   3.342   9.847 -0.0802 -0.2778 -0.0725
   63CHL1    C6 7077   0.576   3.290   9.743 -0.0689  0.2315  0.0316
   63CHL1    H6 7078   0.512   3.202   9.753  1.0147 -0.4400  1.4644
   63CHL1    C7 7079   0.587   3.339   9.604  0.8447 -0.4977 -0.1590
   63CHL1   H7A 7080   0.588   3.250   9.537  1.7215  0.3322 -1.3094
   63CHL1   H7B 7081   0.500   3.400   9.571  1.9990  0.3663 -1.7768
   63CHL1    C8 7082   0.708   3.429   9.573 -0.5210 -0.1427 -0.6562
   63CHL1    H8 7083   0.797   3.364   9.578 -1.9300 -2.0591  2.7902
   63CHL1   C14 7084   0.698   3.506   9.438  0.3623  0.6449 -0.2873
   63CHL1   H14 7085   0.602   3.561   9.447  0.2504  0.7452 -1.7205
   63CHL1   C15 7086   0.682   3.413   9.308 -0.0398  0.1019  0.5160
   63CHL1  H15A 7087   0.732   3.314   9.315 -0.7730 -0.3481 -0.4232
   63CHL1  H15B 7088   0.574   3.391   9.298 -0.3390  1.3817  0.7185
   63CHL1   C16 7089   0.733   3.503   9.188 -0.0350  0.0347 -0.5721
   63CHL1  H16A 7090   0.822   3.453   9.145 -1.5751 -1.4639 -2.2179
   63CHL1  H16B 7091   0.655   3.528   9.113 -0.5278 -4.5404 -1.8986
   63CHL1   C17 7092   0.770   3.635   9.256  0.0752  0.4590 -0.4349
   63CHL1   H17 7093   0.676   3.694   9.253 -0.3818 -0.2916 -1.4999
   63CHL1   C13 7094   0.811   3.601   9.401 -0.0233 -0.5141  0.6228
   63CHL1   C18 7095   0.938   3.516   9.395 -0.0494  0.3109  0.2231
   63CHL1  H18A 7096   0.960   3.439   9.319  1.8868  1.6931 -0.7057
   63CHL1  H18B 7097   1.027   3.582   9.394  1.3248 -1.4435  1.4906
   63CHL1  H18C 7098   0.940   3.471   9.497 -1.4461  2.1234  1.1186
   63CHL1   C12 7099   0.819   3.713   9.510  0.3067 -0.1000 -0.9619
   63CHL1  H12A 7100   0.910   3.776   9.504  1.1501 -1.2428 -0.6406
   63CHL1  H12B 7101   0.721   3.763   9.510  0.3040 -0.0813  0.6280
   63CHL1   C11 7102   0.825   3.648   9.650 -0.0154 -0.5296 -0.2021
   63CHL1  H11A 7103   0.928   3.608   9.662  0.9409  2.2097  1.7141
   63CHL1  H11B 7104   0.813   3.734   9.719 -1.8364 -0.4170 -0.5960
   63CHL1    C9 7105   0.720   3.537   9.684  0.5948 -0.2427 -0.5304
   63CHL1    H9 7106   0.626   3.596   9.681  0.2875 -0.7574 -1.3591
   63CHL1   C10 7107   0.737   3.469   9.822 -0.0010  0.4849 -0.5546
   63CHL1   C19 7108   0.877   3.430   9.853  0.0250 -0.9407  0.2568
   63CHL1  H19A 7109   0.939   3.522   9.844  0.1109 -1.0174  0.0289
   63CHL1  H19B 7110   0.897   3.391   9.955  2.5252  0.0312  0.2186
   63CHL1  H19C 7111   0.923   3.359   9.781  1.0858 -1.9276  1.8410
   63CHL1    C1 7112   0.688   3.570   9.935 -0.2090 -0.1327 -0.2431
   63CHL1   H1A 7113   0.751   3.660   9.925 -2.5945  2.0921  2.7298
   63CHL1   H1B 7114   0.588   3.602   9.899 -0.6540  0.4260  1.4224
   63CHL1    C2 7115   0.686   3.523  10.082  0.1541  0.3100 -0.1822
   63CHL1   H2A 7116   0.632   3.588  10.153  0.8916 -1.5508  2.2054
   63CHL1   H2B 7117   0.791   3.509  10.114  0.0179 -0.6557 -0.1306
   63CHL1   C20 7118   0.866   3.729   9.174  0.7076 -0.6484 -0.0970
   63CHL1   H20 7119   0.969   3.695   9.198  1.0469  2.1016  3.0358
   63CHL1   C21 7120   0.852   3.874   9.216 -0.1391  0.1376  0.5449
   63CHL1  H21A 7121   0.931   3.935   9.166 -0.7554  0.4682 -0.0343
   63CHL1  H21B 7122   0.852   3.897   9.325 -1.4830 -1.5669  0.9423
   63CHL1  H21C 7123   0.765   3.923   9.167  0.3373  1.9512  1.4111
   63CHL1   C22 7124   0.844   3.715   9.020 -0.5776  0.2185 -0.1944
   63CHL1  H22A 7125   0.876   3.612   8.996  1.9855  0.4691  1.7495
   63CHL1  H22B 7126   0.734   3.724   9.005 -0.5898 -0.3004 -0.4253
   63CHL1   C23 7127   0.929   3.813   8.934 -0.1872 -0.7169  0.7523
   63CHL1  H23A 7128   0.901   3.919   8.950 -0.9579 -0.7827 -0.0483
   63CHL1  H23B 7129   1.040   3.810   8.943  0.2246  1.6313 -1.9647
   63CHL1   C24 7130   0.899   3.782   8.783 -0.4309 -0.0465 -0.5894
   63CHL1  H24A 7131   0.931   3.679   8.759 -0.5251  0.1841 -1.7875
   63CHL1  H24B 7132   0.791   3.800   8.767 -0.1915  2.7509  0.3416
   63CHL1   C25 7133   0.965   3.880   8.686 -0.1304 -0.5133  0.2448
   63CHL1   H25 7134   0.942   3.986   8.712  0.1897 -0.4721  0.3632
   63CHL1   C26 7135   1.120   3.868   8.689  0.2256  0.4702  0.1674
   63CHL1  H26A 7136   1.163   3.930   8.607  0.7429 -0.5532 -0.3594
   63CHL1  H26B 7137   1.158   3.918   8.781 -0.3092  3.8334 -1.3120
   63CHL1  H26C 7138   1.149   3.761   8.679 -0.8892  0.1596  0.2197
   63CHL1   C27 7139   0.913   3.869   8.540  0.6218 -0.0458 -0.8198
   63CHL1  H27A 7140   0.948   3.780   8.484 -1.1908 -1.2907 -0.0403
   63CHL1  H27B 7141   0.803   3.854   8.545  0.8608 -1.6496  2.6692
   63CHL1  H27C 7142   0.940   3.964   8.488  0.1280  0.7406  0.3103
   64CHL1    C3 7143   0.572   4.601   9.872 -0.3107 -0.1128 -0.0891
   64CHL1    H3 7144   0.680   4.622   9.862  0.6760 -3.5929  1.5307
   64CHL1    O3 7145   0.543   4.580  10.010  0.1892  0.3685  0.0151
   64CHL1   H3' 7146   0.586   4.658  10.045  0.0883  1.7426 -2.6664
   64CHL1    C4 7147   0.501   4.724   9.817  0.6543 -0.7183  0.2426
   64CHL1   H4A 7148   0.395   4.718   9.851  1.5803 -1.7754  3.2640
   64CHL1   H4B 7149   0.535   4.813   9.873 -0.9533  0.1810 -0.1440
   64CHL1    C5 7150   0.497   4.739   9.666  0.2439 -0.4033 -0.2575
   64CHL1    C6 7151   0.519   4.861   9.618 -0.1408 -0.3945  0.3508
   64CHL1    H6 7152   0.534   4.948   9.683 -0.9865 -0.4953  0.6828
   64CHL1    C7 7153   0.535   4.897   9.470  0.6205 -0.3936  0.6119
   64CHL1   H7A 7154   0.473   4.979   9.429 -1.3940 -0.9593  2.3744
   64CHL1   H7B 7155   0.641   4.918   9.443  0.1938  1.7634  0.4465
   64CHL1    C8 7156   0.472   4.773   9.387  0.2247 -0.1402  0.6842
   64CHL1    H8 7157   0.363   4.768   9.404 -0.1771  0.2077 -1.4789
   64CHL1   C14 7158   0.510   4.795   9.231 -0.2006  0.3460  0.9229
   64CHL1   H14 7159   0.620   4.812   9.230 -0.2472  1.1484 -2.8851
   64CHL1   C15 7160   0.454   4.914   9.156  0.1516  0.0902  0.0519
   64CHL1  H15A 7161   0.351   4.933   9.194 -0.7424 -0.3854 -2.0317
   64CHL1  H15B 7162   0.525   4.992   9.191 -1.1343  1.0660  0.5699
   64CHL1   C16 7163   0.467   4.880   9.011  0.1894  0.2298 -0.4125
   64CHL1  H16A 7164   0.366   4.887   8.965  0.9164 -1.9676 -2.5798
   64CHL1  H16B 7165   0.540   4.955   8.973  2.3140 -1.1066  0.8115
   64CHL1   C17 7166   0.534   4.740   9.009  0.0689  0.1899  0.2199
   64CHL1   H17 7167   0.642   4.752   9.029  0.2692 -0.3628 -0.5266
   64CHL1   C13 7168   0.487   4.675   9.143  0.6744 -0.3431 -0.3545
   64CHL1   C18 7169   0.338   4.634   9.138  0.4887 -0.2740 -0.2428
   64CHL1  H18A 7170   0.294   4.625   9.240  1.1596 -2.4473 -0.1093
   64CHL1  H18B 7171   0.277   4.711   9.086 -3.3649 -2.7845  0.1644
   64CHL1  H18C 7172   0.317   4.540   9.083 -1.1979 -0.7846  1.1610
   64CHL1   C12 7173   0.570   4.558   9.199  0.4638  0.4418 -0.7053
   64CHL1  H12A 7174   0.562   4.466   9.137 -2.7890 -0.1283  0.3279
   64CHL1  H12B 7175   0.675   4.591   9.202  0.0282  1.9237 -1.1353
   64CHL1   C11 7176   0.534   4.515   9.344  0.0269 -1.2299 -0.1649
   64CHL1  H11A 7177   0.428   4.479   9.342 -0.6423  0.6309 -0.2848
   64CHL1  H11B 7178   0.613   4.445   9.378  1.4414 -0.0534 -0.9535
   64CHL1    C9 7179   0.535   4.644   9.435 -0.1569 -0.3405 -0.1625
   64CHL1    H9 7180   0.646   4.656   9.436  0.0398 -1.6647 -1.4623
   64CHL1   C10 7181   0.487   4.611   9.577  0.6555 -0.4695  0.8899
   64CHL1   C19 7182   0.335   4.556   9.568  0.1299 -0.7962  0.0445
   64CHL1  H19A 7183   0.298   4.542   9.672 -1.5465  0.6889 -0.3137
   64CHL1  H19B 7184   0.274   4.624   9.505  0.6622 -0.8526 -0.5423
   64CHL1  H19C 7185   0.325   4.455   9.523 -2.1198 -0.1759 -0.9701
   64CHL1    C1 7186   0.562   4.502   9.645  0.3145  0.5493 -0.9632
   64CHL1   H1A 7187   0.539   4.408   9.589 -0.0787 -0.1210  0.2850
   64CHL1   H1B 7188   0.672   4.517   9.641  0.4445  1.0949  2.0611
   64CHL1    C2 7189   0.522   4.478   9.792  1.0925  0.4143 -0.1563
   64CHL1   H2A 7190   0.579   4.395   9.839  0.2137  1.9550  4.1651
   64CHL1   H2B 7191   0.417   4.465   9.826  1.9505  1.6684  3.4003
   64CHL1   C20 7192   0.530   4.650   8.887 -0.2036 -0.3483 -0.0472
   64CHL1   H20 7193   0.565   4.549   8.916 -0.9465 -1.0188 -1.3372
   64CHL1   C21 7194   0.637   4.709   8.785 -0.1469 -0.1386  0.3703
   64CHL1  H21A 7195   0.738   4.725   8.829 -0.0167  2.4051 -0.6737
   64CHL1  H21B 7196   0.601   4.807   8.746  1.0110  0.0530 -0.2707
   64CHL1  H21C 7197   0.645   4.648   8.693 -2.2301  0.5343 -0.2981
   64CHL1   C22 7198   0.390   4.632   8.817 -0.3746  0.5053  0.8288
   64CHL1  H22A 7199   0.311   4.655   8.891  0.3605  2.8767  0.9331
   64CHL1  H22B 7200   0.378   4.699   8.729 -1.2356 -1.9083 -1.0292
   64CHL1   C23 7201   0.373   4.493   8.748 -0.6972  0.1015 -0.2139
   64CHL1  H23A 7202   0.442   4.475   8.663 -2.2468  1.9344 -1.9900
   64CHL1  H23B 7203   0.390   4.418   8.827  2.0363 -0.2436 -1.0321
   64CHL1   C24 7204   0.236   4.479   8.681 -0.6231 -0.7806  0.2952
   64CHL1  H24A 7205   0.164   4.515   8.758 -0.9826  1.6148 -1.0504
   64CHL1  H24B 7206   0.231   4.554   8.599  1.0473 -1.0041 -0.0477
   64CHL1   C25 7207   0.208   4.343   8.614  0.5137 -0.2771  0.3738
   64CHL1   H25 7208   0.307   4.308   8.575 -0.4567 -1.8866 -0.7733
   64CHL1   C26 7209   0.151   4.245   8.723 -0.0849  0.6790  0.4968
   64CHL1  H26A 7210   0.065   4.293   8.775  0.1255  2.2388 -0.5228
   64CHL1  H26B 7211   0.114   4.154   8.672  2.5421 -0.8093  1.0496
   64CHL1  H26C 7212   0.229   4.206   8.793  1.2313 -0.3165 -1.4344
   64CHL1   C27 7213   0.105   4.354   8.503 -0.5348 -0.1478 -0.3436
   64CHL1  H27A 7214   0.014   4.408   8.538 -0.3055  0.6739 -0.9874
   64CHL1  H27B 7215   0.153   4.414   8.423 -0.3048  0.0756 -0.0424
   64CHL1  H27C 7216   0.084   4.256   8.456 -0.0719  0.2672 -1.4374
   65CHL1    C3 7217   2.082   1.944  10.201  0.3202  0.0026  0.1797
   65CHL1    H3 7218   2.146   2.032  10.179 -0.5462  0.5547 -0.1453
   65CHL1    O3 7219   2.084   1.923  10.342  0.3379  0.6289 -0.0546
   65CHL1   H3' 7220   2.013   1.861  10.361  0.4061  0.5942  0.0854
   65CHL1    C4 7221   1.943   1.971  10.161 -0.5786  0.1268 -0.2095
   65CHL1   H4A 7222   1.883   1.893  10.211 -0.1781  0.4995  0.8816
   65CHL1   H4B 7223   1.919   2.067  10.212  1.3510  1.0472 -0.9073
   65CHL1    C5 7224   1.937   1.981  10.007 -0.5548  0.3949  0.0312
   65CHL1    C6 7225   1.877   2.085   9.954 -0.1835  0.0256  0.7244
   65CHL1    H6 7226   1.831   2.163  10.016 -1.2009 -0.5565  0.7217
   65CHL1    C7 7227   1.861   2.094   9.805 -0.1456 -0.2799  0.0026
   65CHL1   H7A 7228   1.761   2.137   9.778  0.7343  1.9006 -0.0045
   65CHL1   H7B 7229   1.942   2.158   9.764 -0.4584 -1.1951 -2.1565
   65CHL1    C8 7230   1.878   1.965   9.725 -0.9565  0.1833 -0.5195
   65CHL1    H8 7231   1.781   1.914   9.741 -0.1383 -1.0126  0.7755
   65CHL1   C14 7232   1.899   1.995   9.577 -0.3740 -0.2059  1.0305
   65CHL1   H14 7233   1.998   2.044   9.576  0.2604 -1.4327 -0.8180
   65CHL1   C15 7234   1.801   2.097   9.506 -0.1243  0.6199  0.2803
   65CHL1  H15A 7235   1.701   2.070   9.545  0.7458 -3.1015  0.3261
   65CHL1  H15B 7236   1.830   2.201   9.530 -1.0840  1.2718 -1.1891
   65CHL1   C16 7237   1.825   2.080   9.351  0.2678 -0.4603 -0.1624
   65CHL1  H16A 7238   1.728   2.055   9.302  0.3496  0.3742 -0.7713
   65CHL1  H16B 7239   1.874   2.166   9.300  3.6851 -1.4986  1.1124
   65CHL1   C17 7240   1.922   1.951   9.345  0.4707  0.4124 -0.4504
   65CHL1   H17 7241   2.028   1.983   9.332  0.7827  0.0243  0.9856
   65CHL1   C13 7242   1.908   1.874   9.483  0.6900 -0.9216 -0.8044
   65CHL1   C18 7243   1.770   1.801   9.491 -0.0426  0.2671 -0.0319
   65CHL1  H18A 7244   1.691   1.872   9.459 -1.1131 -0.2787  1.2960
   65CHL1  H18B 7245   1.780   1.708   9.431  0.1568 -0.2147  0.7314
   65CHL1  H18C 7246   1.768   1.764   9.596  2.6891  2.9487  1.1052
   65CHL1   C12 7247   2.033   1.791   9.530 -0.3562 -0.3282 -0.1233
   65CHL1  H12A 7248   2.042   1.694   9.477  0.4965  1.0132 -2.6307
   65CHL1  H12B 7249   2.120   1.857   9.507  0.2419 -0.6538  1.1318
   65CHL1   C11 7250   2.027   1.761   9.688 -0.3016  0.2178 -0.6623
   65CHL1  H11A 7251   1.956   1.676   9.693  0.4392 -0.3239  2.4208
   65CHL1  H11B 7252   2.127   1.724   9.721 -0.3616 -1.0259 -1.7748
   65CHL1    C9 7253   1.998   1.897   9.773  0.1399 -0.9655  0.1791
   65CHL1    H9 7254   2.091   1.958   9.765  0.4150 -1.1432  1.6676
   65CHL1   C10 7255   2.000   1.869   9.924 -0.7405  0.8186 -0.6358
   65CHL1   C19 7256   1.907   1.751   9.959 -0.7546  0.3133  0.0286
   65CHL1  H19A 7257   1.807   1.769   9.915 -0.4906 -0.4592 -0.9169
   65CHL1  H19B 7258   1.950   1.658   9.918 -0.9721  1.0000 -1.8726
   65CHL1  H19C 7259   1.889   1.747  10.069  3.0091  2.0183  0.8545
   65CHL1    C1 7260   2.143   1.849   9.980 -0.3920  0.8880  0.2254
   65CHL1   H1A 7261   2.193   1.757   9.944  0.4583  0.3720  2.5807
   65CHL1   H1B 7262   2.209   1.936   9.958  1.4824 -0.3251  0.8090
   65CHL1    C2 7263   2.149   1.825  10.128  0.2416  0.0639 -1.0841
   65CHL1   H2A 7264   2.254   1.814  10.163 -1.3397 -1.8675  3.9868
   65CHL1   H2B 7265   2.097   1.730  10.150  2.5195 -1.0438 -0.0893
   65CHL1   C20 7266   1.893   1.878   9.212  0.3721  0.2191 -0.3009
   65CHL1   H20 7267   1.785   1.852   9.206 -0.0611  1.7188  0.3249
   65CHL1   C21 7268   1.978   1.752   9.204  0.1209 -0.5736 -0.3451
   65CHL1  H21A 7269   2.086   1.772   9.222 -0.0469 -1.2330  1.5953
   65CHL1  H21B 7270   1.970   1.696   9.108 -0.5202 -0.6827 -0.2325
   65CHL1  H21C 7271   1.947   1.682   9.284 -2.8143  2.8922  1.8579
   65CHL1   C22 7272   1.918   1.959   9.084 -0.0018  0.0199  0.1146
   65CHL1  H22A 7273   1.869   2.058   9.095  0.1524  0.1041  0.0388
   65CHL1  H22B 7274   2.025   1.984   9.067 -0.8654  5.1504  0.4417
   65CHL1   C23 7275   1.853   1.892   8.958  0.0231  0.5095  0.0909
   65CHL1  H23A 7276   1.922   1.806   8.945  0.0326  0.3996  0.8749
   65CHL1  H23B 7277   1.752   1.852   8.982  0.4267 -0.1717  0.6710
   65CHL1   C24 7278   1.845   1.985   8.829  0.3927  0.1165  0.1380
   65CHL1  H24A 7279   1.763   2.058   8.846  0.3196  0.6989 -2.2975
   65CHL1  H24B 7280   1.939   2.042   8.814  0.9305 -0.4735  1.1421
   65CHL1   C25 7281   1.793   1.922   8.694 -0.1426 -0.4255  0.4509
   65CHL1   H25 7282   1.884   1.921   8.631 -0.2694 -1.3840  0.2798
   65CHL1   C26 7283   1.735   1.783   8.710 -0.8435 -0.1993  0.0715
   65CHL1  H26A 7284   1.656   1.791   8.787 -1.1120  0.9915 -0.2978
   65CHL1  H26B 7285   1.710   1.738   8.612 -0.7658 -1.3865  0.5878
   65CHL1  H26C 7286   1.818   1.716   8.741  0.3323  0.0267 -2.3428
   65CHL1   C27 7287   1.702   2.019   8.614  0.0468 -0.1305  0.4473
   65CHL1  H27A 7288   1.736   2.124   8.627  0.9196  0.0238 -2.4197
   65CHL1  H27B 7289   1.701   1.995   8.506 -0.7309  0.2201  0.3634
   65CHL1  H27C 7290   1.599   2.016   8.656 -0.7970  3.0023 -1.0777
   66CHL1    C3 7291   1.091   1.376  10.339 -0.0522  0.5136  0.1131
   66CHL1    H3 7292   1.185   1.420  10.300 -0.0789 -1.0307 -1.8131
   66CHL1    O3 7293   1.088   1.369  10.479  0.2042  0.0042  0.3770
   66CHL1   H3' 7294   0.992   1.365  10.488  0.1873 -1.7209 -0.2736
   66CHL1    C4 7295   0.979   1.469  10.282  0.2541 -0.0796  0.0757
   66CHL1   H4A 7296   0.884   1.448  10.336  1.4315 -2.2762  1.4231
   66CHL1   H4B 7297   1.012   1.569  10.315  3.4052 -0.9933 -0.0297
   66CHL1    C5 7298   0.955   1.457  10.126  0.4355  1.1727 -0.0475
   66CHL1    C6 7299   0.963   1.570  10.049 -0.0055 -0.0001 -0.5880
   66CHL1    H6 7300   0.982   1.666  10.099 -2.0581 -0.6656  1.6555
   66CHL1    C7 7301   0.958   1.567   9.900  0.2303 -0.2041  0.3920
   66CHL1   H7A 7302   0.898   1.646   9.850 -0.2591 -0.9987 -0.3095
   66CHL1   H7B 7303   1.065   1.570   9.869  0.0165 -3.3866 -1.1028
   66CHL1    C8 7304   0.898   1.432   9.850 -0.4348 -0.1535 -0.2799
   66CHL1    H8 7305   0.790   1.431   9.872 -0.4303  0.6004 -0.2080
   66CHL1   C14 7306   0.930   1.432   9.697  0.7628 -0.2469  0.1488
   66CHL1   H14 7307   1.041   1.425   9.695  0.6876 -2.3270 -2.3772
   66CHL1   C15 7308   0.908   1.557   9.605  0.2544 -0.6636 -1.5004
   66CHL1  H15A 7309   0.823   1.622   9.633 -1.0297 -2.8687  0.0569
   66CHL1  H15B 7310   1.005   1.612   9.598  0.2332 -0.4043  0.0666
   66CHL1   C16 7311   0.890   1.498   9.471  0.2648 -0.0749  0.0843
   66CHL1  H16A 7312   0.787   1.521   9.436 -0.1311 -2.6234 -0.6280
   66CHL1  H16B 7313   0.960   1.539   9.395 -1.0815  2.1168 -0.0580
   66CHL1   C17 7314   0.903   1.342   9.478 -0.0379 -0.1891 -0.3837
   66CHL1   H17 7315   1.012   1.320   9.477 -0.3316 -1.7516 -0.0763
   66CHL1   C13 7316   0.871   1.309   9.624  0.8456 -0.0241 -0.1864
   66CHL1   C18 7317   0.717   1.319   9.648 -0.3188 -0.0789  0.4854
   66CHL1  H18A 7318   0.670   1.396   9.583  1.5225 -0.1533 -1.0275
   66CHL1  H18B 7319   0.673   1.226   9.606 -1.2414 -0.2136  1.6890
   66CHL1  H18C 7320   0.694   1.327   9.756  0.8692  0.9604  0.6877
   66CHL1   C12 7321   0.931   1.178   9.687  0.5035  0.1597 -0.0849
   66CHL1  H12A 7322   0.870   1.092   9.650  0.3129  1.5533 -3.3211
   66CHL1  H12B 7323   1.032   1.163   9.642  0.9029  0.4598  0.7051
   66CHL1   C11 7324   0.925   1.171   9.841 -0.1535 -0.2635 -0.5385
   66CHL1  H11A 7325   0.821   1.144   9.871  0.2101  1.0337  2.1829
   66CHL1  H11B 7326   0.983   1.084   9.879 -1.6196 -0.5334  1.2940
   66CHL1    C9 7327   0.958   1.305   9.917 -0.8421 -1.0639  0.4289
   66CHL1    H9 7328   1.065   1.322   9.895 -0.7861 -0.0861  1.3395
   66CHL1   C10 7329   0.946   1.310  10.068  0.4140 -0.1647 -0.1380
   66CHL1   C19 7330   0.809   1.248  10.110  0.4586  0.0121 -0.2643
   66CHL1  H19A 7331   0.719   1.291  10.061  0.3347 -0.0767 -0.1160
   66CHL1  H19B 7332   0.812   1.139  10.088 -0.5100  0.3269 -2.1038
   66CHL1  H19C 7333   0.803   1.267  10.219  0.2648  0.2984 -0.3242
   66CHL1    C1 7334   1.055   1.220  10.139 -0.5050 -0.4086  0.6007
   66CHL1   H1A 7335   1.023   1.117  10.112 -1.2124 -0.1454  0.3986
   66CHL1   H1B 7336   1.156   1.245  10.101 -0.7755  0.2355  0.2839
   66CHL1    C2 7337   1.066   1.231  10.291  0.1648  0.3931 -0.2093
   66CHL1   H2A 7338   1.150   1.166  10.322  1.6133  0.8421 -2.8774
   66CHL1   H2B 7339   0.972   1.191  10.334  0.7959 -1.8588 -0.8330
   66CHL1   C20 7340   0.850   1.265   9.360 -0.0232 -0.1691  0.6648
   66CHL1   H20 7341   0.739   1.269   9.357 -0.2779 -0.7854  4.2768
   66CHL1   C21 7342   0.900   1.116   9.368  0.8393  0.4332  0.3188
   66CHL1  H21A 7343   1.009   1.103   9.388  0.5104 -2.1981  0.7795
   66CHL1  H21B 7344   0.881   1.067   9.270 -0.3867  1.0201  0.2430
   66CHL1  H21C 7345   0.840   1.053   9.437  2.2994 -0.6901  0.6188
   66CHL1   C22 7346   0.907   1.324   9.227 -0.2558  0.0448 -0.2064
   66CHL1  H22A 7347   0.865   1.427   9.225 -3.0740 -0.8684  3.1490
   66CHL1  H22B 7348   1.018   1.312   9.233 -0.2468 -0.1913 -0.7906
   66CHL1   C23 7349   0.858   1.253   9.099  0.2859  0.3072  0.4906
   66CHL1  H23A 7350   0.910   1.155   9.096  0.1699  0.2495  0.3194
   66CHL1  H23B 7351   0.747   1.248   9.101  0.2988 -0.5964 -0.4332
   66CHL1   C24 7352   0.902   1.339   8.982  0.7132  0.3478  0.2330
   66CHL1  H24A 7353   0.880   1.447   8.996  1.4249  0.4379  0.6953
   66CHL1  H24B 7354   1.014   1.340   8.984  0.7470 -0.7455 -0.0693
   66CHL1   C25 7355   0.842   1.294   8.846  0.7215  0.7060  0.4938
   66CHL1   H25 7356   0.897   1.351   8.768  2.0186 -2.3021 -0.9262
   66CHL1   C26 7357   0.862   1.139   8.809 -0.3524 -0.1390  0.3680
   66CHL1  H26A 7358   0.813   1.110   8.714  0.9981 -0.2585 -0.3193
   66CHL1  H26B 7359   0.971   1.119   8.804 -0.2626 -0.2763  2.1211
   66CHL1  H26C 7360   0.835   1.075   8.896 -0.7207 -0.7924 -0.2236
   66CHL1   C27 7361   0.687   1.318   8.834 -0.6439 -0.6548 -0.1680
   66CHL1  H27A 7362   0.658   1.359   8.933 -2.0600  1.5032 -1.3923
   66CHL1  H27B 7363   0.673   1.393   8.754 -0.4421  0.0217  0.4162
   66CHL1  H27C 7364   0.631   1.222   8.823  2.5976 -3.0247  1.8671
   67CHL1    C3 7365   5.459   5.377  10.315  0.2329  0.1680  0.0582
   67CHL1    H3 7366   5.372   5.444  10.328 -1.9301 -2.0318 -2.0190
   67CHL1    O3 7367   5.498   5.366  10.448 -0.9896  0.0281 -0.2824
   67CHL1   H3' 7368   5.576   5.309  10.444 -1.2926 -0.3508 -2.5841
   67CHL1    C4 7369   5.418   5.239  10.253  0.3492  0.3093  0.2572
   67CHL1   H4A 7370   5.506   5.173  10.272 -0.0253  0.6423  3.7041
   67CHL1   H4B 7371   5.341   5.185  10.312  0.1425 -0.3783 -0.6194
   67CHL1    C5 7372   5.395   5.240  10.105 -0.1971  0.5117 -0.0489
   67CHL1    C6 7373   5.290   5.183  10.055 -0.2591  0.1468 -0.0278
   67CHL1    H6 7374   5.223   5.132  10.126  2.8562 -0.6610  2.5706
   67CHL1    C7 7375   5.274   5.161   9.911 -0.1010  0.0882  0.5126
   67CHL1   H7A 7376   5.263   5.055   9.882 -1.2284 -0.0021  1.2192
   67CHL1   H7B 7377   5.179   5.199   9.868  0.8436  1.4047 -0.5203
   67CHL1    C8 7378   5.389   5.221   9.821  0.5883  0.6020 -1.1273
   67CHL1    H8 7379   5.468   5.143   9.824  0.5110  0.5192 -1.2789
   67CHL1   C14 7380   5.343   5.241   9.676  0.3268  0.0316  0.6268
   67CHL1   H14 7381   5.265   5.320   9.680  1.2922  1.0248  0.1744
   67CHL1   C15 7382   5.267   5.130   9.602  0.0473  0.7425 -0.1790
   67CHL1  H15A 7383   5.322   5.035   9.618  2.6030  2.3327  1.4162
   67CHL1  H15B 7384   5.163   5.117   9.638 -0.4418 -2.9248 -2.4851
   67CHL1   C16 7385   5.275   5.164   9.460  0.2578  0.1207  0.1000
   67CHL1  H16A 7386   5.318   5.085   9.395 -0.2797 -0.4753  0.4595
   67CHL1  H16B 7387   5.171   5.176   9.425  0.3546  0.2123 -0.1513
   67CHL1   C17 7388   5.365   5.287   9.453 -0.8387 -0.6278  0.6127
   67CHL1   H17 7389   5.302   5.379   9.461  1.2222  1.1418 -1.8269
   67CHL1   C13 7390   5.450   5.293   9.583 -0.3570  0.6988  0.2230
   67CHL1   C18 7391   5.562   5.186   9.568  0.1544 -0.0985  0.1412
   67CHL1  H18A 7392   5.542   5.098   9.505  2.8021 -0.1385 -0.7920
   67CHL1  H18B 7393   5.652   5.239   9.530  0.4258  0.5748  1.6533
   67CHL1  H18C 7394   5.583   5.146   9.670 -0.9592  0.3697  0.5612
   67CHL1   C12 7395   5.490   5.429   9.635  0.1074  0.4143 -0.1212
   67CHL1  H12A 7396   5.574   5.472   9.576 -0.2463  2.6958  0.9257
   67CHL1  H12B 7397   5.410   5.506   9.646  0.0947  0.1041  2.4937
   67CHL1   C11 7398   5.550   5.411   9.780 -0.1585 -0.3662  0.0219
   67CHL1  H11A 7399   5.629   5.334   9.766 -0.1225 -0.4071  0.4616
   67CHL1  H11B 7400   5.597   5.503   9.821 -0.5595 -0.0800 -0.1527
   67CHL1    C9 7401   5.445   5.351   9.886 -0.0051  0.5082  0.4523
   67CHL1    H9 7402   5.361   5.425   9.887 -0.1038  0.6290 -3.0550
   67CHL1   C10 7403   5.498   5.329  10.028 -0.2688 -0.5577 -0.1463
   67CHL1   C19 7404   5.633   5.258  10.019  0.1236 -0.2547  0.4649
   67CHL1  H19A 7405   5.639   5.168   9.953  2.7361  0.7954 -0.8655
   67CHL1  H19B 7406   5.701   5.334   9.974  0.9316  0.9603  3.4941
   67CHL1  H19C 7407   5.672   5.235  10.120 -1.5837 -0.6848  1.0493
   67CHL1    C1 7408   5.530   5.466  10.091 -0.9048  0.0673  0.5498
   67CHL1   H1A 7409   5.610   5.525  10.040  0.2069 -0.6310  1.4210
   67CHL1   H1B 7410   5.438   5.524  10.074 -0.6203  0.3154 -0.1636
   67CHL1    C2 7411   5.567   5.451  10.242  0.0577 -0.2234 -0.0806
   67CHL1   H2A 7412   5.572   5.555  10.280 -0.9978 -0.1786 -0.0345
   67CHL1   H2B 7413   5.667   5.403  10.245 -0.9330 -2.7269 -2.5371
   67CHL1   C20 7414   5.433   5.294   9.316  0.9403  0.5778  0.5741
   67CHL1   H20 7415   5.511   5.214   9.311  0.0508 -0.3079  0.4963
   67CHL1   C21 7416   5.510   5.426   9.298  0.0453 -0.2431  0.7505
   67CHL1  H21A 7417   5.465   5.516   9.345 -0.7719 -0.3900  0.2785
   67CHL1  H21B 7418   5.524   5.450   9.190 -0.5962  1.1826  0.9600
   67CHL1  H21C 7419   5.607   5.405   9.347  0.1349 -1.7820 -0.0229
   67CHL1   C22 7420   5.336   5.280   9.192 -0.1458  0.0287  0.0716
   67CHL1  H22A 7421   5.397   5.298   9.100  2.0211  0.7453  1.5689
   67CHL1  H22B 7422   5.289   5.179   9.194 -0.9204  0.2850 -2.2395
   67CHL1   C23 7423   5.218   5.379   9.200 -0.0933 -0.4178 -0.1663
   67CHL1  H23A 7424   5.159   5.363   9.293  0.7698 -0.3563  0.4032
   67CHL1  H23B 7425   5.259   5.482   9.194 -0.5536 -0.3175 -2.6737
   67CHL1   C24 7426   5.120   5.370   9.084 -0.0142  0.2793 -0.4593
   67CHL1  H24A 7427   5.188   5.382   8.996 -0.1528 -2.1817 -0.9715
   67CHL1  H24B 7428   5.073   5.270   9.082  0.0494  0.2271  0.4145
   67CHL1   C25 7429   5.005   5.480   9.094  0.3358  0.3249 -0.9697
   67CHL1   H25 7430   4.916   5.457   9.157 -1.0229 -2.4229 -3.6204
   67CHL1   C26 7431   5.047   5.626   9.146  0.1988  0.0958  0.1559
   67CHL1  H26A 7432   5.057   5.633   9.256 -0.8377 -1.5904  0.3863
   67CHL1  H26B 7433   5.142   5.650   9.095 -0.7297 -1.3092 -2.4346
   67CHL1  H26C 7434   4.973   5.705   9.117  1.3048  0.2968 -2.4257
   67CHL1   C27 7435   4.949   5.495   8.951  0.2019  0.1903  0.8580
   67CHL1  H27A 7436   5.031   5.550   8.900  1.6355 -0.1098  2.7687
   67CHL1  H27B 7437   4.943   5.394   8.903  1.8693 -0.0274  1.0741
   67CHL1  H27C 7438   4.858   5.558   8.943 -0.4511 -0.8158  0.0676
   68CHL1    C3 7439   2.972   6.836  10.104 -0.1223  0.1252 -0.2384
   68CHL1    H3 7440   3.068   6.815  10.052  0.8198  0.4790  1.2769
   68CHL1    O3 7441   3.002   6.815  10.241  0.6945 -0.6299  0.4595
   68CHL1   H3' 7442   3.092   6.851  10.244  0.7231 -0.6302 -0.3038
   68CHL1    C4 7443   2.919   6.977  10.069  0.4181 -0.1248 -0.1122
   68CHL1   H4A 7444   2.827   6.982  10.130  0.4385 -4.3284  0.5433
   68CHL1   H4B 7445   3.000   7.042  10.110 -0.8172  0.6637  1.1661
   68CHL1    C5 7446   2.885   6.996   9.924 -0.3139 -0.0400  0.5861
   68CHL1    C6 7447   2.943   7.094   9.852 -0.2180  0.9823 -0.0657
   68CHL1    H6 7448   3.012   7.162   9.904  2.7552 -0.7716 -1.4653
   68CHL1    C7 7449   2.916   7.117   9.708 -0.4095  0.5451 -0.5028
   68CHL1   H7A 7450   2.894   7.223   9.684 -1.0823  0.8029  1.0871
   68CHL1   H7B 7451   3.004   7.086   9.648 -0.5959  0.6632 -0.8405
   68CHL1    C8 7452   2.794   7.037   9.649 -1.0485 -0.5352 -0.6653
   68CHL1    H8 7453   2.702   7.092   9.680 -0.2233 -1.0035  3.1503
   68CHL1   C14 7454   2.801   7.025   9.498  0.1480  0.1557  0.6014
   68CHL1   H14 7455   2.884   6.957   9.469 -0.5753  0.1243 -1.5935
   68CHL1   C15 7456   2.837   7.150   9.412 -0.3018 -0.3432 -0.4989
   68CHL1  H15A 7457   2.772   7.232   9.450 -0.9174 -0.3674 -1.4951
   68CHL1  H15B 7458   2.942   7.184   9.428 -0.0462 -0.3676 -2.0436
   68CHL1   C16 7459   2.804   7.108   9.269 -0.1190  0.0750 -0.5608
   68CHL1  H16A 7460   2.740   7.190   9.229  0.0528 -0.3067 -1.6408
   68CHL1  H16B 7461   2.886   7.088   9.197 -2.5421 -1.5248 -3.0686
   68CHL1   C17 7462   2.730   6.962   9.280  0.1059 -0.3907  0.4619
   68CHL1   H17 7463   2.810   6.888   9.259  0.0875 -0.0816 -0.7766
   68CHL1   C13 7464   2.685   6.955   9.429 -0.6978  0.2314  0.1982
   68CHL1   C18 7465   2.553   7.030   9.458  0.2342  0.6594  0.0458
   68CHL1  H18A 7466   2.526   7.020   9.565 -1.3392  0.2694 -0.3599
   68CHL1  H18B 7467   2.565   7.140   9.445 -0.6611  0.7701  0.1488
   68CHL1  H18C 7468   2.473   6.988   9.394 -0.9724 -2.8973  3.5404
   68CHL1   C12 7469   2.691   6.807   9.477  0.2948 -0.8473 -0.3091
   68CHL1  H12A 7470   2.619   6.749   9.415 -0.7112 -0.9901  0.9426
   68CHL1  H12B 7471   2.787   6.755   9.456 -0.4318 -2.6913  0.6891
   68CHL1   C11 7472   2.682   6.800   9.637 -0.5477  0.3592  0.3384
   68CHL1  H11A 7473   2.582   6.834   9.670 -1.1535 -0.2265 -0.8323
   68CHL1  H11B 7474   2.694   6.692   9.657  0.9967  0.4472  0.0660
   68CHL1    C9 7475   2.786   6.889   9.704 -0.2286  0.0484  0.2528
   68CHL1    H9 7476   2.884   6.845   9.674 -0.5657 -0.7001  0.2288
   68CHL1   C10 7477   2.793   6.884   9.857 -0.1468 -0.6176 -0.4962
   68CHL1   C19 7478   2.649   6.908   9.904 -0.1574  0.2771  1.0268
   68CHL1  H19A 7479   2.631   6.936  10.011  0.8708 -0.1511  1.3135
   68CHL1  H19B 7480   2.602   6.990   9.845  1.0753  1.1567  1.2288
   68CHL1  H19C 7481   2.599   6.809   9.894  0.0481  0.4086 -2.1687
   68CHL1    C1 7482   2.849   6.746   9.909  0.0958 -0.8101 -0.2311
   68CHL1   H1A 7483   2.771   6.673   9.877 -0.2814 -0.2218 -0.6757
   68CHL1   H1B 7484   2.938   6.703   9.858  0.3380 -1.3936  0.6561
   68CHL1    C2 7485   2.871   6.730  10.063  0.3901  0.3849 -0.6246
   68CHL1   H2A 7486   2.907   6.626  10.076  0.1054  0.5111  1.3898
   68CHL1   H2B 7487   2.772   6.734  10.113  0.1244 -2.8012 -0.6867
   68CHL1   C20 7488   2.633   6.942   9.166 -0.2064  0.0980 -0.0059
   68CHL1   H20 7489   2.542   7.005   9.181  0.0517  0.1859  1.2455
   68CHL1   C21 7490   2.586   6.793   9.152  0.6115  0.3425  0.0430
   68CHL1  H21A 7491   2.536   6.762   9.246  0.1813 -0.4996 -0.4511
   68CHL1  H21B 7492   2.672   6.729   9.121  0.0175 -0.1163 -0.6919
   68CHL1  H21C 7493   2.512   6.777   9.071 -0.4128  1.3551  0.7479
   68CHL1   C22 7494   2.694   6.985   9.032  0.4927  0.1366 -0.1804
   68CHL1  H22A 7495   2.630   6.946   8.950  1.6606  0.6718 -1.3845
   68CHL1  H22B 7496   2.714   7.093   9.017 -0.8642  0.3619 -0.4737
   68CHL1   C23 7497   2.830   6.914   8.998  0.6367 -1.1099 -0.1109
   68CHL1  H23A 7498   2.911   6.956   9.061  0.0218 -1.5487  0.9872
   68CHL1  H23B 7499   2.817   6.808   9.027 -1.1112 -0.5727  1.2872
   68CHL1   C24 7500   2.871   6.922   8.850 -0.4463 -0.0234 -0.9427
   68CHL1  H24A 7501   2.962   6.860   8.838 -1.8939 -2.9294  1.6498
   68CHL1  H24B 7502   2.782   6.886   8.794 -1.6905  0.7792  0.4366
   68CHL1   C25 7503   2.895   7.073   8.805  0.2263  0.5966  0.3256
   68CHL1   H25 7504   2.817   7.136   8.853 -1.0727 -1.1962  0.6946
   68CHL1   C26 7505   3.036   7.127   8.840  0.2551  0.1290 -0.3748
   68CHL1  H26A 7506   3.104   7.039   8.835 -0.0997 -0.0809 -2.1661
   68CHL1  H26B 7507   3.080   7.208   8.778  1.7292 -0.1576  0.2534
   68CHL1  H26C 7508   3.025   7.170   8.942  0.8785 -0.2438 -0.1408
   68CHL1   C27 7509   2.876   7.073   8.656  0.4715 -0.0612  0.8458
   68CHL1  H27A 7510   2.963   7.023   8.607  1.0425  1.4213  0.3145
   68CHL1  H27B 7511   2.795   7.003   8.624  1.1616  0.1313 -1.5554
   68CHL1  H27C 7512   2.865   7.178   8.622 -2.1598 -0.6185 -0.2633
   69CHL1    C3 7513   1.626   1.462   6.814  0.5710  0.3446  0.1160
   69CHL1    H3 7514   1.724   1.422   6.849  0.6125 -0.7751 -1.2169
   69CHL1    O3 7515   1.602   1.450   6.673  0.0244 -0.2870  0.1702
   69CHL1   H3' 7516   1.667   1.516   6.644 -1.1830  1.6716  1.6618
   69CHL1    C4 7517   1.505   1.385   6.877 -0.6425 -0.2662  0.0928
   69CHL1   H4A 7518   1.412   1.433   6.839 -0.5345  0.5059  0.7594
   69CHL1   H4B 7519   1.506   1.278   6.847  1.3602 -0.4197  0.5814
   69CHL1    C5 7520   1.498   1.400   7.027  0.0189  0.5307 -0.2831
   69CHL1    C6 7521   1.512   1.297   7.110 -0.3347  0.3068 -0.4939
   69CHL1    H6 7522   1.534   1.200   7.064 -2.0152  0.1521 -1.0340
   69CHL1    C7 7523   1.508   1.301   7.256  0.1375  0.3987 -0.3201
   69CHL1   H7A 7524   1.435   1.225   7.290 -0.6190  1.2274 -0.0589
   69CHL1   H7B 7525   1.600   1.272   7.311 -0.1088 -2.3585 -1.2404
   69CHL1    C8 7526   1.464   1.439   7.316  0.5508 -0.2382 -0.4552
   69CHL1    H8 7527   1.354   1.451   7.301  0.2830 -0.8624  0.8148
   69CHL1   C14 7528   1.497   1.453   7.461  0.5721 -0.2946 -0.4373
   69CHL1   H14 7529   1.607   1.445   7.463  0.7027  1.1059 -1.1886
   69CHL1   C15 7530   1.440   1.353   7.559  0.5232  0.4313 -0.2329
   69CHL1  H15A 7531   1.333   1.328   7.543  0.1735  0.7765  1.3505
   69CHL1  H15B 7532   1.498   1.258   7.553  2.2663  1.4667 -0.2401
   69CHL1   C16 7533   1.453   1.415   7.697  0.2175  0.0705 -0.7015
   69CHL1  H16A 7534   1.355   1.429   7.747 -0.0546 -0.0235 -1.2041
   69CHL1  H16B 7535   1.518   1.361   7.770  1.2250  2.1230  0.0222
   69CHL1   C17 7536   1.510   1.559   7.672  0.6404 -0.2815  0.0194
   69CHL1   H17 7537   1.620   1.544   7.670  0.8432  0.9428  0.9951
   69CHL1   C13 7538   1.468   1.589   7.530 -0.5282 -0.1543 -0.1266
   69CHL1   C18 7539   1.320   1.622   7.521 -0.2062 -0.2461 -0.0560
   69CHL1  H18A 7540   1.274   1.545   7.586  1.5716 -0.9037  0.4900
   69CHL1  H18B 7541   1.285   1.726   7.541 -0.8464  0.0641 -2.4669
   69CHL1  H18C 7542   1.271   1.601   7.424 -1.0226 -0.1023  0.3208
   69CHL1   C12 7543   1.547   1.701   7.456 -0.5930 -0.1120  0.1219
   69CHL1  H12A 7544   1.519   1.804   7.489  0.6429 -0.4213  2.3881
   69CHL1  H12B 7545   1.656   1.685   7.470 -0.4194 -0.8835 -1.8819
   69CHL1   C11 7546   1.507   1.693   7.308 -0.3932  0.7050  0.8316
   69CHL1  H11A 7547   1.401   1.724   7.298 -1.0755 -1.7301 -0.1761
   69CHL1  H11B 7548   1.564   1.767   7.248  0.7770 -1.1218 -0.4339
   69CHL1    C9 7549   1.534   1.551   7.239  0.1547 -0.8533  0.2430
   69CHL1    H9 7550   1.640   1.525   7.260 -0.3743 -2.3902  1.1672
   69CHL1   C10 7551   1.501   1.546   7.079 -0.2170  0.5104 -0.5559
   69CHL1   C19 7552   1.363   1.610   7.062  0.4028 -0.0727  0.2617
   69CHL1  H19A 7553   1.357   1.721   7.064 -2.7281  0.0058 -3.0918
   69CHL1  H19B 7554   1.313   1.595   6.963  0.2804  2.1004 -0.0669
   69CHL1  H19C 7555   1.294   1.573   7.140 -0.0895  0.6541  0.1822
   69CHL1    C1 7556   1.608   1.622   7.000  0.2957 -0.2405 -0.4195
   69CHL1   H1A 7557   1.606   1.730   7.024 -1.1126 -0.4885  0.7046
   69CHL1   H1B 7558   1.706   1.585   7.038  1.2173  0.5976 -1.8622
   69CHL1    C2 7559   1.597   1.605   6.849 -0.4485 -0.1699  0.3852
   69CHL1   H2A 7560   1.672   1.664   6.793  2.0270 -0.8985  2.7273
   69CHL1   H2B 7561   1.494   1.631   6.818 -0.5329  1.5282  1.9491
   69CHL1   C20 7562   1.472   1.660   7.776  0.0069 -0.0457 -0.4723
   69CHL1   H20 7563   1.362   1.670   7.780 -0.0487 -0.9072  0.3366
   69CHL1   C21 7564   1.534   1.795   7.759 -0.3518 -0.3259  0.1695
   69CHL1  H21A 7565   1.465   1.858   7.699  1.3839  1.4255 -0.0833
   69CHL1  H21B 7566   1.625   1.803   7.696 -1.1526  1.5167 -0.8559
   69CHL1  H21C 7567   1.552   1.836   7.860 -0.6536 -0.4720  0.2847
   69CHL1   C22 7568   1.498   1.613   7.922  0.0027 -0.5823 -0.2746
   69CHL1  H22A 7569   1.473   1.702   7.984 -0.5018  0.1077 -1.4462
   69CHL1  H22B 7570   1.424   1.532   7.943 -0.0792 -0.6191 -0.6990
   69CHL1   C23 7571   1.640   1.562   7.955 -0.6666  0.1343 -1.0667
   69CHL1  H23A 7572   1.651   1.471   7.891  0.1326 -1.2543  0.9580
   69CHL1  H23B 7573   1.721   1.632   7.925 -1.3248  1.6334  0.5053
   69CHL1   C24 7574   1.659   1.541   8.105 -0.9770 -0.0811 -0.7293
   69CHL1  H24A 7575   1.641   1.645   8.141  0.3932  0.1690 -0.7115
   69CHL1  H24B 7576   1.576   1.477   8.142 -1.0446  1.5519  2.3036
   69CHL1   C25 7577   1.793   1.468   8.136 -0.2227 -0.0096 -0.7004
   69CHL1   H25 7578   1.864   1.527   8.074  1.2929 -1.2933 -0.2642
   69CHL1   C26 7579   1.828   1.471   8.289 -0.2201 -0.0502 -0.1539
   69CHL1  H26A 7580   1.830   1.573   8.334  1.2222 -0.4064  0.6367
   69CHL1  H26B 7581   1.765   1.403   8.351 -0.6452 -1.3186 -1.8901
   69CHL1  H26C 7582   1.934   1.439   8.291 -0.2098  0.0153  0.4068
   69CHL1   C27 7583   1.784   1.328   8.084  0.3428 -0.2893  0.4528
   69CHL1  H27A 7584   1.727   1.266   8.157 -0.1077 -0.2557  0.1382
   69CHL1  H27B 7585   1.727   1.321   7.989 -2.1856 -0.2687  1.8667
   69CHL1  H27C 7586   1.887   1.289   8.077  0.1429 -1.0088  1.3874
   70CHL1    C3 7587   0.429   6.648   7.141  0.4096 -0.5337 -0.6690
   70CHL1    H3 7588   0.507   6.583   7.186 -1.5039 -2.2416  0.4131
   70CHL1    O3 7589   0.456   6.654   7.004  0.7324 -0.0432 -0.1560
   70CHL1   H3' 7590   0.418   6.736   6.970 -1.9303 -0.9910  0.2913
   70CHL1    C4 7591   0.285   6.593   7.163 -0.6872 -0.3718 -0.0497
   70CHL1   H4A 7592   0.212   6.653   7.105 -1.2152 -1.9628 -1.0959
   70CHL1   H4B 7593   0.289   6.485   7.134 -0.1840 -0.7271  1.2574
   70CHL1    C5 7594   0.249   6.594   7.306 -0.2078  0.1379 -0.7586
   70CHL1    C6 7595   0.197   6.482   7.369 -0.3972 -0.3478 -0.2962
   70CHL1    H6 7596   0.178   6.388   7.316  0.4883 -1.0901  0.6473
   70CHL1    C7 7597   0.156   6.478   7.517 -0.1664 -0.0451 -0.0103
   70CHL1   H7A 7598   0.050   6.446   7.526  0.1588 -0.9224  0.9770
   70CHL1   H7B 7599   0.226   6.412   7.573  1.0207 -0.1833 -1.5832
   70CHL1    C8 7600   0.139   6.622   7.576 -0.3427  0.2641  0.6030
   70CHL1    H8 7601   0.054   6.669   7.522  1.3689  1.8105 -0.9004
   70CHL1   C14 7602   0.119   6.612   7.724  0.4125  0.1276  0.0536
   70CHL1   H14 7603   0.207   6.562   7.769 -0.0785  1.3251  2.4965
   70CHL1   C15 7604  -0.009   6.534   7.763 -0.1096 -0.3764 -0.0123
   70CHL1  H15A 7605  -0.092   6.558   7.694  1.7082  1.6485 -1.6472
   70CHL1  H15B 7606   0.019   6.426   7.754  1.4940  0.1516 -2.1947
   70CHL1   C16 7607  -0.041   6.584   7.906  0.2615 -0.0794  0.6410
   70CHL1  H16A 7608  -0.143   6.626   7.896  1.1360  1.6935 -2.3043
   70CHL1  H16B 7609  -0.038   6.499   7.977 -1.7865 -2.2480 -1.6601
   70CHL1   C17 7610   0.068   6.684   7.936  0.1426  0.0233  0.3811
   70CHL1   H17 7611   0.153   6.624   7.977  1.3214 -0.2130 -2.2326
   70CHL1   C13 7612   0.117   6.743   7.801 -0.2879  0.5782  0.9951
   70CHL1   C18 7613   0.001   6.836   7.750  0.0827 -0.4002  0.2208
   70CHL1  H18A 7614  -0.094   6.780   7.757  0.5125 -1.1457  0.1366
   70CHL1  H18B 7615   0.016   6.938   7.793 -0.2112 -0.3849  0.2855
   70CHL1  H18C 7616   0.008   6.858   7.641  0.9125  0.7483  0.4805
   70CHL1   C12 7617   0.259   6.802   7.776  0.3553  0.4115 -0.4527
   70CHL1  H12A 7618   0.282   6.900   7.824  1.5906 -0.6082  1.1184
   70CHL1  H12B 7619   0.329   6.728   7.819 -2.4730 -1.6134  0.9905
   70CHL1   C11 7620   0.297   6.829   7.633 -0.3958  0.2221 -1.3508
   70CHL1  H11A 7621   0.231   6.909   7.594  0.1617  1.0553 -0.6325
   70CHL1  H11B 7622   0.401   6.865   7.625 -0.5324  1.6435  1.7545
   70CHL1    C9 7623   0.264   6.706   7.539  0.0252  0.9215 -0.5748
   70CHL1    H9 7624   0.338   6.626   7.564 -1.6835 -0.2218  1.1523
   70CHL1   C10 7625   0.269   6.721   7.388  0.4130 -0.5411  0.2853
   70CHL1   C19 7626   0.161   6.824   7.333 -0.6079  0.2057 -0.0246
   70CHL1  H19A 7627   0.145   6.823   7.223 -2.9487 -0.5003  0.2632
   70CHL1  H19B 7628   0.057   6.802   7.365 -0.7024 -1.0213 -1.1075
   70CHL1  H19C 7629   0.185   6.923   7.378  1.5850  0.7280 -2.1281
   70CHL1    C1 7630   0.411   6.774   7.347  0.1795 -0.0611  0.2519
   70CHL1   H1A 7631   0.428   6.871   7.399 -4.2118  1.6401 -1.0899
   70CHL1   H1B 7632   0.482   6.704   7.397  1.0039 -1.1733 -2.3180
   70CHL1    C2 7633   0.443   6.784   7.198 -0.0996 -0.0754  0.1001
   70CHL1   H2A 7634   0.545   6.825   7.182 -1.1724  2.2779 -1.4699
   70CHL1   H2B 7635   0.371   6.851   7.147 -0.6190 -1.5774 -1.2264
   70CHL1   C20 7636   0.021   6.793   8.038  0.4824 -0.0158 -0.7481
   70CHL1   H20 7637  -0.063   6.861   8.010 -1.0784 -1.2725  0.6707
   70CHL1   C21 7638   0.139   6.881   8.074 -0.2613  0.1453  0.3294
   70CHL1  H21A 7639   0.163   6.949   7.990 -0.2275  0.5647  0.6749
   70CHL1  H21B 7640   0.224   6.815   8.101 -0.6800 -0.0628  1.1976
   70CHL1  H21C 7641   0.129   6.935   8.170 -1.0017  0.2635  0.1938
   70CHL1   C22 7642  -0.039   6.730   8.165  0.0404  0.8018  0.7826
   70CHL1  H22A 7643  -0.134   6.686   8.128  1.2673  0.1316 -1.7378
   70CHL1  H22B 7644   0.015   6.642   8.205 -0.3650 -0.9366 -2.2281
   70CHL1   C23 7645  -0.079   6.830   8.268  0.2186 -0.1730  0.3444
   70CHL1  H23A 7646   0.004   6.864   8.332 -0.8441  0.2431  1.5438
   70CHL1  H23B 7647  -0.121   6.905   8.197  0.2874 -1.1766 -0.7802
   70CHL1   C24 7648  -0.192   6.782   8.366 -0.1626 -0.2059 -0.2305
   70CHL1  H24A 7649  -0.285   6.744   8.318 -0.2086 -0.2258 -0.1268
   70CHL1  H24B 7650  -0.145   6.700   8.424  1.1435  0.8078  0.1717
   70CHL1   C25 7651  -0.232   6.894   8.458  0.4210 -0.0309  0.4338
   70CHL1   H25 7652  -0.137   6.932   8.500  0.8910  1.0203 -1.4548
   70CHL1   C26 7653  -0.307   7.007   8.382  0.6302 -0.3404  0.1347
   70CHL1  H26A 7654  -0.334   7.089   8.452 -3.6261 -0.3474 -1.2321
   70CHL1  H26B 7655  -0.255   7.042   8.290  0.5696 -0.4280  0.0682
   70CHL1  H26C 7656  -0.404   6.965   8.348  0.0317 -1.8541  3.3089
   70CHL1   C27 7657  -0.325   6.839   8.561  0.3503 -0.5286 -0.7248
   70CHL1  H27A 7658  -0.417   6.805   8.507  0.5540 -3.1437  0.4069
   70CHL1  H27B 7659  -0.283   6.752   8.616 -0.2851 -0.4006 -0.0185
   70CHL1  H27C 7660  -0.354   6.914   8.637  1.9411 -0.7997  0.1866
   71CHL1    C3 7661   0.600   3.752   6.661 -0.3433 -0.3104 -0.1050
   71CHL1    H3 7662   0.678   3.817   6.705 -1.1442  0.2589  0.5157
   71CHL1    O3 7663   0.575   3.811   6.533  0.4260 -0.1359  0.2936
   71CHL1   H3' 7664   0.631   3.763   6.472 -1.0848 -0.2429 -1.0796
   71CHL1    C4 7665   0.628   3.608   6.645 -0.1528 -0.0402 -0.0647
   71CHL1   H4A 7666   0.552   3.551   6.586  0.5086 -1.5748  0.5103
   71CHL1   H4B 7667   0.716   3.598   6.577 -1.2316  0.2400 -1.5553
   71CHL1    C5 7668   0.652   3.543   6.784 -0.2546  0.3608 -0.1491
   71CHL1    C6 7669   0.772   3.488   6.818 -0.2155 -0.9130  0.7298
   71CHL1    H6 7670   0.847   3.485   6.737 -0.8528 -1.2579  0.1384
   71CHL1    C7 7671   0.803   3.426   6.946 -0.1441  0.1275 -0.0707
   71CHL1   H7A 7672   0.862   3.331   6.943 -0.1666  0.0366  1.5588
   71CHL1   H7B 7673   0.882   3.480   7.001  1.4861 -0.8594 -1.3557
   71CHL1    C8 7674   0.680   3.408   7.039  0.4848 -0.3909 -0.2977
   71CHL1    H8 7675   0.620   3.319   7.009  0.3324 -0.9090  1.3864
   71CHL1   C14 7676   0.726   3.404   7.180 -0.2575  0.2550 -0.0038
   71CHL1   H14 7677   0.770   3.503   7.206 -0.7407  0.7748 -1.0721
   71CHL1   C15 7678   0.828   3.297   7.212  0.4199  0.5577  0.4044
   71CHL1  H15A 7679   0.801   3.203   7.160 -0.4769  2.0861 -2.0815
   71CHL1  H15B 7680   0.927   3.339   7.187 -0.0959  1.6355  0.1040
   71CHL1   C16 7681   0.824   3.294   7.362  0.2460 -0.4238 -0.4273
   71CHL1  H16A 7682   0.802   3.194   7.405  1.0784 -0.1231  0.7697
   71CHL1  H16B 7683   0.921   3.338   7.395  0.0358 -0.4736  0.2601
   71CHL1   C17 7684   0.704   3.380   7.407 -0.1944 -0.6456 -0.1906
   71CHL1   H17 7685   0.749   3.480   7.421 -0.9896 -0.4661  1.1717
   71CHL1   C13 7686   0.620   3.391   7.284  0.0490  0.6689  0.0133
   71CHL1   C18 7687   0.535   3.258   7.264 -0.1376  0.2684 -0.2876
   71CHL1  H18A 7688   0.475   3.239   7.356 -1.3817 -0.7265 -1.2638
   71CHL1  H18B 7689   0.472   3.265   7.173  0.2062  2.7452 -0.3990
   71CHL1  H18C 7690   0.592   3.165   7.246 -0.5825 -0.0144 -0.2558
   71CHL1   C12 7691   0.524   3.514   7.270  0.1401 -0.5550 -0.1461
   71CHL1  H12A 7692   0.432   3.509   7.332  0.2016  0.5106  0.0581
   71CHL1  H12B 7693   0.582   3.608   7.284 -1.2405  0.4039 -0.6014
   71CHL1   C11 7694   0.478   3.532   7.127  0.1135  0.4425  1.3974
   71CHL1  H11A 7695   0.417   3.445   7.095  1.2423  0.4863 -1.0985
   71CHL1  H11B 7696   0.414   3.623   7.120 -0.9502 -0.3482  0.5273
   71CHL1    C9 7697   0.593   3.537   7.027  0.5390 -0.2421  0.4576
   71CHL1    H9 7698   0.653   3.625   7.060  0.2348 -0.2638  1.0732
   71CHL1   C10 7699   0.539   3.561   6.879 -0.0453  0.5600 -0.2236
   71CHL1   C19 7700   0.428   3.464   6.838 -0.3231 -0.3444  0.0624
   71CHL1  H19A 7701   0.446   3.358   6.866 -1.9084 -0.8227 -0.6427
   71CHL1  H19B 7702   0.329   3.487   6.882 -0.8374 -1.1833 -0.6205
   71CHL1  H19C 7703   0.403   3.467   6.730 -2.5777 -0.2830  0.5427
   71CHL1    C1 7704   0.479   3.711   6.877  0.3253 -0.5009 -0.2902
   71CHL1   H1A 7705   0.380   3.722   6.928  0.0130  0.2982 -1.0333
   71CHL1   H1B 7706   0.539   3.790   6.926 -0.3089  0.1185 -0.4897
   71CHL1    C2 7707   0.468   3.777   6.736  0.4025  0.5381  0.8761
   71CHL1   H2A 7708   0.445   3.885   6.749 -2.0408  0.1337  0.3452
   71CHL1   H2B 7709   0.383   3.734   6.679  2.5775 -1.0863 -1.3823
   71CHL1   C20 7710   0.647   3.329   7.540  0.9151 -0.3264 -0.6352
   71CHL1   H20 7711   0.605   3.227   7.536 -0.1419  0.0596  0.1987
   71CHL1   C21 7712   0.521   3.415   7.570 -0.8971 -0.7176 -0.3311
   71CHL1  H21A 7713   0.424   3.391   7.521 -0.0954  0.5085 -2.6984
   71CHL1  H21B 7714   0.550   3.520   7.545  0.2349 -0.8320  0.4065
   71CHL1  H21C 7715   0.506   3.417   7.680 -0.0977  0.6459 -0.2247
   71CHL1   C22 7716   0.754   3.330   7.659 -0.1626 -0.0924  0.2382
   71CHL1  H22A 7717   0.702   3.284   7.746 -1.0771 -0.7830 -0.6519
   71CHL1  H22B 7718   0.832   3.256   7.633  1.4070  1.8203 -0.7446
   71CHL1   C23 7719   0.816   3.466   7.693 -0.0511  0.4276 -0.5501
   71CHL1  H23A 7720   0.880   3.490   7.605  0.1001 -2.7201 -1.4067
   71CHL1  H23B 7721   0.734   3.540   7.703 -0.9226 -0.8050  4.3525
   71CHL1   C24 7722   0.913   3.469   7.813  0.5583  0.4805  0.1948
   71CHL1  H24A 7723   0.861   3.448   7.909  3.8489 -2.7834  1.4743
   71CHL1  H24B 7724   0.984   3.384   7.818  1.2087  1.0292  0.4142
   71CHL1   C25 7725   0.990   3.595   7.827  0.2384  0.5176  0.6425
   71CHL1   H25 7726   1.003   3.642   7.727  1.3036  1.5875  1.2552
   71CHL1   C26 7727   0.917   3.689   7.926  0.1521 -0.0028  0.3811
   71CHL1  H26A 7728   0.808   3.691   7.905  0.7295  1.0779 -3.0315
   71CHL1  H26B 7729   0.936   3.647   8.028  0.0593  0.0127  0.4042
   71CHL1  H26C 7730   0.955   3.793   7.930  0.5613 -0.1289 -0.0716
   71CHL1   C27 7731   1.134   3.567   7.878 -0.4851 -0.4947  0.2903
   71CHL1  H27A 7732   1.191   3.662   7.885 -1.4294  0.5358 -3.5166
   71CHL1  H27B 7733   1.134   3.527   7.982  2.0481 -0.2804  0.4226
   71CHL1  H27C 7734   1.185   3.491   7.815  1.6538 -0.1852  1.5639
   72CHL1    C3 7735   1.054   1.162   6.950 -0.1081  0.4056  0.2535
   72CHL1    H3 7736   0.959   1.205   6.913  0.3407 -0.2588 -1.7927
   72CHL1    O3 7737   1.126   1.130   6.831 -0.1717 -0.8389 -0.7324
   72CHL1   H3' 7738   1.212   1.102   6.862 -1.1803 -1.9423  1.2663
   72CHL1    C4 7739   1.128   1.270   7.028 -0.6325  0.3346  0.3058
   72CHL1   H4A 7740   1.233   1.239   7.048 -0.3117  0.0597 -1.6104
   72CHL1   H4B 7741   1.146   1.354   6.957 -0.6235 -1.0355 -1.3714
   72CHL1    C5 7742   1.069   1.306   7.162 -0.3194  0.8913  0.1545
   72CHL1    C6 7743   1.033   1.434   7.195 -0.0781  0.9035  0.3723
   72CHL1    H6 7744   1.056   1.509   7.117 -3.6735  1.2728 -0.5144
   72CHL1    C7 7745   0.990   1.476   7.327 -0.2322 -0.4524 -0.4736
   72CHL1   H7A 7746   1.048   1.566   7.355 -1.7755  0.4239  0.0539
   72CHL1   H7B 7747   0.883   1.507   7.318 -0.5832 -0.9624  1.4116
   72CHL1    C8 7748   1.004   1.369   7.436  0.9000  0.3048 -0.0239
   72CHL1    H8 7749   1.109   1.364   7.470  1.6001  1.4125 -1.9007
   72CHL1   C14 7750   0.912   1.404   7.555 -0.3988  0.3226 -0.9610
   72CHL1   H14 7751   0.807   1.396   7.520 -0.9324 -2.3565  0.8793
   72CHL1   C15 7752   0.937   1.543   7.621  0.2824  0.1978  0.3599
   72CHL1  H15A 7753   1.043   1.573   7.637  0.9603 -2.3419  1.0766
   72CHL1  H15B 7754   0.894   1.629   7.565  1.0833  0.9230  0.8335
   72CHL1   C16 7755   0.860   1.528   7.754 -0.5842  0.0521 -1.2779
   72CHL1  H16A 7756   0.926   1.563   7.836 -0.8687 -0.4964 -0.7957
   72CHL1  H16B 7757   0.761   1.579   7.756  0.0430  1.2732  0.0028
   72CHL1   C17 7758   0.816   1.378   7.773  0.6545  0.4532 -0.3381
   72CHL1   H17 7759   0.712   1.370   7.736  0.0960  1.9103  0.8253
   72CHL1   C13 7760   0.918   1.309   7.676 -0.1366  0.4680  0.3987
   72CHL1   C18 7761   1.062   1.301   7.736  0.0911 -0.1698 -0.4759
   72CHL1  H18A 7762   1.128   1.295   7.647 -2.0852 -0.9091 -2.1002
   72CHL1  H18B 7763   1.088   1.392   7.796  0.1565  1.0545 -2.2781
   72CHL1  H18C 7764   1.078   1.213   7.802  1.2265  0.6172  0.3478
   72CHL1   C12 7765   0.858   1.178   7.612 -0.4265  0.3020 -0.8259
   72CHL1  H12A 7766   0.868   1.106   7.696  1.4877  0.7386 -0.6330
   72CHL1  H12B 7767   0.750   1.195   7.590  0.1766  1.8768 -2.8458
   72CHL1   C11 7768   0.939   1.124   7.490 -0.3975 -0.3251  0.2312
   72CHL1  H11A 7769   1.033   1.088   7.537 -1.5451 -0.4855  2.5043
   72CHL1  H11B 7770   0.886   1.034   7.452 -1.3939 -0.0192  0.8618
   72CHL1    C9 7771   0.960   1.232   7.380 -0.3028  0.1374 -0.7799
   72CHL1    H9 7772   0.858   1.245   7.338 -0.4025  0.0977 -0.5480
   72CHL1   C10 7773   1.048   1.183   7.259  0.7971 -0.7480  0.5420
   72CHL1   C19 7774   1.186   1.119   7.299  0.6173  0.3436 -0.0006
   72CHL1  H19A 7775   1.166   1.013   7.325 -2.2663  0.7087 -0.4177
   72CHL1  H19B 7776   1.254   1.114   7.211  0.0389  0.9007 -0.4921
   72CHL1  H19C 7777   1.234   1.178   7.380 -1.8997 -0.9820  2.6193
   72CHL1    C1 7778   0.977   1.068   7.176 -0.0933  0.1732 -0.2933
   72CHL1   H1A 7779   0.963   0.984   7.247 -3.6554  2.2540  1.7950
   72CHL1   H1B 7780   0.871   1.100   7.163 -0.1383  1.2376  2.1032
   72CHL1    C2 7781   1.045   1.039   7.034 -0.3589  0.3415 -0.8581
   72CHL1   H2A 7782   0.995   0.957   6.978  0.6801  0.4286 -1.9495
   72CHL1   H2B 7783   1.150   1.007   7.048 -0.7245  0.1650  2.5347
   72CHL1   C20 7784   0.821   1.333   7.919  0.6279 -0.0545  0.1996
   72CHL1   H20 7785   0.924   1.342   7.959  0.1419  2.3177  1.0676
   72CHL1   C21 7786   0.759   1.196   7.933  0.2034  0.5734  0.1695
   72CHL1  H21A 7787   0.812   1.112   7.883  0.0427  0.1044  0.7664
   72CHL1  H21B 7788   0.654   1.199   7.898  0.7787  0.8674 -1.6066
   72CHL1  H21C 7789   0.765   1.165   8.040  0.2739  2.5844  0.7963
   72CHL1   C22 7790   0.744   1.436   8.011  0.6350  0.6806  0.2710
   72CHL1  H22A 7791   0.817   1.518   8.028  2.4217 -0.9204  0.7586
   72CHL1  H22B 7792   0.646   1.468   7.970  0.0700  0.6110  1.5087
   72CHL1   C23 7793   0.719   1.391   8.158  0.7816  0.0648  0.0132
   72CHL1  H23A 7794   0.631   1.324   8.167  0.8524 -0.1864 -1.0501
   72CHL1  H23B 7795   0.811   1.333   8.183  0.4545 -0.2805  0.4392
   72CHL1   C24 7796   0.688   1.513   8.251 -0.4117 -0.1736  0.4186
   72CHL1  H24A 7797   0.778   1.575   8.270 -1.1009  0.7188  0.8499
   72CHL1  H24B 7798   0.608   1.570   8.200 -0.2709 -1.0639 -0.8353
   72CHL1   C25 7799   0.657   1.467   8.391  0.7441 -0.1568 -0.8459
   72CHL1   H25 7800   0.582   1.386   8.374 -2.4562  2.3266  0.3966
   72CHL1   C26 7801   0.781   1.426   8.466 -0.2904 -0.1901  0.8667
   72CHL1  H26A 7802   0.800   1.322   8.433 -4.1892  0.0590 -2.9881
   72CHL1  H26B 7803   0.871   1.479   8.427  0.5289 -1.4076  1.0255
   72CHL1  H26C 7804   0.772   1.436   8.576  0.4188  0.1001  0.9049
   72CHL1   C27 7805   0.582   1.570   8.474  0.1317 -0.5536 -0.2876
   72CHL1  H27A 7806   0.653   1.654   8.491  0.6064 -0.7909 -1.0340
   72CHL1  H27B 7807   0.501   1.622   8.419 -0.3320  0.4665  1.2746
   72CHL1  H27C 7808   0.525   1.531   8.561 -3.7234  0.8052 -1.9816
   73CHL1    C3 7809   4.834   4.157   6.913  0.4222 -1.0846 -0.2349
   73CHL1    H3 7810   4.943   4.169   6.900  0.4347 -2.0820 -1.3387
   73CHL1    O3 7811   4.772   4.184   6.788 -0.2733 -0.5159 -0.1092
   73CHL1   H3' 7812   4.719   4.263   6.801  1.0673  0.2690  0.8043
   73CHL1    C4 7813   4.814   4.010   6.953  0.5073 -1.1383 -0.1493
   73CHL1   H4A 7814   4.707   4.007   6.982  0.3846  1.3007 -0.1559
   73CHL1   H4B 7815   4.843   3.952   6.863  2.6954  1.8524 -1.5696
   73CHL1    C5 7816   4.891   3.978   7.078  0.7969 -0.4897 -0.0087
   73CHL1    C6 7817   5.000   3.895   7.070  1.0951 -1.3006  0.1359
   73CHL1    H6 7818   5.010   3.833   6.979 -0.5350  1.1561 -1.8838
   73CHL1    C7 7819   5.096   3.864   7.180  0.4604 -0.0043  0.0384
   73CHL1   H7A 7820   5.111   3.755   7.186 -1.9164 -0.3607  0.6843
   73CHL1   H7B 7821   5.195   3.911   7.165  1.5765 -1.8513  1.2832
   73CHL1    C8 7822   5.039   3.919   7.313  0.0800  0.4722  0.5986
   73CHL1    H8 7823   4.962   3.849   7.351  0.7736  0.5263  2.1902
   73CHL1   C14 7824   5.154   3.924   7.427  0.2587 -0.0491 -0.6334
   73CHL1   H14 7825   5.232   3.991   7.385  1.1958  0.5809  1.9289
   73CHL1   C15 7826   5.214   3.788   7.455  0.0156  0.3928 -0.7123
   73CHL1  H15A 7827   5.141   3.711   7.486 -2.7749  1.5848 -3.7950
   73CHL1  H15B 7828   5.278   3.741   7.377  0.8916 -0.6079  0.5367
   73CHL1   C16 7829   5.292   3.818   7.582  0.1131  0.0900  0.2579
   73CHL1  H16A 7830   5.281   3.738   7.658  2.6739 -0.1916  0.4469
   73CHL1  H16B 7831   5.402   3.824   7.566  0.2102  2.0551  1.3002
   73CHL1   C17 7832   5.243   3.951   7.639  0.3420  0.4800  0.0518
   73CHL1   H17 7833   5.319   4.021   7.599  1.4173 -0.1304  0.9680
   73CHL1   C13 7834   5.115   3.985   7.559 -0.0855  0.1044 -0.2389
   73CHL1   C18 7835   5.004   3.903   7.637  0.9202 -0.2101  0.2073
   73CHL1  H18A 7836   4.910   3.911   7.579  0.3432  0.0038  1.1536
   73CHL1  H18B 7837   5.042   3.799   7.646 -0.5857 -0.7322  0.8238
   73CHL1  H18C 7838   4.985   3.947   7.737  2.0333  1.6188 -0.3419
   73CHL1   C12 7839   5.075   4.132   7.539 -0.3547  0.6379 -0.5460
   73CHL1  H12A 7840   5.048   4.178   7.636 -1.4869  0.3013 -0.6874
   73CHL1  H12B 7841   5.170   4.178   7.505 -0.5548  1.9569  0.5896
   73CHL1   C11 7842   4.959   4.137   7.435 -0.1867  0.6409  0.1535
   73CHL1  H11A 7843   4.865   4.092   7.474 -0.0246 -0.4119 -0.6500
   73CHL1  H11B 7844   4.946   4.246   7.417 -0.9502  0.3527 -1.1066
   73CHL1    C9 7845   4.984   4.067   7.295 -0.9721 -0.1286  0.5572
   73CHL1    H9 7846   5.069   4.126   7.255 -0.5928 -0.0182  1.5026
   73CHL1   C10 7847   4.866   4.071   7.199  0.3085  0.2682  1.0531
   73CHL1   C19 7848   4.740   4.009   7.265  0.1103  0.0376  0.5558
   73CHL1  H19A 7849   4.717   4.067   7.357 -0.1360 -0.9619  1.1336
   73CHL1  H19B 7850   4.653   4.006   7.196  0.0398  1.2214  0.5749
   73CHL1  H19C 7851   4.754   3.904   7.299  2.5285 -0.3811 -1.4319
   73CHL1    C1 7852   4.847   4.214   7.154  0.0889  0.1893 -0.9287
   73CHL1   H1A 7853   4.798   4.283   7.227 -1.1168  0.5344 -2.0391
   73CHL1   H1B 7854   4.952   4.247   7.143  1.0079 -2.4742 -0.7810
   73CHL1    C2 7855   4.783   4.246   7.027  0.6602 -0.2477  0.6052
   73CHL1   H2A 7856   4.793   4.354   7.000 -0.5173 -0.4062 -0.6048
   73CHL1   H2B 7857   4.673   4.228   7.027  0.9170 -2.8048 -2.7822
   73CHL1   C20 7858   5.253   3.965   7.791  0.1345 -0.5180 -0.2186
   73CHL1   H20 7859   5.185   3.884   7.826  0.6723 -0.9156 -0.0685
   73CHL1   C21 7860   5.207   4.101   7.846 -0.3872 -0.1483 -0.2186
   73CHL1  H21A 7861   5.101   4.116   7.820  0.5899  2.4904 -3.3299
   73CHL1  H21B 7862   5.250   4.195   7.807 -3.3569  1.4026 -0.0077
   73CHL1  H21C 7863   5.227   4.095   7.955 -1.1357 -1.3777 -0.1329
   73CHL1   C22 7864   5.396   3.926   7.837 -0.2706  0.0060 -0.5209
   73CHL1  H22A 7865   5.409   3.820   7.808 -1.9030 -0.4186  0.1537
   73CHL1  H22B 7866   5.475   3.978   7.780 -0.0804  0.9987  0.6190
   73CHL1   C23 7867   5.443   3.938   7.983  0.4399  0.3513 -0.5658
   73CHL1  H23A 7868   5.429   4.039   8.026 -0.6904  0.3832 -0.9660
   73CHL1  H23B 7869   5.373   3.885   8.051 -0.0959 -0.0773 -1.4274
   73CHL1   C24 7870   5.584   3.899   8.010 -0.5886  0.4540  0.0934
   73CHL1  H24A 7871   5.595   3.793   7.976 -0.2881  0.8025 -0.9431
   73CHL1  H24B 7872   5.650   3.962   7.946  1.2022  0.2245  1.5989
   73CHL1   C25 7873   5.635   3.922   8.155  0.0555  0.1679  0.3930
   73CHL1   H25 7874   5.644   4.033   8.165  2.3665  0.2902 -1.9407
   73CHL1   C26 7875   5.534   3.866   8.266  0.8801 -0.3040  0.3308
   73CHL1  H26A 7876   5.499   3.767   8.229  1.3864 -0.0878 -0.7909
   73CHL1  H26B 7877   5.594   3.858   8.359  2.0627 -2.0063 -0.5170
   73CHL1  H26C 7878   5.450   3.938   8.279 -1.1378 -2.6321  0.9791
   73CHL1   C27 7879   5.778   3.858   8.167 -0.6073  0.6261 -0.3429
   73CHL1  H27A 7880   5.829   3.876   8.264  0.6258 -0.5011 -0.7552
   73CHL1  H27B 7881   5.780   3.749   8.148  0.2315  0.1563  2.0609
   73CHL1  H27C 7882   5.846   3.908   8.095 -0.5883  1.8295  0.4829
   74CHL1    C3 7883   5.188   2.527   6.816  1.0412 -0.1014 -0.1380
   74CHL1    H3 7884   5.252   2.616   6.834  0.1544  0.3679  0.8419
   74CHL1    O3 7885   5.183   2.496   6.681  0.1861  0.0820 -0.1744
   74CHL1   H3' 7886   5.201   2.402   6.685 -1.6005 -0.2739  0.9529
   74CHL1    C4 7887   5.219   2.407   6.899  0.3086 -0.4217 -0.4003
   74CHL1   H4A 7888   5.156   2.320   6.874 -1.7026  0.6440  0.6727
   74CHL1   H4B 7889   5.324   2.381   6.874  0.9593 -0.2096  1.8842
   74CHL1    C5 7890   5.211   2.439   7.053  0.1906  0.0995 -0.5795
   74CHL1    C6 7891   5.308   2.422   7.138 -0.0067  0.3428 -0.7383
   74CHL1    H6 7892   5.405   2.393   7.095 -0.0251 -2.2868  0.7578
   74CHL1    C7 7893   5.296   2.440   7.291  0.5569 -0.2610  0.1789
   74CHL1   H7A 7894   5.335   2.356   7.352 -3.8605 -1.6860  1.3901
   74CHL1   H7B 7895   5.355   2.530   7.320 -0.8251  1.1789 -1.2002
   74CHL1    C8 7896   5.149   2.464   7.338 -0.1520 -0.6938  0.4996
   74CHL1    H8 7897   5.100   2.365   7.330  0.0056 -0.6635 -1.1971
   74CHL1   C14 7898   5.144   2.523   7.481  0.0758  0.2242  0.2994
   74CHL1   H14 7899   5.198   2.620   7.472  2.0578 -1.0223 -3.3408
   74CHL1   C15 7900   5.223   2.449   7.592 -0.1353  0.2382 -0.5213
   74CHL1  H15A 7901   5.193   2.343   7.579 -0.3013  0.3658 -1.2283
   74CHL1  H15B 7902   5.329   2.471   7.617 -0.3306 -0.0405  0.6154
   74CHL1   C16 7903   5.152   2.507   7.722 -0.0820 -0.6260  0.5101
   74CHL1  H16A 7904   5.110   2.429   7.789 -2.7663 -2.1484 -2.7153
   74CHL1  H16B 7905   5.226   2.566   7.781  0.0935 -0.6296  0.2926
   74CHL1   C17 7906   5.024   2.584   7.674 -0.0516  0.0682  0.3815
   74CHL1   H17 7907   5.046   2.692   7.668 -0.0640  0.0254 -0.5933
   74CHL1   C13 7908   5.001   2.538   7.526  0.5009 -1.4795 -0.4743
   74CHL1   C18 7909   4.917   2.404   7.525  0.2872 -0.1114  0.1874
   74CHL1  H18A 7910   4.880   2.376   7.424 -0.5311 -2.5318  1.0675
   74CHL1  H18B 7911   4.992   2.329   7.557  1.5612 -0.0875 -2.4486
   74CHL1  H18C 7912   4.827   2.401   7.590 -1.1849  0.0869 -1.7335
   74CHL1   C12 7913   4.927   2.643   7.436 -0.2829  0.4901 -0.0043
   74CHL1  H12A 7914   4.818   2.651   7.455  0.0305  3.2626  1.1689
   74CHL1  H12B 7915   4.973   2.744   7.448 -1.8889  1.2649 -0.1874
   74CHL1   C11 7916   4.932   2.595   7.292  0.6012 -0.3357  0.2231
   74CHL1  H11A 7917   4.862   2.509   7.291  0.1864 -0.0336 -2.1008
   74CHL1  H11B 7918   4.882   2.675   7.234 -1.5808 -3.0470 -1.9316
   74CHL1    C9 7919   5.074   2.558   7.242 -0.1914  0.0557  0.2042
   74CHL1    H9 7920   5.137   2.650   7.240 -1.4685  1.0254  1.7906
   74CHL1   C10 7921   5.078   2.498   7.094  0.0169 -0.0905 -0.7087
   74CHL1   C19 7922   4.982   2.392   7.077  0.0055 -0.1332 -0.4847
   74CHL1  H19A 7923   4.977   2.355   6.973  1.0656  0.3180 -0.6982
   74CHL1  H19B 7924   5.012   2.309   7.145  0.3340  0.0592 -0.3958
   74CHL1  H19C 7925   4.879   2.415   7.113 -0.6157 -3.3212  0.0932
   74CHL1    C1 7926   5.035   2.616   7.002  0.5854 -0.0310  0.2722
   74CHL1   H1A 7927   4.925   2.626   7.016 -0.1109 -1.5793 -3.1413
   74CHL1   H1B 7928   5.090   2.711   7.023  0.7363 -0.2067  0.6839
   74CHL1    C2 7929   5.057   2.589   6.851  0.3123 -0.5157  0.6325
   74CHL1   H2A 7930   5.012   2.653   6.772 -0.9350 -0.6776  1.1851
   74CHL1   H2B 7931   4.974   2.516   6.836 -1.7937  1.7742  0.5039
   74CHL1   C20 7932   4.902   2.569   7.774  0.2712  0.3091  0.1088
   74CHL1   H20 7933   4.869   2.466   7.796 -1.3357  0.7682  0.0081
   74CHL1   C21 7934   4.769   2.631   7.722 -0.6594 -0.5784  0.9407
   74CHL1  H21A 7935   4.791   2.732   7.682 -0.0480 -0.5747  1.2799
   74CHL1  H21B 7936   4.691   2.660   7.796  0.6962  2.5458  1.3066
   74CHL1  H21C 7937   4.726   2.570   7.640 -0.8424  1.8002 -0.8137
   74CHL1   C22 7938   4.933   2.632   7.912  0.0684 -0.3134  0.0301
   74CHL1  H22A 7939   5.031   2.602   7.953 -0.1374 -0.3111  0.5251
   74CHL1  H22B 7940   4.951   2.738   7.885  1.6986 -0.6058 -0.1114
   74CHL1   C23 7941   4.835   2.625   8.027  0.7356  0.3515  0.1617
   74CHL1  H23A 7942   4.744   2.688   8.014 -1.5233 -2.2561  2.0239
   74CHL1  H23B 7943   4.802   2.520   8.043  1.9234 -0.0809 -0.1914
   74CHL1   C24 7944   4.888   2.677   8.158 -1.0899 -0.6634 -0.4875
   74CHL1  H24A 7945   4.971   2.612   8.193  0.5859  2.2453  1.4206
   74CHL1  H24B 7946   4.919   2.784   8.156 -1.8625 -0.4246 -0.1858
   74CHL1   C25 7947   4.783   2.683   8.270 -0.8644  1.0650  0.1381
   74CHL1   H25 7948   4.725   2.588   8.274  0.1304  0.4564  2.8081
   74CHL1   C26 7949   4.843   2.709   8.406 -0.4592 -0.2790 -0.2053
   74CHL1  H26A 7950   4.928   2.638   8.418  0.0077  0.1251 -1.0272
   74CHL1  H26B 7951   4.886   2.811   8.401 -0.4725 -0.2586  0.0741
   74CHL1  H26C 7952   4.775   2.704   8.493 -0.5294 -1.1246 -0.3023
   74CHL1   C27 7953   4.686   2.799   8.249  0.4334  0.7994  0.2695
   74CHL1  H27A 7954   4.623   2.784   8.158  1.2975 -0.0749 -0.2034
   74CHL1  H27B 7955   4.622   2.794   8.340 -0.7017 -1.8106 -0.5664
   74CHL1  H27C 7956   4.742   2.894   8.249 -0.0524  1.0921  0.2696
   75CHL1    C3 7957   3.282   4.302   6.648  0.0721  0.6696 -0.4371
   75CHL1    H3 7958   3.390   4.279   6.641 -0.4511 -2.0969 -0.7084
   75CHL1    O3 7959   3.225   4.331   6.519 -0.3887  0.1788  0.4234
   75CHL1   H3' 7960   3.156   4.398   6.523 -0.7723  0.2449 -3.6297
   75CHL1    C4 7961   3.214   4.167   6.702 -0.1690 -0.1183 -0.2248
   75CHL1   H4A 7962   3.106   4.171   6.678  0.1610 -0.7911 -1.9276
   75CHL1   H4B 7963   3.242   4.088   6.630  1.2822  1.7107 -1.7876
   75CHL1    C5 7964   3.230   4.129   6.851  1.2624 -0.0302 -0.5533
   75CHL1    C6 7965   3.281   4.016   6.902 -0.3894 -0.0726 -0.4915
   75CHL1    H6 7966   3.300   3.939   6.825 -1.2077 -2.4289  1.5054
   75CHL1    C7 7967   3.302   3.967   7.047 -0.0344 -0.2217 -0.2002
   75CHL1   H7A 7968   3.251   3.869   7.057 -0.2563  0.1137  2.7601
   75CHL1   H7B 7969   3.411   3.952   7.061  0.4010  0.6975 -2.2890
   75CHL1    C8 7970   3.242   4.071   7.144  0.4875 -0.5238 -0.0927
   75CHL1    H8 7971   3.132   4.056   7.151  0.6916 -2.2745 -0.3575
   75CHL1   C14 7972   3.303   4.056   7.279 -0.3917 -0.5491  0.9197
   75CHL1   H14 7973   3.409   4.084   7.266 -0.9407  1.3461  0.2459
   75CHL1   C15 7974   3.298   3.913   7.334  0.2619  0.3496  0.3262
   75CHL1  H15A 7975   3.200   3.860   7.334  0.2926  0.2590 -1.4219
   75CHL1  H15B 7976   3.380   3.858   7.283 -0.9797 -1.6568  0.3662
   75CHL1   C16 7977   3.343   3.933   7.480 -0.4795 -0.5244 -0.3434
   75CHL1  H16A 7978   3.268   3.891   7.550 -2.2498  1.6550 -0.8024
   75CHL1  H16B 7979   3.443   3.887   7.492 -0.2393 -0.4869 -2.0185
   75CHL1   C17 7980   3.349   4.085   7.506  0.1311 -1.0271 -1.5728
   75CHL1   H17 7981   3.455   4.118   7.498 -0.1307  1.1102  1.5535
   75CHL1   C13 7982   3.266   4.145   7.386  0.8104 -0.5804 -0.1461
   75CHL1   C18 7983   3.115   4.136   7.430 -0.5546  0.5450  0.5782
   75CHL1  H18A 7984   3.091   4.216   7.503 -0.1560  3.4658 -2.2939
   75CHL1  H18B 7985   3.045   4.147   7.345 -2.2345 -2.2893  1.4234
   75CHL1  H18C 7986   3.088   4.030   7.450  0.6329 -0.4635 -2.5904
   75CHL1   C12 7987   3.303   4.290   7.339 -0.1611  0.0583 -0.5056
   75CHL1  H12A 7988   3.258   4.367   7.407 -0.9954 -0.7346 -0.1326
   75CHL1  H12B 7989   3.413   4.304   7.333 -0.2840  0.3754 -3.5214
   75CHL1   C11 7990   3.249   4.320   7.199  0.5529  0.9816 -0.0612
   75CHL1  H11A 7991   3.139   4.311   7.209  0.6119 -0.9726 -0.7497
   75CHL1  H11B 7992   3.280   4.418   7.155  1.1916  0.9168  0.2310
   75CHL1    C9 7993   3.275   4.215   7.094 -0.0726 -0.3857  0.5576
   75CHL1    H9 7994   3.385   4.224   7.082 -0.2311  1.8057  0.3095
   75CHL1   C10 7995   3.215   4.246   6.953  1.0434  0.1775  0.1149
   75CHL1   C19 7996   3.069   4.274   6.964  0.2034 -0.5711 -1.4629
   75CHL1  H19A 7997   3.059   4.372   7.014  1.8706 -1.4490  0.7693
   75CHL1  H19B 7998   3.026   4.283   6.862 -1.5782  0.9439 -0.6238
   75CHL1  H19C 7999   3.006   4.205   7.024 -3.1057  2.4610 -1.1791
   75CHL1    C1 8000   3.288   4.372   6.890 -0.0636 -0.4675  0.5912
   75CHL1   H1A 8001   3.267   4.466   6.946  2.8330  1.2980 -1.0142
   75CHL1   H1B 8002   3.398   4.367   6.894 -0.0559  0.1708  1.9195
   75CHL1    C2 8003   3.256   4.415   6.750 -0.5341  0.1818  0.2804
   75CHL1   H2A 8004   3.323   4.499   6.725  0.3363 -0.2419  1.1187
   75CHL1   H2B 8005   3.152   4.449   6.729 -0.9194 -1.1796 -0.1553
   75CHL1   C20 8006   3.311   4.128   7.652 -0.0843  0.1012  0.9802
   75CHL1   H20 8007   3.206   4.101   7.678 -0.1458 -1.0052 -0.3138
   75CHL1   C21 8008   3.338   4.278   7.666 -0.1482 -0.4613 -0.6869
   75CHL1  H21A 8009   3.239   4.318   7.634 -1.1243 -0.8094  1.6828
   75CHL1  H21B 8010   3.422   4.329   7.614  0.9080  0.7131  2.0048
   75CHL1  H21C 8011   3.342   4.308   7.773  0.7143  0.7321 -1.0368
   75CHL1   C22 8012   3.398   4.043   7.743  0.3684 -0.1903 -0.2810
   75CHL1  H22A 8013   3.373   4.057   7.850  4.6507 -0.8946  0.9853
   75CHL1  H22B 8014   3.383   3.934   7.727  1.2586 -0.1910 -1.2760
   75CHL1   C23 8015   3.552   4.067   7.747 -0.0627  0.6386 -0.0003
   75CHL1  H23A 8016   3.591   3.973   7.792  1.3916 -0.1331 -2.6688
   75CHL1  H23B 8017   3.595   4.072   7.645  1.2128  0.3138  0.5049
   75CHL1   C24 8018   3.591   4.184   7.832  1.0809  0.2114 -0.0532
   75CHL1  H24A 8019   3.570   4.278   7.777 -0.7889 -0.5838 -0.7663
   75CHL1  H24B 8020   3.533   4.183   7.927 -0.3089  0.7990 -0.8782
   75CHL1   C25 8021   3.745   4.187   7.869 -0.2203 -0.5275  0.0672
   75CHL1   H25 8022   3.789   4.163   7.770  1.7207 -1.4203  1.0928
   75CHL1   C26 8023   3.797   4.326   7.904 -0.1808  0.0891  0.1991
   75CHL1  H26A 8024   3.771   4.396   7.822 -1.6607  1.0550  1.4260
   75CHL1  H26B 8025   3.755   4.374   7.995  2.6734 -2.7825  3.3359
   75CHL1  H26C 8026   3.907   4.316   7.912 -0.0552  1.5500  0.6361
   75CHL1   C27 8027   3.787   4.085   7.977 -0.9573 -0.0485 -0.0836
   75CHL1  H27A 8028   3.764   3.981   7.946 -1.9375  0.5216 -1.3343
   75CHL1  H27B 8029   3.898   4.088   7.976 -0.8254 -1.8156  2.0115
   75CHL1  H27C 8030   3.747   4.097   8.080 -1.4739  1.3867 -0.4196
   76CHL1    C3 8031   1.207   6.567   7.114  0.5739  0.0638 -0.1788
   76CHL1    H3 8032   1.201   6.673   7.145 -0.8549 -0.3829  1.2245
   76CHL1    O3 8033   1.201   6.546   6.971  0.2321  0.9691  0.0401
   76CHL1   H3' 8034   1.285   6.575   6.935  0.0505 -0.6307 -1.8440
   76CHL1    C4 8035   1.337   6.504   7.169  0.2204 -0.1411  0.4522
   76CHL1   H4A 8036   1.330   6.398   7.135 -0.4712 -0.5347  1.7400
   76CHL1   H4B 8037   1.419   6.553   7.113  0.1305  0.6988  1.0273
   76CHL1    C5 8038   1.341   6.514   7.317 -0.4165 -0.1665 -0.1612
   76CHL1    C6 8039   1.439   6.581   7.373  0.5770 -0.2152 -0.7214
   76CHL1    H6 8040   1.510   6.625   7.302 -0.4109 -1.3347 -2.4733
   76CHL1    C7 8041   1.460   6.606   7.519  0.3375 -0.1151 -0.3394
   76CHL1   H7A 8042   1.568   6.599   7.545  0.1815 -0.7635  0.1723
   76CHL1   H7B 8043   1.430   6.710   7.545  1.0294  0.0596 -0.2268
   76CHL1    C8 8044   1.381   6.498   7.602  0.6736  0.0123  0.4993
   76CHL1    H8 8045   1.417   6.393   7.597 -0.2845 -0.3289  0.5095
   76CHL1   C14 8046   1.372   6.541   7.745  0.2208  0.3791  0.5585
   76CHL1   H14 8047   1.310   6.632   7.739 -0.8677 -0.3851 -0.3130
   76CHL1   C15 8048   1.507   6.584   7.813  0.2281  0.1800  0.9425
   76CHL1  H15A 8049   1.574   6.498   7.793 -1.1897 -0.8484  0.3554
   76CHL1  H15B 8050   1.559   6.673   7.773  0.8646 -0.4111  0.4310
   76CHL1   C16 8051   1.451   6.602   7.958 -0.2432 -0.0747 -0.1303
   76CHL1  H16A 8052   1.535   6.560   8.017  0.9721  1.6926 -0.5003
   76CHL1  H16B 8053   1.448   6.711   7.979  6.1774  0.7714 -1.3984
   76CHL1   C17 8054   1.315   6.534   7.968 -0.2941 -0.7037 -0.9874
   76CHL1   H17 8055   1.242   6.617   7.962  0.6587  0.2235 -0.1217
   76CHL1   C13 8056   1.288   6.450   7.841  0.0915 -0.5602 -0.3025
   76CHL1   C18 8057   1.357   6.308   7.849 -0.5400 -0.4239  0.6177
   76CHL1  H18A 8058   1.373   6.262   7.749  0.0442  0.0521  0.4814
   76CHL1  H18B 8059   1.450   6.312   7.910 -1.9829  2.4084  2.8706
   76CHL1  H18C 8060   1.293   6.247   7.915 -0.6201 -0.4540  0.5118
   76CHL1   C12 8061   1.149   6.453   7.783 -0.2274 -0.4679  0.4485
   76CHL1  H12A 8062   1.070   6.400   7.841  0.1191 -2.0614 -0.4907
   76CHL1  H12B 8063   1.107   6.555   7.768 -1.4003 -1.1516 -1.3300
   76CHL1   C11 8064   1.150   6.401   7.641  0.2504  0.3950 -0.5032
   76CHL1  H11A 8065   1.202   6.303   7.632  4.0798  2.1105  0.6821
   76CHL1  H11B 8066   1.049   6.397   7.596  0.3186  0.5191 -0.6706
   76CHL1    C9 8067   1.238   6.488   7.545  0.0477 -0.2355 -0.6561
   76CHL1    H9 8068   1.196   6.591   7.543 -0.0078 -0.2140  0.8031
   76CHL1   C10 8069   1.226   6.452   7.392 -0.5123 -0.5726 -0.4457
   76CHL1   C19 8070   1.240   6.296   7.378  0.1176  0.5459  0.4312
   76CHL1  H19A 8071   1.151   6.244   7.420  0.5434 -0.2492  0.3629
   76CHL1  H19B 8072   1.255   6.255   7.276 -3.3229 -0.2305  0.0948
   76CHL1  H19C 8073   1.321   6.271   7.449 -0.4680  1.8158  1.6000
   76CHL1    C1 8074   1.093   6.514   7.335 -0.0801  0.7340 -0.1732
   76CHL1   H1A 8075   1.002   6.467   7.377  0.1231  0.4016 -0.1000
   76CHL1   H1B 8076   1.092   6.622   7.365  0.2673  0.4854  0.7762
   76CHL1    C2 8077   1.083   6.492   7.179  0.0606  0.0061  0.2127
   76CHL1   H2A 8078   0.981   6.525   7.149  0.8608  2.0882 -0.4104
   76CHL1   H2B 8079   1.084   6.385   7.152  2.1257 -0.7240  2.7295
   76CHL1   C20 8080   1.301   6.460   8.107 -0.0848 -0.3121 -0.7698
   76CHL1   H20 8081   1.374   6.377   8.102 -0.4425 -0.6317 -0.7511
   76CHL1   C21 8082   1.159   6.397   8.129 -0.0969  0.1168  0.2662
   76CHL1  H21A 8083   1.176   6.318   8.205 -2.3522  1.4009  2.2137
   76CHL1  H21B 8084   1.110   6.349   8.041 -0.0351  0.9316 -0.2248
   76CHL1  H21C 8085   1.095   6.481   8.162  1.9357  2.7750 -2.0979
   76CHL1   C22 8086   1.324   6.557   8.226 -0.2778  0.0214 -0.3053
   76CHL1  H22A 8087   1.428   6.593   8.216 -0.1410 -0.0871  0.6920
   76CHL1  H22B 8088   1.251   6.641   8.222  0.5374  0.7550 -3.8186
   76CHL1   C23 8089   1.321   6.494   8.366  0.1173  0.4567 -0.2012
   76CHL1  H23A 8090   1.221   6.449   8.382  0.6425 -1.1791 -1.2432
   76CHL1  H23B 8091   1.393   6.413   8.390  0.6194  1.1582  0.7530
   76CHL1   C24 8092   1.352   6.600   8.475  0.1591  0.1376 -0.1288
   76CHL1  H24A 8093   1.282   6.682   8.450 -1.1731 -1.4188 -1.7703
   76CHL1  H24B 8094   1.327   6.559   8.575 -2.1172  0.9706 -0.2960
   76CHL1   C25 8095   1.496   6.658   8.478 -0.0541  0.2768  0.0270
   76CHL1   H25 8096   1.524   6.677   8.372  0.0833  1.5652  0.2740
   76CHL1   C26 8097   1.499   6.796   8.542 -0.0772 -0.0715 -1.0452
   76CHL1  H26A 8098   1.596   6.848   8.532  0.3520 -0.4871  0.7127
   76CHL1  H26B 8099   1.424   6.861   8.492 -1.3517 -1.3809 -0.9173
   76CHL1  H26C 8100   1.478   6.796   8.651  0.6848 -0.3345 -0.8945
   76CHL1   C27 8101   1.605   6.561   8.539 -0.5124 -0.2418 -0.7390
   76CHL1  H27A 8102   1.608   6.464   8.485 -1.3678 -1.2771  1.0131
   76CHL1  H27B 8103   1.710   6.598   8.546  1.1454 -4.5707  0.8045
   76CHL1  H27C 8104   1.574   6.539   8.643 -2.7615  1.8609 -0.8865
   77CHL1    C3 8105   0.530   1.263   6.739 -0.1624 -0.2467  0.1853
   77CHL1    H3 8106   0.433   1.211   6.731 -0.0720 -0.3774 -0.0803
   77CHL1    O3 8107   0.590   1.274   6.616  0.1009  0.0935 -0.1480
   77CHL1   H3' 8108   0.661   1.339   6.614  0.2216 -0.0459 -1.5426
   77CHL1    C4 8109   0.519   1.411   6.789 -0.5216  0.3036 -0.3292
   77CHL1   H4A 8110   0.621   1.455   6.781 -0.0514 -0.4511  1.2513
   77CHL1   H4B 8111   0.456   1.463   6.714 -0.6297  1.7768  0.7281
   77CHL1    C5 8112   0.472   1.434   6.930  0.7904 -0.6438 -0.4309
   77CHL1    C6 8113   0.370   1.513   6.954  0.7422 -0.1690 -0.3243
   77CHL1    H6 8114   0.323   1.575   6.876 -0.2510  0.4116  0.7003
   77CHL1    C7 8115   0.318   1.538   7.099  0.0846 -0.5050  0.0507
   77CHL1   H7A 8116   0.303   1.648   7.107  0.2071 -0.4084 -0.8975
   77CHL1   H7B 8117   0.216   1.502   7.122 -0.3455  0.5113 -0.2205
   77CHL1    C8 8118   0.419   1.485   7.209 -0.5570  0.3247 -0.2008
   77CHL1    H8 8119   0.507   1.552   7.214  0.2246 -0.4194 -2.7747
   77CHL1   C14 8120   0.342   1.476   7.346  0.2601 -0.0779 -0.0311
   77CHL1   H14 8121   0.260   1.402   7.332 -2.2970  2.8636 -2.0492
   77CHL1   C15 8122   0.274   1.602   7.397 -0.2976 -0.6045 -0.3814
   77CHL1  H15A 8123   0.335   1.693   7.378 -2.0646  0.6852 -0.1698
   77CHL1  H15B 8124   0.173   1.623   7.356 -0.2680  1.6956  0.5779
   77CHL1   C16 8125   0.244   1.573   7.544 -0.6300 -0.6214 -0.0740
   77CHL1  H16A 8126   0.287   1.655   7.606  0.2041 -1.3913  0.3996
   77CHL1  H16B 8127   0.135   1.569   7.560 -0.9571  0.2218 -1.8525
   77CHL1   C17 8128   0.317   1.441   7.569  0.4071  0.5118 -0.8465
   77CHL1   H17 8129   0.242   1.363   7.545  0.2201  0.0859  0.9335
   77CHL1   C13 8130   0.422   1.420   7.462  0.3193  0.4556  0.7906
   77CHL1   C18 8131   0.546   1.502   7.492  0.5977 -0.3384 -0.3308
   77CHL1  H18A 8132   0.622   1.508   7.411  1.3562  0.9163  0.4426
   77CHL1  H18B 8133   0.521   1.606   7.520  0.0862 -0.3941 -0.5817
   77CHL1  H18C 8134   0.593   1.464   7.586  1.0937 -2.7802 -1.4903
   77CHL1   C12 8135   0.454   1.273   7.413  0.1945 -0.0767 -0.2714
   77CHL1  H12A 8136   0.514   1.211   7.481  1.7219 -0.4538 -1.8865
   77CHL1  H12B 8137   0.366   1.210   7.386  0.9534 -0.3873 -2.2345
   77CHL1   C11 8138   0.538   1.275   7.286  0.3366 -0.1147  0.3125
   77CHL1  H11A 8139   0.633   1.328   7.307  0.5717 -0.6222  0.5386
   77CHL1  H11B 8140   0.565   1.174   7.249 -0.3855 -0.5061  0.8249
   77CHL1    C9 8141   0.473   1.350   7.171  0.0880 -0.2893  0.6978
   77CHL1    H9 8142   0.387   1.288   7.140  1.8383 -2.4957 -0.0165
   77CHL1   C10 8143   0.546   1.349   7.033 -0.2417 -0.5108 -0.5706
   77CHL1   C19 8144   0.689   1.410   7.058 -0.6647  0.2051  0.1852
   77CHL1  H19A 8145   0.686   1.520   7.075  1.7808  0.4997 -0.9292
   77CHL1  H19B 8146   0.754   1.363   7.136  1.3988  2.6003  0.0464
   77CHL1  H19C 8147   0.743   1.406   6.961 -0.6825 -0.8814  0.2054
   77CHL1    C1 8148   0.563   1.202   6.976  0.9788 -0.6046  0.0200
   77CHL1   H1A 8149   0.644   1.155   7.036  1.5350  0.1924 -0.0928
   77CHL1   H1B 8150   0.470   1.144   6.994  0.2145  0.3246 -0.8498
   77CHL1    C2 8151   0.612   1.183   6.835 -0.3774 -0.3873 -0.7011
   77CHL1   H2A 8152   0.627   1.074   6.818  3.8525  0.0697 -0.8739
   77CHL1   H2B 8153   0.711   1.232   6.825 -1.2773  1.5264 -0.6126
   77CHL1   C20 8154   0.357   1.417   7.719  0.0006 -0.2138 -0.4178
   77CHL1   H20 8155   0.451   1.468   7.749  0.4378 -2.6741  3.0496
   77CHL1   C21 8156   0.376   1.267   7.744  0.1985 -0.7507 -0.3802
   77CHL1  H21A 8157   0.451   1.218   7.679  1.3314 -1.5550  1.4339
   77CHL1  H21B 8158   0.280   1.217   7.722 -0.7008  0.9364 -0.4483
   77CHL1  H21C 8159   0.401   1.251   7.852 -0.3337  0.3763 -0.0765
   77CHL1   C22 8160   0.264   1.496   7.820  0.7431 -0.0364  0.0631
   77CHL1  H22A 8161   0.270   1.606   7.808  0.9760  0.3232  2.8410
   77CHL1  H22B 8162   0.163   1.463   7.786  1.2450 -1.2756 -0.2607
   77CHL1   C23 8163   0.273   1.450   7.968 -0.4867  0.3181 -0.8658
   77CHL1  H23A 8164   0.253   1.341   7.972  3.8573 -0.6584 -0.7997
   77CHL1  H23B 8165   0.381   1.453   7.996  0.8984 -0.3704 -5.2595
   77CHL1   C24 8166   0.197   1.539   8.063 -0.0742  0.3741 -0.1901
   77CHL1  H24A 8167   0.260   1.624   8.096 -0.7284  0.2877  1.3713
   77CHL1  H24B 8168   0.100   1.573   8.022 -0.1222  0.5877  0.0961
   77CHL1   C25 8169   0.155   1.447   8.186 -0.7205 -0.4537  0.0324
   77CHL1   H25 8170   0.107   1.358   8.140  0.8676 -1.2794 -0.1049
   77CHL1   C26 8171   0.271   1.394   8.273 -0.1926 -0.9212  0.1512
   77CHL1  H26A 8172   0.341   1.475   8.303  1.0993 -2.1690  0.6575
   77CHL1  H26B 8173   0.242   1.322   8.352  2.6296 -0.4990  1.7219
   77CHL1  H26C 8174   0.333   1.324   8.213  0.8773 -0.5324  0.7765
   77CHL1   C27 8175   0.058   1.539   8.261 -0.0506 -0.2510  0.2754
   77CHL1  H27A 8176  -0.029   1.588   8.212 -1.7522  0.6511  3.8140
   77CHL1  H27B 8177   0.008   1.493   8.349 -3.7336 -0.5358 -1.7527
   77CHL1  H27C 8178   0.119   1.623   8.299  0.5500 -0.5716  0.0210
   78CHL1    C3 8179   2.361   4.860   6.670  0.6038  0.4280 -1.0318
   78CHL1    H3 8180   2.453   4.867   6.731 -1.1861 -0.1677  1.9363
   78CHL1    O3 8181   2.392   4.863   6.536 -0.8101 -0.1316  0.6925
   78CHL1   H3' 8182   2.329   4.927   6.502 -2.2188 -1.6249  0.4092
   78CHL1    C4 8183   2.296   4.720   6.688 -0.6840  0.0057  0.1650
   78CHL1   H4A 8184   2.207   4.732   6.623 -0.1907  1.7648 -0.2383
   78CHL1   H4B 8185   2.363   4.645   6.641 -1.9611 -1.1129  0.0568
   78CHL1    C5 8186   2.276   4.700   6.837  0.7856 -0.3461 -0.9830
   78CHL1    C6 8187   2.341   4.601   6.905  0.0036 -0.2350  0.3656
   78CHL1    H6 8188   2.394   4.525   6.847 -1.7240 -1.4950  0.3527
   78CHL1    C7 8189   2.329   4.575   7.050  0.5167 -0.1666  0.1156
   78CHL1   H7A 8190   2.321   4.466   7.071  0.0743  0.3800  3.3438
   78CHL1   H7B 8191   2.425   4.606   7.097 -0.1277  1.6148  0.3523
   78CHL1    C8 8192   2.213   4.646   7.120  0.3622 -0.8370  0.0972
   78CHL1    H8 8193   2.121   4.585   7.108 -0.3704 -0.1970  2.0591
   78CHL1   C14 8194   2.235   4.650   7.272  0.6622  0.2853 -0.3192
   78CHL1   H14 8195   2.330   4.706   7.282  1.0662 -0.6445  1.4951
   78CHL1   C15 8196   2.272   4.521   7.336  0.4301 -1.0696  0.7393
   78CHL1  H15A 8197   2.214   4.430   7.309 -0.8020  0.4278 -2.0679
   78CHL1  H15B 8198   2.381   4.499   7.328  0.3147 -1.1222 -1.2898
   78CHL1   C16 8199   2.241   4.566   7.483 -0.1467 -0.8088 -0.5943
   78CHL1  H16A 8200   2.165   4.493   7.517 -0.9073 -1.0360 -2.6211
   78CHL1  H16B 8201   2.332   4.560   7.547 -1.9778 -0.0387  2.2559
   78CHL1   C17 8202   2.187   4.705   7.499 -0.2431 -0.7755 -0.0955
   78CHL1   H17 8203   2.273   4.772   7.520 -0.8242 -0.2093  0.5456
   78CHL1   C13 8204   2.134   4.728   7.361  0.3252  0.0064  0.0003
   78CHL1   C18 8205   2.000   4.660   7.345 -0.7212  0.1540  0.1547
   78CHL1  H18A 8206   2.020   4.558   7.384 -1.1901 -0.2162 -0.5486
   78CHL1  H18B 8207   1.932   4.706   7.420  0.6405  1.2045  0.7842
   78CHL1  H18C 8208   1.959   4.651   7.242  0.2289  2.0800 -0.4226
   78CHL1   C12 8209   2.137   4.874   7.308 -0.0156  0.1357 -0.3163
   78CHL1  H12A 8210   2.069   4.943   7.363 -0.0851 -0.4544  0.3542
   78CHL1  H12B 8211   2.241   4.914   7.317  0.3333 -0.6957 -0.5491
   78CHL1   C11 8212   2.099   4.881   7.154  0.5670  0.2776  0.4830
   78CHL1  H11A 8213   1.991   4.856   7.143  0.7237 -0.1573 -0.0924
   78CHL1  H11B 8214   2.089   4.989   7.127  0.0186 -0.0664 -0.7775
   78CHL1    C9 8215   2.197   4.791   7.069  0.7618 -0.0397  0.0056
   78CHL1    H9 8216   2.299   4.830   7.091  1.9987 -2.6727 -0.7173
   78CHL1   C10 8217   2.188   4.811   6.910  0.4523  0.1371  0.3489
   78CHL1   C19 8218   2.038   4.792   6.872 -0.1293  0.1444  0.6084
   78CHL1  H19A 8219   2.004   4.687   6.886 -0.6531 -0.0695 -1.8275
   78CHL1  H19B 8220   1.973   4.865   6.924  1.2519  0.3115  2.2140
   78CHL1  H19C 8221   2.034   4.826   6.767  0.6435 -0.1679  0.4668
   78CHL1    C1 8222   2.234   4.957   6.869 -0.0437  0.6434  0.2515
   78CHL1   H1A 8223   2.158   5.029   6.906  0.6616  0.8706  1.3178
   78CHL1   H1B 8224   2.323   4.976   6.933 -0.4290 -0.3098  1.1003
   78CHL1    C2 8225   2.271   4.977   6.711 -0.0557  0.7644  0.3829
   78CHL1   H2A 8226   2.318   5.074   6.681  0.8362 -0.1109 -1.1951
   78CHL1   H2B 8227   2.173   4.974   6.659  0.8080  1.1730 -1.3587
   78CHL1   C20 8228   2.098   4.728   7.619 -0.2893  0.3600 -0.4688
   78CHL1   H20 8229   2.021   4.647   7.619  0.1371 -0.2199  3.0799
   78CHL1   C21 8230   2.038   4.868   7.612 -0.4544 -0.4553  0.0940
   78CHL1  H21A 8231   2.109   4.953   7.619 -1.1270  0.1561 -0.3136
   78CHL1  H21B 8232   1.969   4.874   7.699  1.7359  0.9013  1.8413
   78CHL1  H21C 8233   1.972   4.879   7.523 -0.3358  0.3006  0.0923
   78CHL1   C22 8234   2.168   4.694   7.757  0.4054  0.0858 -0.5885
   78CHL1  H22A 8235   2.205   4.589   7.757  2.4611  0.7057  2.1229
   78CHL1  H22B 8236   2.253   4.765   7.756 -0.8084  1.5941 -1.9245
   78CHL1   C23 8237   2.081   4.713   7.883  0.3012  0.2650  0.3608
   78CHL1  H23A 8238   2.133   4.730   7.980 -1.1177  2.0499  0.8817
   78CHL1  H23B 8239   2.022   4.808   7.879  1.5477  1.3462  3.9067
   78CHL1   C24 8240   1.972   4.607   7.889 -0.3549 -0.2361 -0.5687
   78CHL1  H24A 8241   1.900   4.629   7.807  1.6030  0.1937 -2.2457
   78CHL1  H24B 8242   2.012   4.505   7.871 -0.3930 -0.3907  0.1970
   78CHL1   C25 8243   1.889   4.616   8.026 -0.7502  0.1343 -0.2591
   78CHL1   H25 8244   1.876   4.724   8.048 -1.3367  0.5356 -2.3621
   78CHL1   C26 8245   1.759   4.545   8.003  0.2910 -0.0083  0.0680
   78CHL1  H26A 8246   1.775   4.440   7.969  1.5925  0.4562 -0.8406
   78CHL1  H26B 8247   1.697   4.547   8.095  0.5566 -0.0459  0.2510
   78CHL1  H26C 8248   1.706   4.600   7.922  2.2199  1.4458 -0.2900
   78CHL1   C27 8249   1.975   4.546   8.135 -0.1156 -0.1214 -0.2476
   78CHL1  H27A 8250   1.987   4.441   8.102 -0.4650 -1.0919  2.4654
   78CHL1  H27B 8251   2.071   4.601   8.141 -0.1653  0.0201 -0.6987
   78CHL1  H27C 8252   1.941   4.528   8.239  1.4823 -1.9455  0.0184
   79CHL1    C3 8253   6.826   6.090   6.991  0.1938  0.2792 -0.0522
   79CHL1    H3 8254   6.917   6.137   7.035 -0.0755  0.1247  0.6889
   79CHL1    O3 8255   6.842   6.083   6.851 -0.2649 -0.1158 -0.6341
   79CHL1   H3' 8256   6.754   6.057   6.823  0.1401  0.2322 -2.3099
   79CHL1    C4 8257   6.807   5.953   7.066  0.9018  0.0825  0.8936
   79CHL1   H4A 8258   6.716   5.898   7.032  2.4785 -2.0354 -0.1193
   79CHL1   H4B 8259   6.894   5.888   7.042  0.2039 -0.3739 -0.5345
   79CHL1    C5 8260   6.791   5.980   7.214 -0.3332 -0.0380  0.3497
   79CHL1    C6 8261   6.874   5.927   7.300  0.3433  0.3991 -0.0526
   79CHL1    H6 8262   6.948   5.856   7.263  1.2383  0.9750  0.5916
   79CHL1    C7 8263   6.855   5.929   7.449 -0.2596 -0.6364 -0.5045
   79CHL1   H7A 8264   6.857   5.827   7.495 -0.3044 -0.7295 -0.7086
   79CHL1   H7B 8265   6.943   5.990   7.478 -0.7983  0.4201 -1.0706
   79CHL1    C8 8266   6.731   6.001   7.490 -0.3905 -0.4044  0.0677
   79CHL1    H8 8267   6.645   5.931   7.492 -0.8985  0.2154  1.1802
   79CHL1   C14 8268   6.729   6.049   7.631 -0.3873  0.7671 -0.2749
   79CHL1   H14 8269   6.793   6.140   7.628 -1.1444  1.2778 -1.4369
   79CHL1   C15 8270   6.786   5.952   7.741  0.3090  0.0559  0.1197
   79CHL1  H15A 8271   6.746   5.849   7.730 -0.5835  0.5070 -1.0649
   79CHL1  H15B 8272   6.896   5.942   7.725 -0.1546 -1.4211 -2.7408
   79CHL1   C16 8273   6.748   6.015   7.869  0.1433 -0.0008 -0.0450
   79CHL1  H16A 8274   6.694   5.935   7.925 -0.3720 -0.5248 -1.2520
   79CHL1  H16B 8275   6.842   6.041   7.922 -0.2300  3.1983 -0.7424
   79CHL1   C17 8276   6.662   6.137   7.841  0.1223 -0.1519  0.5206
   79CHL1   H17 8277   6.739   6.217   7.839 -0.4522  0.3924 -0.6089
   79CHL1   C13 8278   6.605   6.119   7.690 -0.5385  0.8498 -0.2335
   79CHL1   C18 8279   6.483   6.019   7.685 -0.7228 -0.2801  0.3125
   79CHL1  H18A 8280   6.471   5.984   7.580 -1.4716  0.6999  0.0552
   79CHL1  H18B 8281   6.505   5.933   7.752  1.1529  1.5125  2.1457
   79CHL1  H18C 8282   6.396   6.085   7.705  0.4150  1.1420  0.6486
   79CHL1   C12 8283   6.582   6.249   7.603 -0.2218  0.5048 -0.0870
   79CHL1  H12A 8284   6.481   6.291   7.623 -0.7718 -0.8158  0.0161
   79CHL1  H12B 8285   6.661   6.324   7.624 -0.3032  0.9651 -1.3257
   79CHL1   C11 8286   6.577   6.209   7.450 -0.1852  0.4057  0.0535
   79CHL1  H11A 8287   6.479   6.157   7.438 -0.0556 -0.3139  1.8202
   79CHL1  H11B 8288   6.564   6.291   7.376  2.0010  1.1547  0.4262
   79CHL1    C9 8289   6.694   6.121   7.397  0.9381 -0.5150 -0.5078
   79CHL1    H9 8290   6.779   6.191   7.405  0.3410  0.1755 -0.0377
   79CHL1   C10 8291   6.680   6.079   7.250 -0.6443  0.4270 -0.1198
   79CHL1   C19 8292   6.550   6.003   7.220 -0.1289 -0.6971  0.7927
   79CHL1  H19A 8293   6.540   5.971   7.115 -0.2764 -0.9063  0.8691
   79CHL1  H19B 8294   6.536   5.910   7.279  0.8606 -0.5229  1.3322
   79CHL1  H19C 8295   6.465   6.073   7.236  0.8958  1.0958 -1.2581
   79CHL1    C1 8296   6.684   6.208   7.155  1.1721  0.1225 -0.1387
   79CHL1   H1A 8297   6.587   6.260   7.167  1.7361  1.0915  0.3499
   79CHL1   H1B 8298   6.755   6.278   7.204  1.3931  0.2999 -0.7061
   79CHL1    C2 8299   6.704   6.182   7.008 -0.3217  0.6126  0.0859
   79CHL1   H2A 8300   6.721   6.277   6.953  1.5380  0.0389 -0.3872
   79CHL1   H2B 8301   6.624   6.120   6.962  0.5345 -1.2384  0.9943
   79CHL1   C20 8302   6.555   6.171   7.952  0.4255 -0.1730 -0.0604
   79CHL1   H20 8303   6.480   6.089   7.950  0.1777  0.0583 -0.3024
   79CHL1   C21 8304   6.499   6.304   7.919  0.2706  0.3157  0.1906
   79CHL1  H21A 8305   6.439   6.307   7.825 -0.3623 -1.0338  0.5231
   79CHL1  H21B 8306   6.585   6.374   7.910  0.5934 -0.1053 -0.0553
   79CHL1  H21C 8307   6.437   6.343   8.002  1.2438  2.1408  0.1251
   79CHL1   C22 8308   6.609   6.174   8.094  0.5262 -0.0153  0.0873
   79CHL1  H22A 8309   6.524   6.160   8.163  0.0443  0.6597 -0.3587
   79CHL1  H22B 8310   6.671   6.082   8.098  1.0897  0.2471 -1.7401
   79CHL1   C23 8311   6.689   6.298   8.133  0.1249  0.7041  0.1405
   79CHL1  H23A 8312   6.763   6.300   8.050  0.0131  1.8365  0.0463
   79CHL1  H23B 8313   6.628   6.391   8.129 -1.2042 -0.0847  1.3285
   79CHL1   C24 8314   6.758   6.285   8.272  0.0295 -0.5666 -0.2924
   79CHL1  H24A 8315   6.835   6.205   8.262  0.2066 -0.4910  0.4327
   79CHL1  H24B 8316   6.814   6.379   8.290 -2.4272  0.6974  1.1937
   79CHL1   C25 8317   6.671   6.250   8.391 -0.3746  0.7482  0.5810
   79CHL1   H25 8318   6.589   6.182   8.358 -1.6767  1.2800  2.5605
   79CHL1   C26 8319   6.751   6.191   8.505  0.2468 -0.2539  0.1763
   79CHL1  H26A 8320   6.812   6.265   8.562 -2.4339  1.3494  1.1662
   79CHL1  H26B 8321   6.677   6.136   8.567 -0.0484  1.4206  1.3933
   79CHL1  H26C 8322   6.815   6.112   8.461  0.5401  0.8496 -1.5128
   79CHL1   C27 8323   6.598   6.378   8.435  0.1689 -0.3175  0.4284
   79CHL1  H27A 8324   6.513   6.346   8.499  1.2021  0.5971  2.3423
   79CHL1  H27B 8325   6.655   6.449   8.500 -1.8066  0.2703  1.6095
   79CHL1  H27C 8326   6.554   6.433   8.350 -2.8882 -0.4039  1.7939
   80CHL1    C3 8327   4.109   5.964   6.732  0.7102 -0.3994 -0.1080
   80CHL1    H3 8328   4.026   6.039   6.729  0.2370 -0.7543  2.3848
   80CHL1    O3 8329   4.103   5.918   6.596  0.5486  0.4317 -0.1517
   80CHL1   H3' 8330   4.164   5.844   6.595  0.3454  0.2454  0.4603
   80CHL1    C4 8331   4.245   6.025   6.753  0.6379  0.4039 -0.0354
   80CHL1   H4A 8332   4.319   5.943   6.742  0.7837  0.8267 -3.6010
   80CHL1   H4B 8333   4.270   6.092   6.667  2.0806 -1.2504 -0.9609
   80CHL1    C5 8334   4.261   6.083   6.896  0.1899 -0.0405  0.0468
   80CHL1    C6 8335   4.290   6.209   6.918 -0.1877  0.2664 -0.3673
   80CHL1    H6 8336   4.319   6.273   6.833 -1.3628 -0.3270 -1.2528
   80CHL1    C7 8337   4.309   6.269   7.055  0.2397  0.0004 -0.1953
   80CHL1   H7A 8338   4.405   6.321   7.038  0.6759 -1.2416 -1.7625
   80CHL1   H7B 8339   4.225   6.340   7.071  0.0600  0.0151 -1.1551
   80CHL1    C8 8340   4.314   6.165   7.171 -0.3676 -0.0223 -0.4142
   80CHL1    H8 8341   4.407   6.105   7.170 -1.0141 -1.4287  3.7665
   80CHL1   C14 8342   4.290   6.236   7.304  1.0049 -0.1096 -0.5402
   80CHL1   H14 8343   4.189   6.272   7.276  0.2285 -2.6618 -1.2239
   80CHL1   C15 8344   4.364   6.363   7.350 -0.8740 -0.4076  0.9964
   80CHL1  H15A 8345   4.467   6.370   7.309 -2.9499  2.0910 -4.8793
   80CHL1  H15B 8346   4.305   6.449   7.313  0.5924  0.3042  0.2295
   80CHL1   C16 8347   4.349   6.368   7.501 -0.1770 -0.2879 -0.5830
   80CHL1  H16A 8348   4.447   6.363   7.553 -0.5294 -1.3158  0.0127
   80CHL1  H16B 8349   4.294   6.459   7.534  3.9965  1.2895  3.0193
   80CHL1   C17 8350   4.250   6.250   7.541  0.1389  0.5987  0.5866
   80CHL1   H17 8351   4.147   6.279   7.513 -0.5080 -0.9982  1.2131
   80CHL1   C13 8352   4.275   6.148   7.434 -0.3185  0.4723  0.7767
   80CHL1   C18 8353   4.410   6.078   7.463 -0.1012 -0.6772  0.4292
   80CHL1  H18A 8354   4.480   6.164   7.478  0.5935 -0.5604 -2.8851
   80CHL1  H18B 8355   4.406   6.011   7.552 -1.3534 -2.4050 -0.8772
   80CHL1  H18C 8356   4.433   6.020   7.372 -2.4848  1.2175 -1.5094
   80CHL1   C12 8357   4.162   6.046   7.405  0.7791  0.0006 -0.2508
   80CHL1  H12A 8358   4.151   5.971   7.486  1.8147 -1.6376 -1.5629
   80CHL1  H12B 8359   4.068   6.105   7.395  0.1813 -1.0194 -0.7829
   80CHL1   C11 8360   4.188   5.965   7.275  0.0527  0.8624  0.0412
   80CHL1  H11A 8361   4.280   5.906   7.292  0.1435  1.0635  0.2596
   80CHL1  H11B 8362   4.106   5.896   7.245  0.2248  0.2949  0.8504
   80CHL1    C9 8363   4.209   6.050   7.151  0.0944 -0.1908  0.0963
   80CHL1    H9 8364   4.110   6.098   7.137 -1.3329 -2.3248  2.1745
   80CHL1   C10 8365   4.234   5.975   7.012  0.6691 -0.3565  0.8812
   80CHL1   C19 8366   4.346   5.878   7.014 -0.5879  0.3257 -0.1175
   80CHL1  H19A 8367   4.322   5.781   7.062 -0.5390  0.4880  0.2414
   80CHL1  H19B 8368   4.386   5.850   6.915 -0.6885 -0.5496  0.0807
   80CHL1  H19C 8369   4.437   5.919   7.064  0.0117 -0.3593 -0.6353
   80CHL1    C1 8370   4.101   5.902   6.977 -0.2727 -0.2687 -0.2125
   80CHL1   H1A 8371   4.089   5.810   7.039  0.2391 -0.7167 -0.7656
   80CHL1   H1B 8372   4.012   5.964   7.002  0.0712 -0.3472  1.3132
   80CHL1    C2 8373   4.094   5.851   6.833  0.0051  0.2225 -0.2334
   80CHL1   H2A 8374   3.998   5.800   6.812 -0.9312  0.2888  3.2171
   80CHL1   H2B 8375   4.179   5.781   6.823 -1.4283 -1.2162 -3.9420
   80CHL1   C20 8376   4.252   6.209   7.692  0.0609 -0.2716 -0.0029
   80CHL1   H20 8377   4.352   6.172   7.723  0.3731  0.4015 -0.1810
   80CHL1   C21 8378   4.133   6.123   7.733 -0.3961  0.1044  0.1795
   80CHL1  H21A 8379   4.111   6.101   7.840 -1.0840  1.4172  0.3278
   80CHL1  H21B 8380   4.156   6.026   7.684 -2.5602  0.7089 -2.2535
   80CHL1  H21C 8381   4.032   6.158   7.702  0.5746  1.0606 -2.1573
   80CHL1   C22 8382   4.240   6.333   7.793 -0.9079  0.2022  0.2612
   80CHL1  H22A 8383   4.308   6.418   7.772 -0.3454  0.1691  1.8303
   80CHL1  H22B 8384   4.137   6.374   7.784 -0.4943  1.4438  0.9960
   80CHL1   C23 8385   4.257   6.286   7.940 -0.5299  0.2392 -0.9226
   80CHL1  H23A 8386   4.181   6.212   7.976  0.6492 -0.4193  0.3469
   80CHL1  H23B 8387   4.356   6.239   7.960 -0.6967  0.1487 -0.2876
   80CHL1   C24 8388   4.254   6.408   8.036 -0.6954  0.6254  0.6812
   80CHL1  H24A 8389   4.347   6.465   8.017 -0.0677 -0.8497 -0.8966
   80CHL1  H24B 8390   4.171   6.471   7.998 -2.1002 -1.6185 -0.2019
   80CHL1   C25 8391   4.236   6.373   8.187 -0.1130 -0.4795 -0.4231
   80CHL1   H25 8392   4.292   6.282   8.216  0.4116  0.0506  0.2506
   80CHL1   C26 8393   4.288   6.481   8.285  0.3370  0.6117  0.0378
   80CHL1  H26A 8394   4.226   6.571   8.262 -1.6761 -0.5132  0.8640
   80CHL1  H26B 8395   4.258   6.446   8.386  0.5186 -1.4713 -0.5888
   80CHL1  H26C 8396   4.398   6.499   8.282  0.3260  0.6535 -0.1728
   80CHL1   C27 8397   4.089   6.345   8.222 -0.7194 -0.2557 -0.2304
   80CHL1  H27A 8398   4.059   6.317   8.326  0.9717 -2.2972 -0.2259
   80CHL1  H27B 8399   4.046   6.445   8.201  2.0658  0.7939 -1.4303
   80CHL1  H27C 8400   4.050   6.274   8.147 -1.3727  1.6967 -1.7997
   81CHL1    C3 8401   3.560   2.617   6.924  0.0166 -0.2301  0.3830
   81CHL1    H3 8402   3.622   2.703   6.957  0.5049 -0.2071 -0.5724
   81CHL1    O3 8403   3.584   2.597   6.788 -0.3355 -0.3789  0.0593
   81CHL1   H3' 8404   3.513   2.652   6.753 -0.7786 -0.5434  0.6784
   81CHL1    C4 8405   3.599   2.498   7.009 -0.3049 -0.0506  0.4423
   81CHL1   H4A 8406   3.536   2.409   6.988  1.0868 -1.3022  1.3484
   81CHL1   H4B 8407   3.697   2.449   6.990  0.5450  1.0553  1.8082
   81CHL1    C5 8408   3.574   2.514   7.154  0.6395  0.4121 -1.1824
   81CHL1    C6 8409   3.673   2.515   7.244 -0.4343  0.2433  0.6638
   81CHL1    H6 8410   3.766   2.474   7.203 -0.8953  0.1011 -0.2675
   81CHL1    C7 8411   3.668   2.526   7.389  0.3507  0.3622 -0.6330
   81CHL1   H7A 8412   3.718   2.440   7.439 -1.2863 -0.9547 -1.1642
   81CHL1   H7B 8413   3.715   2.621   7.423  2.7118 -1.3826  1.3989
   81CHL1    C8 8414   3.519   2.526   7.428  0.0905  0.2295 -0.3610
   81CHL1    H8 8415   3.479   2.424   7.443  0.7455  0.2105  1.6431
   81CHL1   C14 8416   3.504   2.583   7.569  0.0366  0.3487  0.0868
   81CHL1   H14 8417   3.537   2.689   7.567 -1.5923  0.8713 -0.9635
   81CHL1   C15 8418   3.585   2.504   7.676 -0.4621 -0.9876 -0.4728
   81CHL1  H15A 8419   3.578   2.394   7.669 -1.4985 -0.9337 -0.3927
   81CHL1  H15B 8420   3.694   2.527   7.667 -0.9766  1.7914 -0.5075
   81CHL1   C16 8421   3.530   2.557   7.806  0.2136 -0.0342  0.0110
   81CHL1  H16A 8422   3.498   2.465   7.860  0.7814 -1.6379 -2.2210
   81CHL1  H16B 8423   3.600   2.621   7.863  0.0106  1.3865 -1.2518
   81CHL1   C17 8424   3.401   2.638   7.780 -0.4352 -0.3510  0.3523
   81CHL1   H17 8425   3.425   2.744   7.755  0.5280 -0.8407 -0.8919
   81CHL1   C13 8426   3.359   2.595   7.633 -0.4221 -0.0191  0.0737
   81CHL1   C18 8427   3.296   2.461   7.644  0.2044  0.2948  0.2616
   81CHL1  H18A 8428   3.191   2.454   7.681  0.9775  0.8061  2.7290
   81CHL1  H18B 8429   3.300   2.403   7.550 -0.5045  0.2371  0.2603
   81CHL1  H18C 8430   3.347   2.396   7.718 -1.8710  0.1614  1.6680
   81CHL1   C12 8431   3.284   2.697   7.541  0.1064 -0.3129 -0.3068
   81CHL1  H12A 8432   3.176   2.714   7.563  0.0774 -1.0863  0.1846
   81CHL1  H12B 8433   3.330   2.798   7.539  2.4284 -1.3315 -1.5122
   81CHL1   C11 8434   3.281   2.634   7.404 -0.0074  0.0313  0.9430
   81CHL1  H11A 8435   3.233   2.534   7.404 -1.4531  0.7010  0.9649
   81CHL1  H11B 8436   3.216   2.693   7.336  1.5598  1.1896  0.4148
   81CHL1    C9 8437   3.424   2.610   7.338 -0.1868 -0.4602  0.5934
   81CHL1    H9 8438   3.471   2.710   7.327 -0.6334 -0.2596  0.4694
   81CHL1   C10 8439   3.433   2.558   7.195  0.5332  0.1478 -0.0329
   81CHL1   C19 8440   3.337   2.440   7.177  0.1169 -0.2223  0.1197
   81CHL1  H19A 8441   3.330   2.411   7.070 -0.0343  0.7798 -0.1550
   81CHL1  H19B 8442   3.364   2.348   7.234 -0.6252 -0.6458 -0.1928
   81CHL1  H19C 8443   3.230   2.456   7.204 -0.4563 -3.1213 -0.1202
   81CHL1    C1 8444   3.382   2.671   7.095 -0.1926 -0.0452 -0.2890
   81CHL1   H1A 8445   3.272   2.674   7.108 -0.1640 -0.1359 -0.0161
   81CHL1   H1B 8446   3.420   2.772   7.121 -0.2870  0.4435 -1.9268
   81CHL1    C2 8447   3.405   2.647   6.943 -0.3601  0.9510  0.1469
   81CHL1   H2A 8448   3.364   2.741   6.901 -1.8786  0.7775  1.1755
   81CHL1   H2B 8449   3.352   2.561   6.896  0.5409  0.1122  0.6063
   81CHL1   C20 8450   3.306   2.618   7.895  0.2082  0.4316 -0.0920
   81CHL1   H20 8451   3.284   2.509   7.900  1.5284  0.1618  0.2241
   81CHL1   C21 8452   3.184   2.714   7.869 -0.6711  0.4080  0.1947
   81CHL1  H21A 8453   3.217   2.815   7.837  0.2907 -0.3369 -1.2951
   81CHL1  H21B 8454   3.113   2.727   7.954 -3.0518  3.6409 -2.0047
   81CHL1  H21C 8455   3.134   2.662   7.784 -1.2735  3.5131 -1.5065
   81CHL1   C22 8456   3.373   2.658   8.028 -0.6606  0.0178 -0.0616
   81CHL1  H22A 8457   3.453   2.583   8.047 -2.0658 -1.6234 -0.3016
   81CHL1  H22B 8458   3.417   2.760   8.025 -1.7525  0.4846 -1.1664
   81CHL1   C23 8459   3.278   2.661   8.147 -0.2281 -1.0081 -0.0954
   81CHL1  H23A 8460   3.217   2.752   8.130 -1.9658 -2.3132 -1.1302
   81CHL1  H23B 8461   3.200   2.583   8.136 -4.0263  2.1363  1.9377
   81CHL1   C24 8462   3.345   2.635   8.282  0.2373  0.2666  0.3748
   81CHL1  H24A 8463   3.365   2.527   8.300 -2.0899  0.0858  2.4381
   81CHL1  H24B 8464   3.443   2.687   8.282  0.2225  0.3104 -0.6782
   81CHL1   C25 8465   3.262   2.663   8.407  0.7372 -0.1139  0.0823
   81CHL1   H25 8466   3.322   2.643   8.498 -0.7554  0.4669  1.2416
   81CHL1   C26 8467   3.204   2.806   8.416  0.0865 -0.7728  0.6027
   81CHL1  H26A 8468   3.137   2.832   8.501  0.1747 -1.4366  0.8788
   81CHL1  H26B 8469   3.289   2.877   8.427 -0.2779 -0.3044  0.4460
   81CHL1  H26C 8470   3.153   2.841   8.324  1.8475 -0.6552 -0.3810
   81CHL1   C27 8471   3.147   2.562   8.412 -1.4390  0.7179  0.3528
   81CHL1  H27A 8472   3.175   2.457   8.433 -1.4645  1.1763  3.0704
   81CHL1  H27B 8473   3.093   2.584   8.507 -0.0827 -2.9550  2.1452
   81CHL1  H27C 8474   3.086   2.569   8.320 -0.2322 -0.8336 -0.6061
   82CHL1    C3 8475   4.564   3.460   6.706 -0.6737 -0.1755  0.3678
   82CHL1    H3 8476   4.494   3.376   6.729 -0.1077 -0.8834 -0.4401
   82CHL1    O3 8477   4.604   3.462   6.570  0.0773  0.8023 -0.0433
   82CHL1   H3' 8478   4.570   3.544   6.534 -0.6714 -0.0965 -1.5171
   82CHL1    C4 8479   4.489   3.589   6.746 -0.1858 -0.2356 -0.6575
   82CHL1   H4A 8480   4.539   3.679   6.703  0.7135 -0.7740 -0.7566
   82CHL1   H4B 8481   4.388   3.593   6.700  0.1063  1.4307 -1.2238
   82CHL1    C5 8482   4.472   3.593   6.896 -0.0243 -1.1570  0.6147
   82CHL1    C6 8483   4.348   3.612   6.955 -0.4062  0.2787  0.3744
   82CHL1    H6 8484   4.256   3.628   6.897 -0.5152 -1.8233 -0.1258
   82CHL1    C7 8485   4.329   3.619   7.105  0.1007  0.2909  0.1721
   82CHL1   H7A 8486   4.271   3.711   7.128  0.3341  0.3123  0.6841
   82CHL1   H7B 8487   4.272   3.528   7.134 -1.0236  0.8869 -0.1409
   82CHL1    C8 8488   4.455   3.625   7.194  0.1007  0.0935  0.4636
   82CHL1    H8 8489   4.485   3.732   7.194  0.8765 -0.1244  0.5372
   82CHL1   C14 8490   4.430   3.589   7.342  0.0804 -0.1761  0.2554
   82CHL1   H14 8491   4.400   3.483   7.334 -1.3676  0.1483  0.9060
   82CHL1   C15 8492   4.322   3.675   7.414 -1.4545  0.1628 -0.9506
   82CHL1  H15A 8493   4.336   3.776   7.369 -2.4612 -0.4438 -2.7218
   82CHL1  H15B 8494   4.228   3.629   7.379 -1.4399 -0.0508 -0.7052
   82CHL1   C16 8495   4.363   3.647   7.571 -0.2802 -0.2800  0.8509
   82CHL1  H16A 8496   4.388   3.739   7.628 -0.2957  0.9606 -1.0508
   82CHL1  H16B 8497   4.283   3.589   7.622 -0.7694 -0.5836 -0.2291
   82CHL1   C17 8498   4.483   3.554   7.577  1.4515 -0.0383  0.0064
   82CHL1   H17 8499   4.449   3.448   7.567 -2.4843  1.0756 -0.1058
   82CHL1   C13 8500   4.554   3.579   7.438  0.3565  0.1091 -0.5776
   82CHL1   C18 8501   4.629   3.716   7.447  0.4452 -0.5631 -0.3160
   82CHL1  H18A 8502   4.671   3.743   7.546  0.0206  1.0100 -0.5339
   82CHL1  H18B 8503   4.708   3.726   7.370  2.1401 -3.1943  0.9112
   82CHL1  H18C 8504   4.552   3.790   7.416  2.0663  0.9264 -0.9251
   82CHL1   C12 8505   4.645   3.469   7.376 -0.3431  0.5548 -0.5620
   82CHL1  H12A 8506   4.739   3.443   7.427 -0.2546 -0.5558 -1.2586
   82CHL1  H12B 8507   4.576   3.383   7.363 -2.1077  1.9399 -0.8335
   82CHL1   C11 8508   4.694   3.512   7.233  0.6471  0.3668  0.2391
   82CHL1  H11A 8509   4.762   3.599   7.246  0.6713  0.0891  2.2870
   82CHL1  H11B 8510   4.752   3.424   7.197 -0.8018  0.0743 -1.5380
   82CHL1    C9 8511   4.575   3.540   7.134 -0.5471 -0.5759 -0.5648
   82CHL1    H9 8512   4.531   3.438   7.126  0.7437 -1.1391 -0.6976
   82CHL1   C10 8513   4.602   3.563   6.980 -1.1953  0.0514 -0.5903
   82CHL1   C19 8514   4.675   3.692   6.976 -0.2237  0.0304  1.0118
   82CHL1  H19A 8515   4.710   3.733   6.879  0.1028  0.9744  1.5206
   82CHL1  H19B 8516   4.612   3.771   7.022 -0.7459 -0.0468  0.4424
   82CHL1  H19C 8517   4.777   3.682   7.019  1.1461  2.0927 -1.4762
   82CHL1    C1 8518   4.681   3.443   6.931 -0.0428  0.3826 -0.1249
   82CHL1   H1A 8519   4.783   3.440   6.974 -0.4278  1.3805  0.9247
   82CHL1   H1B 8520   4.625   3.348   6.945 -0.3176  0.2293 -2.1097
   82CHL1    C2 8521   4.693   3.439   6.779 -0.5515 -0.2443  0.3472
   82CHL1   H2A 8522   4.749   3.348   6.749  0.7162  0.7001 -0.1984
   82CHL1   H2B 8523   4.752   3.529   6.754  0.1901 -0.4984  1.1324
   82CHL1   C20 8524   4.557   3.560   7.715 -0.1515  0.5350  0.2953
   82CHL1   H20 8525   4.577   3.669   7.730  0.4487  0.1734  2.4037
   82CHL1   C21 8526   4.684   3.471   7.716  0.7017 -0.1612  0.0038
   82CHL1  H21A 8527   4.764   3.497   7.643  1.2207 -1.9476 -0.1043
   82CHL1  H21B 8528   4.651   3.367   7.697 -2.3481  1.1947 -3.0207
   82CHL1  H21C 8529   4.726   3.487   7.818 -2.1679  3.1262  0.8632
   82CHL1   C22 8530   4.461   3.525   7.837 -0.1364 -0.3165  0.2061
   82CHL1  H22A 8531   4.357   3.552   7.812 -0.0974 -0.3655 -0.0138
   82CHL1  H22B 8532   4.454   3.414   7.840  0.6512 -0.4075 -0.6173
   82CHL1   C23 8533   4.523   3.585   7.963  0.1561 -0.6286 -0.0040
   82CHL1  H23A 8534   4.609   3.518   7.986 -1.4986 -2.8544 -0.0063
   82CHL1  H23B 8535   4.555   3.688   7.935  2.0692 -0.6482  1.8308
   82CHL1   C24 8536   4.437   3.590   8.092 -0.7279  1.3391  0.6336
   82CHL1  H24A 8537   4.364   3.673   8.081 -2.4017 -0.0337  0.9495
   82CHL1  H24B 8538   4.378   3.496   8.093 -2.0204  2.0623 -1.3655
   82CHL1   C25 8539   4.508   3.584   8.229  0.0586 -0.0168 -0.2530
   82CHL1   H25 8540   4.573   3.495   8.211 -1.2766 -0.7179 -1.8323
   82CHL1   C26 8541   4.584   3.716   8.244 -0.8537 -0.0181  0.2014
   82CHL1  H26A 8542   4.513   3.799   8.262  1.0580  1.2974  2.0979
   82CHL1  H26B 8543   4.656   3.719   8.328  0.3098  2.6203 -0.7643
   82CHL1  H26C 8544   4.646   3.738   8.155 -0.0859 -2.6760 -0.0179
   82CHL1   C27 8545   4.412   3.544   8.342  0.9432 -0.9209  0.2567
   82CHL1  H27A 8546   4.393   3.435   8.344 -0.7773 -0.6678 -0.1871
   82CHL1  H27B 8547   4.443   3.551   8.448 -2.3693 -0.9970  1.3414
   82CHL1  H27C 8548   4.319   3.606   8.334  2.1326  0.7188 -1.7720
   83CHL1    C3 8549   2.905   0.598   6.863  0.1560  0.0067 -0.1008
   83CHL1    H3 8550   3.006   0.551   6.865  0.8004  1.2790 -1.3464
   83CHL1    O3 8551   2.877   0.624   6.734  0.2813  0.0219 -0.0044
   83CHL1   H3' 8552   2.798   0.677   6.733 -0.7087 -1.3352  1.6442
   83CHL1    C4 8553   2.794   0.504   6.917  0.0363  0.3787 -0.1746
   83CHL1   H4A 8554   2.695   0.542   6.886 -1.6841 -1.7619  2.2805
   83CHL1   H4B 8555   2.810   0.399   6.882 -1.7039 -0.0483  0.2302
   83CHL1    C5 8556   2.791   0.511   7.068  0.2920 -0.4866  0.1871
   83CHL1    C6 8557   2.779   0.392   7.130  0.8732 -1.1659 -1.1480
   83CHL1    H6 8558   2.772   0.295   7.079 -0.8046 -1.1564 -0.9768
   83CHL1    C7 8559   2.765   0.385   7.277 -0.1020  0.1672 -0.0592
   83CHL1   H7A 8560   2.690   0.311   7.312  0.7587 -0.2942  0.8785
   83CHL1   H7B 8561   2.867   0.352   7.308  0.8799  0.5319 -2.5736
   83CHL1    C8 8562   2.732   0.519   7.347 -0.2713  0.6503 -0.1237
   83CHL1    H8 8563   2.628   0.556   7.334 -1.1259 -0.9333  1.6660
   83CHL1   C14 8564   2.746   0.518   7.501  0.0027 -0.8769  0.0705
   83CHL1   H14 8565   2.853   0.499   7.522  0.2839  0.1559 -0.3415
   83CHL1   C15 8566   2.671   0.413   7.589  0.2366 -0.5259  1.1388
   83CHL1  H15A 8567   2.562   0.406   7.568  0.2049 -2.6411  1.7859
   83CHL1  H15B 8568   2.719   0.312   7.586  2.2202  0.3914  0.1074
   83CHL1   C16 8569   2.682   0.467   7.732  0.2077  0.5200 -0.9378
   83CHL1  H16A 8570   2.581   0.488   7.773  0.3186 -1.4244  0.4331
   83CHL1  H16B 8571   2.742   0.412   7.808  0.6693  0.7236 -1.1469
   83CHL1   C17 8572   2.750   0.606   7.721  0.4034 -0.4698 -0.2720
   83CHL1   H17 8573   2.859   0.582   7.720  0.0671 -2.2470  0.5566
   83CHL1   C13 8574   2.722   0.651   7.577  0.2308 -0.1682 -0.3479
   83CHL1   C18 8575   2.571   0.702   7.570  0.3971  0.2353 -0.1396
   83CHL1  H18A 8576   2.505   0.625   7.616  0.5787  0.4113  0.4150
   83CHL1  H18B 8577   2.562   0.799   7.622 -1.2538 -0.1157  0.2796
   83CHL1  H18C 8578   2.535   0.730   7.469  1.0655 -1.1504 -0.7930
   83CHL1   C12 8579   2.822   0.753   7.525 -0.4193  0.5073 -0.2656
   83CHL1  H12A 8580   2.804   0.853   7.570  1.4024  0.5182  0.5117
   83CHL1  H12B 8581   2.929   0.729   7.542 -0.0139  2.1168 -0.3607
   83CHL1   C11 8582   2.805   0.761   7.371 -0.2278  0.1608  0.0043
   83CHL1  H11A 8583   2.707   0.809   7.349  0.2071  1.1461  0.1813
   83CHL1  H11B 8584   2.872   0.841   7.332 -0.3827  0.1739 -0.2334
   83CHL1    C9 8585   2.822   0.627   7.292 -0.9236 -0.3374  0.0365
   83CHL1    H9 8586   2.925   0.591   7.311 -0.6529 -1.2250 -2.6810
   83CHL1   C10 8587   2.803   0.644   7.139 -0.0056 -0.4929 -0.1301
   83CHL1   C19 8588   2.671   0.725   7.114 -1.0637 -0.1135 -0.3085
   83CHL1  H19A 8589   2.676   0.827   7.159  0.4645 -0.6658  0.8775
   83CHL1  H19B 8590   2.651   0.726   7.005 -2.2846  0.2213 -0.0899
   83CHL1  H19C 8591   2.583   0.672   7.156  0.5385 -0.9620  2.2250
   83CHL1    C1 8592   2.930   0.709   7.081 -0.4762 -0.2106 -0.0463
   83CHL1   H1A 8593   2.955   0.802   7.136  0.9225 -0.4472 -0.2528
   83CHL1   H1B 8594   3.018   0.646   7.106  0.3670  0.9431 -0.0334
   83CHL1    C2 8595   2.917   0.735   6.934  0.2677  0.4523  0.2789
   83CHL1   H2A 8596   3.009   0.780   6.891  1.2240 -0.0799  1.7058
   83CHL1   H2B 8597   2.824   0.792   6.910 -0.3097 -1.0073 -1.1381
   83CHL1   C20 8598   2.714   0.697   7.844 -0.2969 -0.9865  0.1864
   83CHL1   H20 8599   2.607   0.725   7.830 -0.0605 -0.4550 -0.6298
   83CHL1   C21 8600   2.792   0.836   7.840 -0.0288 -0.1842  0.7056
   83CHL1  H21A 8601   2.896   0.808   7.817  0.0321 -0.8163  1.7044
   83CHL1  H21B 8602   2.782   0.907   7.925  0.1818  1.8815 -0.9131
   83CHL1  H21C 8603   2.745   0.883   7.751 -0.5319 -2.3719 -0.2307
   83CHL1   C22 8604   2.731   0.630   7.976 -0.0532  0.1439  0.3454
   83CHL1  H22A 8605   2.720   0.714   8.048  1.4173  0.8334 -0.1917
   83CHL1  H22B 8606   2.670   0.539   7.992  0.3088 -0.7604 -2.7373
   83CHL1   C23 8607   2.874   0.596   8.013  0.3407 -0.1858 -0.2152
   83CHL1  H23A 8608   2.908   0.511   7.950  0.3550 -1.1493  1.0624
   83CHL1  H23B 8609   2.934   0.688   7.997  0.1455 -0.1381 -0.6985
   83CHL1   C24 8610   2.873   0.561   8.169 -0.4309  0.5264  0.1385
   83CHL1  H24A 8611   2.805   0.619   8.236 -0.5329 -1.5334  1.9179
   83CHL1  H24B 8612   2.832   0.461   8.191  1.0016 -0.2434 -0.5943
   83CHL1   C25 8613   3.020   0.554   8.219  0.0070 -0.4752  0.3361
   83CHL1   H25 8614   3.081   0.638   8.181  1.6878 -1.2009  1.3164
   83CHL1   C26 8615   3.030   0.555   8.368  0.0118 -0.3132 -0.4366
   83CHL1  H26A 8616   3.133   0.545   8.408 -0.5741  0.3437  1.3271
   83CHL1  H26B 8617   2.973   0.645   8.399  0.4224  0.0941 -0.8444
   83CHL1  H26C 8618   2.974   0.467   8.407 -0.0466  0.5692  1.5790
   83CHL1   C27 8619   3.090   0.429   8.168  0.0458  0.2971  0.1095
   83CHL1  H27A 8620   3.042   0.336   8.207  0.9426 -0.1917  0.0826
   83CHL1  H27B 8621   3.083   0.427   8.057  0.4525 -1.2792  0.0820
   83CHL1  H27C 8622   3.198   0.428   8.193  0.3337  1.7185 -0.9577
   84CHL1    C3 8623   1.896   0.167   6.762 -0.2382  0.0475  0.2208
   84CHL1    H3 8624   1.798   0.115   6.754 -2.3761  3.7892 -0.2073
   84CHL1    O3 8625   1.967   0.160   6.638 -0.0409  0.4086  0.6518
   84CHL1   H3' 8626   2.017   0.241   6.628 -0.5191  0.7787  1.1855
   84CHL1    C4 8627   1.883   0.315   6.796  0.6303  0.0392 -0.2104
   84CHL1   H4A 8628   1.980   0.369   6.794  1.2692 -1.0552  0.2438
   84CHL1   H4B 8629   1.826   0.350   6.707 -1.6873 -0.6560  0.9067
   84CHL1    C5 8630   1.814   0.340   6.925 -0.6692 -0.4254 -0.1366
   84CHL1    C6 8631   1.697   0.397   6.928 -0.1497 -0.8546 -0.3931
   84CHL1    H6 8632   1.647   0.430   6.836 -0.8900  1.2846  0.6950
   84CHL1    C7 8633   1.628   0.450   7.054 -0.3813  0.3103  0.2744
   84CHL1   H7A 8634   1.600   0.557   7.048  1.5970  0.8514  0.0751
   84CHL1   H7B 8635   1.532   0.396   7.066  0.2737 -1.0771 -0.4973
   84CHL1    C8 8636   1.719   0.433   7.182 -0.3429  0.0074  0.1761
   84CHL1    H8 8637   1.790   0.519   7.174  2.6544 -2.3383 -0.4868
   84CHL1   C14 8638   1.638   0.420   7.310  0.5568 -0.7156  0.1978
   84CHL1   H14 8639   1.573   0.331   7.295  1.5671 -1.2070 -1.5425
   84CHL1   C15 8640   1.537   0.537   7.347  0.5559 -0.6032 -0.4295
   84CHL1  H15A 8641   1.599   0.628   7.330 -1.7698  1.0288 -0.6977
   84CHL1  H15B 8642   1.453   0.548   7.276 -0.1782  1.4143  0.6428
   84CHL1   C16 8643   1.503   0.528   7.493  0.3650  0.0486 -0.6363
   84CHL1  H16A 8644   1.498   0.625   7.546 -1.1855 -0.0673 -0.5309
   84CHL1  H16B 8645   1.399   0.492   7.484  0.2129  0.7701 -2.1171
   84CHL1   C17 8646   1.617   0.434   7.547 -0.3366 -0.1106 -0.4066
   84CHL1   H17 8647   1.563   0.337   7.554  0.5013 -0.4983  1.3515
   84CHL1   C13 8648   1.723   0.411   7.439  0.4284 -0.3019  0.3788
   84CHL1   C18 8649   1.829   0.532   7.443  0.3404  0.0231  0.5801
   84CHL1  H18A 8650   1.895   0.519   7.532 -0.3240 -0.7797  0.9656
   84CHL1  H18B 8651   1.896   0.536   7.355  0.0547 -1.7503  0.2609
   84CHL1  H18C 8652   1.784   0.633   7.455  1.0419  0.3639  0.4090
   84CHL1   C12 8653   1.785   0.269   7.440 -0.1462  0.3341  0.0236
   84CHL1  H12A 8654   1.849   0.255   7.529 -0.2128  2.4162  0.4456
   84CHL1  H12B 8655   1.704   0.194   7.435  1.3523 -1.3281 -0.4243
   84CHL1   C11 8656   1.881   0.257   7.314  0.5561 -0.2492  0.8110
   84CHL1  H11A 8657   1.970   0.322   7.327 -0.6354  1.1997  2.1888
   84CHL1  H11B 8658   1.920   0.153   7.308  1.4271  0.1305 -0.3785
   84CHL1    C9 8659   1.804   0.302   7.180  0.1634  0.4000  0.3403
   84CHL1    H9 8660   1.719   0.232   7.171  0.5219 -0.0114  0.1547
   84CHL1   C10 8661   1.888   0.284   7.050  0.7815  0.0862  0.7096
   84CHL1   C19 8662   2.022   0.363   7.079 -0.3060  0.7121 -0.1520
   84CHL1  H19A 8663   2.009   0.469   7.109  1.7096  1.6060 -2.1821
   84CHL1  H19B 8664   2.083   0.313   7.158 -0.9775  0.5065  0.2467
   84CHL1  H19C 8665   2.085   0.369   6.988  1.2516 -2.6550  0.5198
   84CHL1    C1 8666   1.907   0.128   7.011  0.4788  0.2126  0.6886
   84CHL1   H1A 8667   1.971   0.081   7.088  2.0319 -0.6789 -1.0533
   84CHL1   H1B 8668   1.813   0.069   7.017 -0.3602  1.4020 -0.1977
   84CHL1    C2 8669   1.988   0.110   6.879 -0.0571  0.2935  0.2200
   84CHL1   H2A 8670   1.991   0.001   6.859  1.2800 -0.0694  2.1352
   84CHL1   H2B 8671   2.092   0.147   6.877 -0.1450  0.5559  0.3625
   84CHL1   C20 8672   1.661   0.457   7.699  0.0267  0.0868  0.9067
   84CHL1   H20 8673   1.733   0.542   7.703  0.8226 -0.5126 -0.0965
   84CHL1   C21 8674   1.746   0.337   7.749 -0.2380  0.3603 -0.0352
   84CHL1  H21A 8675   1.701   0.242   7.711  1.4117  0.0970 -1.4233
   84CHL1  H21B 8676   1.742   0.338   7.860 -1.4962 -1.9456  0.0233
   84CHL1  H21C 8677   1.849   0.333   7.708 -0.4429 -1.3491 -0.4658
   84CHL1   C22 8678   1.537   0.479   7.799 -0.3014 -0.3199  0.0570
   84CHL1  H22A 8679   1.447   0.524   7.751  0.3921  0.8285 -0.1998
   84CHL1  H22B 8680   1.506   0.377   7.831 -1.9380  0.1293  0.0194
   84CHL1   C23 8681   1.567   0.565   7.926 -0.3792  0.0009 -0.0141
   84CHL1  H23A 8682   1.655   0.510   7.968 -0.4370 -0.8024 -0.9133
   84CHL1  H23B 8683   1.603   0.664   7.891  0.2473  0.4780  1.8244
   84CHL1   C24 8684   1.445   0.583   8.013  0.0882 -0.1682 -0.1972
   84CHL1  H24A 8685   1.372   0.656   7.973  1.2097  1.4870  0.6818
   84CHL1  H24B 8686   1.392   0.488   8.036  2.5453 -1.3764  0.9296
   84CHL1   C25 8687   1.491   0.649   8.156  0.3026 -0.1076  0.4752
   84CHL1   H25 8688   1.543   0.745   8.134 -0.0806  0.0925  0.4322
   84CHL1   C26 8689   1.367   0.673   8.241  0.1889  0.4989 -0.0209
   84CHL1  H26A 8690   1.313   0.581   8.274  1.2729 -0.4744 -0.8806
   84CHL1  H26B 8691   1.408   0.715   8.335 -1.4632 -1.1923  1.5562
   84CHL1  H26C 8692   1.305   0.752   8.194 -2.5496 -1.6368 -0.2821
   84CHL1   C27 8693   1.583   0.551   8.225  0.0536  0.1958 -0.2188
   84CHL1  H27A 8694   1.596   0.565   8.335  1.2728  0.4279 -0.3729
   84CHL1  H27B 8695   1.555   0.448   8.196  0.4320 -0.0388  0.2437
   84CHL1  H27C 8696   1.682   0.566   8.177 -0.1262  0.1194 -0.6081
   85CHL1    C3 8697   2.133   4.214   6.530 -0.2149  0.7245 -0.2443
   85CHL1    H3 8698   2.211   4.281   6.570  0.3819  0.0757 -0.3067
   85CHL1    O3 8699   2.142   4.202   6.392 -0.2485  0.0278  0.7699
   85CHL1   H3' 8700   2.075   4.139   6.363  0.7458  0.1893 -2.1075
   85CHL1    C4 8701   2.154   4.076   6.607  0.0320 -0.2606  0.1519
   85CHL1   H4A 8702   2.071   4.008   6.579  2.3356 -3.3360  0.3223
   85CHL1   H4B 8703   2.250   4.042   6.564 -0.4577  0.1344 -1.3254
   85CHL1    C5 8704   2.158   4.090   6.758  0.2599 -1.0090  0.7736
   85CHL1    C6 8705   2.268   4.050   6.827 -0.1235  0.0684 -0.4037
   85CHL1    H6 8706   2.356   4.000   6.785  1.0644  0.5474  1.4105
   85CHL1    C7 8707   2.266   4.068   6.976  0.2243 -0.4379 -0.0607
   85CHL1   H7A 8708   2.313   3.979   7.023 -0.5020 -0.5554  0.4622
   85CHL1   H7B 8709   2.333   4.151   7.008  2.5567 -2.1200 -0.3238
   85CHL1    C8 8710   2.133   4.099   7.038 -0.0126  0.9310  0.3487
   85CHL1    H8 8711   2.071   4.007   7.029  0.5110  0.5445  0.6344
   85CHL1   C14 8712   2.141   4.132   7.187 -0.2793 -0.4871 -0.0100
   85CHL1   H14 8713   2.209   4.220   7.193  0.1344 -0.8484  0.7727
   85CHL1   C15 8714   2.215   4.041   7.288 -0.0256  0.3772  0.1293
   85CHL1  H15A 8715   2.168   3.941   7.276 -0.2044  0.6870 -2.4987
   85CHL1  H15B 8716   2.324   4.032   7.268 -0.3365 -0.2880 -1.3973
   85CHL1   C16 8717   2.175   4.107   7.424  0.1712  0.1695  0.3188
   85CHL1  H16A 8718   2.169   4.045   7.516  1.0455  0.6756  0.7246
   85CHL1  H16B 8719   2.247   4.190   7.439  0.1222  0.1446  0.6862
   85CHL1   C17 8720   2.040   4.195   7.407 -0.2036  0.4356  0.2941
   85CHL1   H17 8721   2.067   4.302   7.415 -0.5754  0.4770  1.0964
   85CHL1   C13 8722   2.002   4.166   7.259 -0.6915 -0.3895  0.4622
   85CHL1   C18 8723   1.909   4.045   7.248 -0.4369  0.1875  0.6373
   85CHL1  H18A 8724   1.933   3.963   7.319 -0.4125  0.1081  0.5370
   85CHL1  H18B 8725   1.802   4.075   7.258 -0.7542 -0.7146  0.0680
   85CHL1  H18C 8726   1.913   3.994   7.149  3.8671  0.6377  0.3973
   85CHL1   C12 8727   1.958   4.292   7.183  0.3027 -1.1389  0.3012
   85CHL1  H12A 8728   1.861   4.337   7.215 -0.6201 -2.1260 -0.9931
   85CHL1  H12B 8729   2.045   4.360   7.188 -0.9769  0.4812  3.7262
   85CHL1   C11 8730   1.929   4.255   7.031  0.0174  0.4491 -0.0276
   85CHL1  H11A 8731   1.849   4.179   7.025  2.3518 -2.0320 -2.5997
   85CHL1  H11B 8732   1.893   4.350   6.987  0.9262 -0.2807 -2.4822
   85CHL1    C9 8733   2.058   4.206   6.960 -0.6564  0.4610  0.3122
   85CHL1    H9 8734   2.123   4.294   6.946 -0.0796 -0.2816 -2.3029
   85CHL1   C10 8735   2.030   4.165   6.804 -0.5692 -0.5353 -0.5102
   85CHL1   C19 8736   1.902   4.079   6.788  0.1794 -0.1312  0.1372
   85CHL1  H19A 8737   1.811   4.139   6.812  1.1526  1.5749 -0.2934
   85CHL1  H19B 8738   1.887   4.053   6.681 -0.9027 -1.3908  0.5603
   85CHL1  H19C 8739   1.910   3.987   6.848 -2.1734 -1.5088 -1.4922
   85CHL1    C1 8740   2.006   4.303   6.724 -0.4251  0.0944 -0.1323
   85CHL1   H1A 8741   1.913   4.349   6.765  0.3559  0.9418  0.7663
   85CHL1   H1B 8742   2.083   4.375   6.759  0.8501 -1.1934 -0.2124
   85CHL1    C2 8743   2.002   4.281   6.572  0.3000 -0.3406  0.0893
   85CHL1   H2A 8744   2.002   4.380   6.521  1.7515  0.2716  1.2038
   85CHL1   H2B 8745   1.909   4.230   6.539  1.3499 -0.2755 -3.4006
   85CHL1   C20 8746   1.931   4.176   7.518 -0.2322  0.1734 -0.1364
   85CHL1   H20 8747   1.893   4.072   7.520  0.1012  0.0551  0.0609
   85CHL1   C21 8748   1.818   4.278   7.503  0.0098 -0.0291  0.2110
   85CHL1  H21A 8749   1.858   4.382   7.497 -0.5272  0.2270  0.9683
   85CHL1  H21B 8750   1.743   4.269   7.584  2.6730 -1.3768  2.7518
   85CHL1  H21C 8751   1.757   4.259   7.412 -1.1743 -0.8224  1.1495
   85CHL1   C22 8752   1.986   4.186   7.665 -0.1458 -0.0310  0.9799
   85CHL1  H22A 8753   2.082   4.130   7.673  0.5358  0.8898 -0.3719
   85CHL1  H22B 8754   2.011   4.294   7.674 -1.5609  0.6933 -2.3759
   85CHL1   C23 8755   1.888   4.132   7.776 -0.1378 -0.2424  0.0566
   85CHL1  H23A 8756   1.801   4.198   7.796 -1.0797 -1.2985 -0.4141
   85CHL1  H23B 8757   1.827   4.047   7.738 -0.4818 -0.7436  1.6755
   85CHL1   C24 8758   1.947   4.113   7.920  0.2410  0.3013  0.6147
   85CHL1  H24A 8759   2.026   4.037   7.904  2.0522  1.8510  1.6803
   85CHL1  H24B 8760   2.003   4.207   7.939  0.5731  0.1324  0.4720
   85CHL1   C25 8761   1.844   4.078   8.031  0.1898 -0.8622 -0.0286
   85CHL1   H25 8762   1.765   4.155   8.013 -0.3628 -1.3212  0.4154
   85CHL1   C26 8763   1.766   3.948   8.029  0.4173 -0.1855  0.6035
   85CHL1  H26A 8764   1.749   3.904   7.929  1.6111  1.2711 -0.2772
   85CHL1  H26B 8765   1.825   3.868   8.080  0.2212 -0.2441  0.7409
   85CHL1  H26C 8766   1.673   3.954   8.089  0.0343 -0.4129  0.0380
   85CHL1   C27 8767   1.911   4.109   8.163  0.1156  0.4102 -0.0944
   85CHL1  H27A 8768   1.837   4.102   8.246 -0.2327 -0.5642 -0.4672
   85CHL1  H27B 8769   1.986   4.031   8.187 -0.0137 -0.4485 -2.2301
   85CHL1  H27C 8770   1.968   4.203   8.169  0.5251  0.1256  0.5616
   86CHL1    C3 8771   6.264   4.685   6.777  0.5074  0.4204 -0.5445
   86CHL1    H3 8772   6.370   4.707   6.753  0.2925 -0.6622 -2.7341
   86CHL1    O3 8773   6.199   4.705   6.653  0.3349 -0.6589 -0.4137
   86CHL1   H3' 8774   6.225   4.791   6.622 -1.8350 -0.3458 -1.5898
   86CHL1    C4 8775   6.238   4.543   6.830  0.6947 -0.1984 -0.5418
   86CHL1   H4A 8776   6.128   4.527   6.829  0.5852  0.1102  1.4947
   86CHL1   H4B 8777   6.293   4.485   6.754  0.1848 -0.3515 -0.7994
   86CHL1    C5 8778   6.289   4.511   6.967  0.0980  0.1968  0.6569
   86CHL1    C6 8779   6.370   4.408   6.988 -0.3965  0.4658  1.3087
   86CHL1    H6 8780   6.407   4.338   6.912  0.9778  2.0547  0.4328
   86CHL1    C7 8781   6.427   4.365   7.121 -0.6690 -0.0115  0.1258
   86CHL1   H7A 8782   6.422   4.255   7.137  1.8854 -0.3074 -0.7369
   86CHL1   H7B 8783   6.533   4.396   7.133 -0.6084 -0.6390  1.4040
   86CHL1    C8 8784   6.348   4.433   7.241 -1.4206  0.2220  0.1874
   86CHL1    H8 8785   6.256   4.377   7.266 -1.5731  1.0593  1.5686
   86CHL1   C14 8786   6.433   4.436   7.362 -0.0406 -0.3619 -0.3259
   86CHL1   H14 8787   6.505   4.518   7.341 -1.3851  0.9476 -0.0114
   86CHL1   C15 8788   6.508   4.311   7.398  0.0378 -0.1049 -0.0032
   86CHL1  H15A 8789   6.444   4.221   7.382 -0.4123  0.3045 -0.5851
   86CHL1  H15B 8790   6.598   4.291   7.336  0.2173 -0.4857  0.3780
   86CHL1   C16 8791   6.551   4.331   7.543 -0.1535 -0.0234  0.4667
   86CHL1  H16A 8792   6.521   4.243   7.604  0.1155  1.0281  2.1494
   86CHL1  H16B 8793   6.661   4.346   7.540 -0.0805 -0.5834  0.1868
   86CHL1   C17 8794   6.481   4.462   7.587 -0.2309 -0.4569 -0.3462
   86CHL1   H17 8795   6.553   4.542   7.558  0.5318 -1.2001 -0.5182
   86CHL1   C13 8796   6.362   4.489   7.489 -0.9728 -0.2120 -0.7599
   86CHL1   C18 8797   6.235   4.403   7.527  0.4952  0.4426 -0.3977
   86CHL1  H18A 8798   6.149   4.440   7.466 -0.6833 -0.5214  0.6366
   86CHL1  H18B 8799   6.253   4.297   7.498 -0.4413 -0.0800  0.8856
   86CHL1  H18C 8800   6.214   4.397   7.636 -0.8080 -1.2544 -0.7031
   86CHL1   C12 8801   6.318   4.645   7.467 -0.4991  0.7246  0.1215
   86CHL1  H12A 8802   6.272   4.690   7.557  1.9886  2.4874  0.6363
   86CHL1  H12B 8803   6.414   4.702   7.467  0.1706 -0.3601 -0.7647
   86CHL1   C11 8804   6.248   4.656   7.326 -0.8750  0.8442  0.1610
   86CHL1  H11A 8805   6.145   4.616   7.345 -0.6866  0.3510  0.1719
   86CHL1  H11B 8806   6.238   4.765   7.310 -0.8691  0.6060 -1.6309
   86CHL1    C9 8807   6.318   4.586   7.207  0.6299 -0.0135  0.5951
   86CHL1    H9 8808   6.413   4.641   7.189 -0.1518  1.4258  0.7506
   86CHL1   C10 8809   6.242   4.613   7.075 -0.3620 -0.2263  0.2081
   86CHL1   C19 8810   6.089   4.597   7.096 -0.1983 -0.8123 -0.3285
   86CHL1  H19A 8811   6.027   4.603   7.004  4.0493  0.5287 -3.4307
   86CHL1  H19B 8812   6.071   4.505   7.156  0.8269 -0.5503  0.3846
   86CHL1  H19C 8813   6.064   4.688   7.153  0.1268 -0.5119 -0.6646
   86CHL1    C1 8814   6.267   4.760   7.031 -0.6478 -0.7720 -0.2346
   86CHL1   H1A 8815   6.231   4.832   7.108  0.5358 -1.2269  0.7813
   86CHL1   H1B 8816   6.377   4.778   7.034 -0.6348 -0.4112 -1.8818
   86CHL1    C2 8817   6.218   4.792   6.890  0.2172 -0.1519  0.2934
   86CHL1   H2A 8818   6.251   4.895   6.863 -4.4937  1.7894  0.9724
   86CHL1   H2B 8819   6.107   4.793   6.893  0.1792 -1.7417 -0.0659
   86CHL1   C20 8820   6.456   4.459   7.742  0.0610  0.0492 -0.2172
   86CHL1   H20 8821   6.385   4.375   7.763 -0.1906  0.5431  0.9963
   86CHL1   C21 8822   6.366   4.583   7.780 -0.2729 -0.2636 -0.0478
   86CHL1  H21A 8823   6.402   4.679   7.738 -1.5906 -0.2335 -1.1733
   86CHL1  H21B 8824   6.375   4.589   7.891  0.5253 -0.0995 -0.1110
   86CHL1  H21C 8825   6.260   4.577   7.749 -0.7205  0.2601  1.2842
   86CHL1   C22 8826   6.594   4.451   7.823  0.3527 -0.7455 -0.5910
   86CHL1  H22A 8827   6.639   4.353   7.799  2.5431 -0.6445  2.4053
   86CHL1  H22B 8828   6.668   4.529   7.793 -0.2557  1.0123  2.0820
   86CHL1   C23 8829   6.576   4.454   7.980  0.3559 -0.1987  0.8645
   86CHL1  H23A 8830   6.533   4.552   8.011  0.4220  0.2502 -0.3913
   86CHL1  H23B 8831   6.503   4.378   8.016 -0.4904 -0.2201 -0.8194
   86CHL1   C24 8832   6.701   4.439   8.070  0.3837 -0.7038  1.2657
   86CHL1  H24A 8833   6.742   4.337   8.055 -1.2898 -1.3242  0.6681
   86CHL1  H24B 8834   6.776   4.506   8.023  0.5427 -1.0388  1.0415
   86CHL1   C25 8835   6.690   4.466   8.226 -0.2662  0.3691  0.8224
   86CHL1   H25 8836   6.777   4.412   8.270  1.7331  3.2780  0.6948
   86CHL1   C26 8837   6.694   4.614   8.250 -0.2372 -0.9209 -0.1118
   86CHL1  H26A 8838   6.643   4.666   8.166  0.1030  1.1150  0.8931
   86CHL1  H26B 8839   6.647   4.637   8.348  0.8126  1.4197 -0.1066
   86CHL1  H26C 8840   6.799   4.650   8.241 -0.4741 -0.0552  0.5006
   86CHL1   C27 8841   6.559   4.398   8.282  0.7471  0.4945 -0.1991
   86CHL1  H27A 8842   6.573   4.406   8.392  3.0616  1.2939 -0.4984
   86CHL1  H27B 8843   6.467   4.448   8.246  0.3035  1.9815  2.6352
   86CHL1  H27C 8844   6.549   4.291   8.257 -0.0579  0.1370  1.4865
   87CHL1    C3 8845   3.542   5.295   7.178 -0.5939  0.1413  0.1887
   87CHL1    H3 8846   3.484   5.389   7.178 -0.3106  0.3650 -1.9457
   87CHL1    O3 8847   3.565   5.279   7.040 -0.2080 -0.0335  0.2937
   87CHL1   H3' 8848   3.645   5.226   7.032  0.4787  0.6245  2.2076
   87CHL1    C4 8849   3.671   5.303   7.257  0.0065  0.1610  0.2417
   87CHL1   H4A 8850   3.734   5.213   7.244  1.4864  1.0897  0.7381
   87CHL1   H4B 8851   3.741   5.378   7.215  1.3889  0.3275  2.6580
   87CHL1    C5 8852   3.647   5.319   7.403 -0.0210  0.0038 -0.6261
   87CHL1    C6 8853   3.698   5.419   7.469 -0.6156  0.3144 -0.6991
   87CHL1    H6 8854   3.761   5.496   7.423  1.1978 -0.8157 -0.2329
   87CHL1    C7 8855   3.678   5.423   7.626 -0.5102  0.8269 -0.9726
   87CHL1   H7A 8856   3.773   5.449   7.678 -0.1464 -1.4000 -0.4306
   87CHL1   H7B 8857   3.609   5.508   7.644  0.1702  1.6201 -1.9997
   87CHL1    C8 8858   3.627   5.291   7.696  0.2167 -0.3896  0.5012
   87CHL1    H8 8859   3.717   5.225   7.699  0.4060 -0.1567  0.0045
   87CHL1   C14 8860   3.590   5.322   7.840 -0.2958  0.1966 -0.5822
   87CHL1   H14 8861   3.500   5.385   7.823 -1.3321 -1.4320 -1.4520
   87CHL1   C15 8862   3.694   5.389   7.929 -1.0623 -0.3211  0.0982
   87CHL1  H15A 8863   3.797   5.347   7.923  0.1156  1.9503  2.2056
   87CHL1  H15B 8864   3.707   5.497   7.907 -0.0837  0.4565  3.7829
   87CHL1   C16 8865   3.636   5.377   8.069 -0.2692 -0.2658 -0.2567
   87CHL1  H16A 8866   3.718   5.347   8.138  0.2903 -0.3369 -0.9325
   87CHL1  H16B 8867   3.605   5.479   8.099  0.3008 -0.0938 -0.2418
   87CHL1   C17 8868   3.512   5.284   8.057  0.0133 -0.6864  0.3097
   87CHL1   H17 8869   3.426   5.349   8.032  0.2200 -1.4776 -2.9393
   87CHL1   C13 8870   3.529   5.206   7.922  0.1975 -0.4581 -0.1647
   87CHL1   C18 8871   3.646   5.100   7.944 -0.3152  0.1266  0.7897
   87CHL1  H18A 8872   3.734   5.145   7.995 -0.6753  1.0432  0.6121
   87CHL1  H18B 8873   3.601   5.012   7.994 -0.1591 -1.9983 -2.5010
   87CHL1  H18C 8874   3.670   5.054   7.846 -2.7785  1.4884 -0.5387
   87CHL1   C12 8875   3.413   5.149   7.849  0.6281  0.7714  0.5973
   87CHL1  H12A 8876   3.385   5.057   7.905 -0.8958  1.1513  0.4945
   87CHL1  H12B 8877   3.324   5.215   7.852  1.1503  1.4998  0.3668
   87CHL1   C11 8878   3.447   5.118   7.699 -0.1835  0.3081 -0.0498
   87CHL1  H11A 8879   3.518   5.034   7.716 -0.5452  0.1149  0.5526
   87CHL1  H11B 8880   3.357   5.077   7.649 -0.1498  0.8587 -0.5693
   87CHL1    C9 8881   3.511   5.232   7.618 -0.3032  0.5716  0.0698
   87CHL1    H9 8882   3.438   5.315   7.617 -1.0144 -0.0409 -0.6122
   87CHL1   C10 8883   3.555   5.207   7.468  0.0556 -0.6228  0.8707
   87CHL1   C19 8884   3.632   5.074   7.473 -0.4762  0.6135 -0.2857
   87CHL1  H19A 8885   3.671   5.050   7.372 -1.5556 -0.3905 -0.4905
   87CHL1  H19B 8886   3.715   5.086   7.546 -0.3141 -0.8538 -0.2048
   87CHL1  H19C 8887   3.578   4.981   7.500  0.2432  0.0418 -0.7885
   87CHL1    C1 8888   3.432   5.185   7.380  0.1088  0.4031  0.3769
   87CHL1   H1A 8889   3.366   5.107   7.423 -1.6975  2.0252  0.6745
   87CHL1   H1B 8890   3.372   5.278   7.378  0.7136  0.8271 -2.4799
   87CHL1    C2 8891   3.462   5.175   7.229  0.1255  0.6675  0.0320
   87CHL1   H2A 8892   3.363   5.164   7.180 -0.4427 -1.3048  1.4938
   87CHL1   H2B 8893   3.523   5.085   7.207 -0.2730  0.4661 -0.2535
   87CHL1   C20 8894   3.471   5.205   8.180 -1.1822 -0.8638  0.2848
   87CHL1   H20 8895   3.528   5.111   8.198 -0.7785 -0.8478 -0.7950
   87CHL1   C21 8896   3.323   5.154   8.176 -0.5105  0.3200 -0.5185
   87CHL1  H21A 8897   3.286   5.128   8.277 -1.1717  0.7320 -0.6459
   87CHL1  H21B 8898   3.310   5.062   8.114 -1.5254 -0.0163  0.1591
   87CHL1  H21C 8899   3.252   5.231   8.140 -1.5123  0.7096  2.0923
   87CHL1   C22 8900   3.494   5.284   8.316  0.1783 -0.4431  0.8704
   87CHL1  H22A 8901   3.594   5.332   8.318  0.0856 -0.2317  0.3749
   87CHL1  H22B 8902   3.416   5.361   8.328 -1.0671 -1.5572  0.2160
   87CHL1   C23 8903   3.505   5.190   8.438 -0.4093 -0.0838  0.9903
   87CHL1  H23A 8904   3.406   5.148   8.468 -0.2400 -1.9757 -0.9221
   87CHL1  H23B 8905   3.573   5.105   8.415  0.8136  1.0102  0.4553
   87CHL1   C24 8906   3.585   5.256   8.554  0.2391  0.5027  0.2572
   87CHL1  H24A 8907   3.683   5.295   8.519  1.0188  0.0106  1.8034
   87CHL1  H24B 8908   3.523   5.332   8.608 -0.8934 -2.2623  3.1767
   87CHL1   C25 8909   3.627   5.159   8.672 -0.6379 -0.5242 -1.1041
   87CHL1   H25 8910   3.669   5.070   8.621 -0.1789 -0.5305 -0.7226
   87CHL1   C26 8911   3.743   5.217   8.756  0.2607  0.5379  0.3612
   87CHL1  H26A 8912   3.763   5.146   8.839 -1.7200  1.5502  1.7641
   87CHL1  H26B 8913   3.833   5.235   8.693 -0.5183  0.5623 -0.7673
   87CHL1  H26C 8914   3.709   5.313   8.799  1.3755  1.2044 -0.1950
   87CHL1   C27 8915   3.508   5.126   8.760 -0.0341  0.3003 -0.1961
   87CHL1  H27A 8916   3.531   5.030   8.811 -0.6831  0.4702  0.4367
   87CHL1  H27B 8917   3.495   5.201   8.841  1.1400 -0.9424  1.2381
   87CHL1  H27C 8918   3.412   5.121   8.705  1.8810 -1.1116 -3.6922
   88CHL1    C3 8919   0.994   0.195   6.721 -0.2862 -0.1672 -0.4410
   88CHL1    H3 8920   1.100   0.210   6.750 -0.7742 -2.2335  2.9773
   88CHL1    O3 8921   0.984   0.182   6.582  0.1130  0.1391 -0.7366
   88CHL1   H3' 8922   0.893   0.159   6.560  0.2411 -0.0920 -1.0319
   88CHL1    C4 8923   0.935   0.069   6.786 -1.0848 -0.5731  0.2465
   88CHL1   H4A 8924   0.833   0.047   6.748 -1.9242 -0.1016  2.1253
   88CHL1   H4B 8925   1.008  -0.007   6.750  0.0723 -0.4162  2.1038
   88CHL1    C5 8926   0.920   0.076   6.939  0.3227  0.3539  0.3830
   88CHL1    C6 8927   0.969  -0.020   7.019  0.7552 -0.3023  0.2043
   88CHL1    H6 8928   1.012  -0.114   6.983  0.4346 -0.4863  0.2987
   88CHL1    C7 8929   0.951  -0.018   7.173 -0.0316  0.2839  0.6809
   88CHL1   H7A 8930   0.929  -0.121   7.210 -0.9409  0.6687  1.2376
   88CHL1   H7B 8931   1.047   0.015   7.218  1.9013  0.9934 -3.4520
   88CHL1    C8 8932   0.850   0.092   7.221 -0.4297  0.3460 -0.1574
   88CHL1    H8 8933   0.748   0.054   7.204 -0.5355 -0.3445  1.7320
   88CHL1   C14 8934   0.863   0.119   7.372 -0.6122 -0.0074  0.0287
   88CHL1   H14 8935   0.969   0.142   7.396 -0.4625 -1.7003  1.1454
   88CHL1   C15 8936   0.838   0.001   7.465  0.3645 -0.7414 -0.0527
   88CHL1  H15A 8937   0.736  -0.036   7.441 -0.1776  1.4422 -1.3637
   88CHL1  H15B 8938   0.909  -0.084   7.454  1.9218  0.4850  0.1677
   88CHL1   C16 8939   0.837   0.066   7.606 -0.5965  0.0927  0.6465
   88CHL1  H16A 8940   0.771   0.024   7.685 -0.1234 -0.2925  0.8467
   88CHL1  H16B 8941   0.937   0.053   7.653 -0.4116 -3.9777 -0.4857
   88CHL1   C17 8942   0.812   0.221   7.578 -0.1824 -0.0927  0.4569
   88CHL1   H17 8943   0.906   0.278   7.593 -0.8016  1.7727 -2.1285
   88CHL1   C13 8944   0.777   0.232   7.425 -0.6844 -0.0879  0.4309
   88CHL1   C18 8945   0.626   0.203   7.415  0.5067  0.2940 -0.1917
   88CHL1  H18A 8946   0.599   0.171   7.312  2.0302 -0.0401 -0.5195
   88CHL1  H18B 8947   0.585   0.117   7.473  0.1095 -1.0467 -2.3292
   88CHL1  H18C 8948   0.566   0.294   7.433 -0.5764 -0.6354  1.1183
   88CHL1   C12 8949   0.824   0.359   7.354  0.3287 -0.5032 -1.3046
   88CHL1  H12A 8950   0.744   0.432   7.378  0.8850  0.0555 -1.1383
   88CHL1  H12B 8951   0.924   0.388   7.392  0.0353  0.5335 -1.3069
   88CHL1   C11 8952   0.800   0.340   7.205  0.1814 -0.3367  0.3882
   88CHL1  H11A 8953   0.689   0.334   7.194  0.2536 -3.3864  0.4828
   88CHL1  H11B 8954   0.831   0.433   7.154 -1.0638 -0.3727 -0.4823
   88CHL1    C9 8955   0.876   0.218   7.145  0.3426  0.3534  0.2728
   88CHL1    H9 8956   0.984   0.246   7.152  0.8685 -0.7135 -2.3221
   88CHL1   C10 8957   0.857   0.207   6.991 -0.1403 -0.2564 -0.3825
   88CHL1   C19 8958   0.704   0.203   6.964  0.0252 -0.2380  0.5243
   88CHL1  H19A 8959   0.641   0.130   7.020 -0.1895 -0.8735 -0.5292
   88CHL1  H19B 8960   0.661   0.305   6.971 -0.5007 -0.3576 -0.7578
   88CHL1  H19C 8961   0.681   0.178   6.859 -1.7206  2.0013  0.3003
   88CHL1    C1 8962   0.920   0.327   6.920 -0.3043 -0.2115 -0.4212
   88CHL1   H1A 8963   0.880   0.427   6.948  0.0906 -0.7583  2.4166
   88CHL1   H1B 8964   1.025   0.330   6.954  0.0763 -3.6069 -0.9493
   88CHL1    C2 8965   0.919   0.318   6.770  0.0607  0.7139  0.4995
   88CHL1   H2A 8966   0.972   0.410   6.737  1.2683  0.5659  1.8997
   88CHL1   H2B 8967   0.818   0.313   6.725  0.4408  0.2293 -0.3180
   88CHL1   C20 8968   0.713   0.283   7.681  1.3168  0.1259  0.4532
   88CHL1   H20 8969   0.612   0.238   7.670  1.3886  0.1839 -0.5690
   88CHL1   C21 8970   0.688   0.434   7.661  0.1640  0.0382  0.8324
   88CHL1  H21A 8971   0.772   0.500   7.632 -0.4745  0.6692  0.3947
   88CHL1  H21B 8972   0.639   0.473   7.753 -0.0698  0.5428  0.4992
   88CHL1  H21C 8973   0.606   0.444   7.587  1.6072 -2.0227 -1.2181
   88CHL1   C22 8974   0.761   0.267   7.834 -0.3819 -0.8402 -0.5576
   88CHL1  H22A 8975   0.805   0.166   7.850 -0.5944 -1.0019 -0.9811
   88CHL1  H22B 8976   0.840   0.345   7.838  1.9978 -3.1269 -0.5567
   88CHL1   C23 8977   0.647   0.280   7.940 -0.5770 -0.1119 -0.4935
   88CHL1  H23A 8978   0.557   0.324   7.892 -1.5016  0.6412  1.7794
   88CHL1  H23B 8979   0.612   0.178   7.966 -0.3773 -0.2097 -0.5990
   88CHL1   C24 8980   0.692   0.363   8.062 -0.1616  0.3491 -0.5555
   88CHL1  H24A 8981   0.755   0.306   8.134 -0.8210  0.4763  0.1343
   88CHL1  H24B 8982   0.746   0.453   8.026 -2.0475  1.8158  0.0714
   88CHL1   C25 8983   0.575   0.404   8.155  0.1702 -1.1272 -0.5292
   88CHL1   H25 8984   0.507   0.476   8.105  1.3174 -0.3404 -0.9808
   88CHL1   C26 8985   0.499   0.276   8.201 -0.1645  0.1932  0.3251
   88CHL1  H26A 8986   0.454   0.299   8.300  1.8490  0.6442  1.1968
   88CHL1  H26B 8987   0.430   0.244   8.120 -2.3670  1.1181  1.7713
   88CHL1  H26C 8988   0.567   0.190   8.222  0.6926  1.0682  1.3027
   88CHL1   C27 8989   0.638   0.488   8.273  0.6808 -0.3586 -0.2213
   88CHL1  H27A 8990   0.696   0.573   8.231 -0.2014 -0.5528 -1.8856
   88CHL1  H27B 8991   0.559   0.514   8.346  0.6776  2.3990 -1.1036
   88CHL1  H27C 8992   0.695   0.412   8.332 -0.5135  0.1504  1.6757
   89CHL1    C3 8993   5.478   4.345   7.015 -0.0283  0.3414  0.4924
   89CHL1    H3 8994   5.433   4.446   7.008  0.1183  0.3012 -1.4140
   89CHL1    O3 8995   5.466   4.295   6.885 -0.1491  0.3616  0.5765
   89CHL1   H3' 8996   5.545   4.245   6.862  0.9147  1.8004  0.9808
   89CHL1    C4 8997   5.622   4.335   7.054 -0.6169 -0.1027 -0.7267
   89CHL1   H4A 8998   5.665   4.235   7.034  1.9679 -0.0257  3.2921
   89CHL1   H4B 8999   5.677   4.410   6.995 -0.0582  1.2872  1.4454
   89CHL1    C5 9000   5.659   4.354   7.195 -0.5573 -0.6295  0.1591
   89CHL1    C6 9001   5.748   4.449   7.229  0.2933  0.0214  0.7493
   89CHL1    H6 9002   5.799   4.503   7.148  0.8456 -0.8709  0.4864
   89CHL1    C7 9003   5.781   4.491   7.370  0.3690  0.1541 -0.1846
   89CHL1   H7A 9004   5.891   4.501   7.381  0.1498  1.0669  1.6187
   89CHL1   H7B 9005   5.730   4.588   7.391  0.0975  0.5339 -2.3827
   89CHL1    C8 9006   5.741   4.381   7.475  0.1406  0.0270  0.0934
   89CHL1    H8 9007   5.808   4.292   7.465  1.0324  0.5690  1.0570
   89CHL1   C14 9008   5.748   4.439   7.617 -0.3533 -0.2875  0.2428
   89CHL1   H14 9009   5.678   4.525   7.622  3.3876  2.9741  0.8174
   89CHL1   C15 9010   5.883   4.485   7.652  0.1093 -0.5911  0.3034
   89CHL1  H15A 9011   5.958   4.411   7.617  0.8953 -0.8246  2.3375
   89CHL1  H15B 9012   5.900   4.580   7.596 -1.6910 -1.1963 -1.3849
   89CHL1   C16 9013   5.895   4.479   7.807  0.7465 -0.2283 -0.2336
   89CHL1  H16A 9014   5.977   4.408   7.827  2.8734  2.0292 -0.4058
   89CHL1  H16B 9015   5.922   4.579   7.848  0.6234 -0.0678 -0.5380
   89CHL1   C17 9016   5.754   4.425   7.855  0.6050  0.1130  0.1953
   89CHL1   H17 9017   5.686   4.513   7.862 -0.7103 -0.6963 -1.6359
   89CHL1   C13 9018   5.696   4.349   7.730 -0.0369  0.6935 -0.0641
   89CHL1   C18 9019   5.777   4.218   7.730  0.1673  0.7598  0.3272
   89CHL1  H18A 9020   5.880   4.221   7.770  0.5135 -2.1357 -0.1348
   89CHL1  H18B 9021   5.722   4.134   7.778  0.4191  0.2029 -0.3525
   89CHL1  H18C 9022   5.789   4.181   7.626  0.9459 -1.9982  1.3300
   89CHL1   C12 9023   5.550   4.315   7.708  0.2228 -0.4698 -0.3218
   89CHL1  H12A 9024   5.507   4.251   7.788 -1.2080 -1.1242 -1.5748
   89CHL1  H12B 9025   5.499   4.413   7.719  0.3273 -0.2969 -1.2700
   89CHL1   C11 9026   5.525   4.258   7.563 -0.9669 -0.4712 -0.4606
   89CHL1  H11A 9027   5.538   4.148   7.561 -1.6396 -0.6082  0.9598
   89CHL1  H11B 9028   5.416   4.258   7.541 -0.7784 -0.3271 -1.4093
   89CHL1    C9 9029   5.593   4.345   7.448 -0.2659  0.6357  0.0459
   89CHL1    H9 9030   5.546   4.446   7.451 -0.0425  0.7523 -0.2754
   89CHL1   C10 9031   5.565   4.287   7.301  0.8096 -0.0144 -0.1530
   89CHL1   C19 9032   5.606   4.139   7.308  0.1248  0.2440  0.4703
   89CHL1  H19A 9033   5.598   4.084   7.212  1.0144 -0.9576  1.0655
   89CHL1  H19B 9034   5.708   4.119   7.348 -0.0944 -2.5511 -0.1786
   89CHL1  H19C 9035   5.543   4.070   7.368 -0.9050  0.9077  0.1722
   89CHL1    C1 9036   5.417   4.307   7.258  0.1073 -0.6303  0.0150
   89CHL1   H1A 9037   5.350   4.262   7.334  1.3478  0.0285  1.5507
   89CHL1   H1B 9038   5.400   4.415   7.277  1.7704 -0.7643  2.8870
   89CHL1    C2 9039   5.376   4.272   7.115 -0.1283  0.2727 -0.9781
   89CHL1   H2A 9040   5.275   4.311   7.093 -0.3510  0.8325  0.8158
   89CHL1   H2B 9041   5.375   4.161   7.112  0.3569  0.2765 -1.3346
   89CHL1   C20 9042   5.763   4.354   7.991 -0.0110  0.2026 -0.7794
   89CHL1   H20 9043   5.830   4.266   7.984 -0.8893 -0.7440  1.6636
   89CHL1   C21 9044   5.626   4.284   8.026  0.1473 -0.2105  0.1194
   89CHL1  H21A 9045   5.553   4.364   8.002  0.8307 -0.0359 -1.5326
   89CHL1  H21B 9046   5.625   4.253   8.133 -0.2734 -4.8793 -1.0103
   89CHL1  H21C 9047   5.607   4.194   7.964 -1.1616  1.5780 -2.2602
   89CHL1   C22 9048   5.819   4.434   8.110  0.0868 -0.3087  0.5359
   89CHL1  H22A 9049   5.793   4.379   8.203 -0.0248 -0.4578  0.4171
   89CHL1  H22B 9050   5.929   4.445   8.097 -0.1077  2.7549  0.8058
   89CHL1   C23 9051   5.736   4.566   8.127  0.3816 -0.4684 -0.4966
   89CHL1  H23A 9052   5.740   4.630   8.036 -1.5361  0.3191 -0.0793
   89CHL1  H23B 9053   5.626   4.552   8.138  0.4479  0.4436  1.7110
   89CHL1   C24 9054   5.789   4.638   8.251 -0.3814  0.1941  0.3820
   89CHL1  H24A 9055   5.790   4.574   8.341 -1.7490  0.9606  0.9703
   89CHL1  H24B 9056   5.897   4.666   8.247 -0.1120 -0.3497  2.4477
   89CHL1   C25 9057   5.710   4.764   8.292 -0.4128  0.0634 -0.0409
   89CHL1   H25 9058   5.686   4.824   8.202 -1.9875 -0.5952 -0.0943
   89CHL1   C26 9059   5.579   4.725   8.353  0.1444 -0.5608 -0.2813
   89CHL1  H26A 9060   5.523   4.657   8.286 -0.4248 -0.3395 -0.0363
   89CHL1  H26B 9061   5.584   4.680   8.455 -0.5250  0.0831  0.0462
   89CHL1  H26C 9062   5.523   4.820   8.365  1.0882  0.0711 -0.8097
   89CHL1   C27 9063   5.800   4.847   8.382 -0.5237  0.0520 -0.2017
   89CHL1  H27A 9064   5.895   4.883   8.337  2.2371 -2.5987  2.9755
   89CHL1  H27B 9065   5.748   4.935   8.425 -0.3896  1.2319 -2.3188
   89CHL1  H27C 9066   5.835   4.786   8.468  1.0404  1.5142  0.2482
   90CHL1    C3 9067   0.639   4.087   6.961 -0.2775 -0.7193 -0.3495
   90CHL1    H3 9068   0.668   3.980   6.953  1.8050 -0.1897 -0.3578
   90CHL1    O3 9069   0.657   4.148   6.836  0.3664  0.4978  0.3736
   90CHL1   H3' 9070   0.649   4.241   6.855  0.0807  0.8004 -1.1435
   90CHL1    C4 9071   0.495   4.095   7.003 -0.6303  0.4112 -0.0840
   90CHL1   H4A 9072   0.466   4.202   7.009 -0.2845  0.4574  0.9999
   90CHL1   H4B 9073   0.433   4.042   6.928 -1.1617 -0.8109  1.1777
   90CHL1    C5 9074   0.472   4.036   7.142 -0.4774 -0.5099 -0.7833
   90CHL1    C6 9075   0.384   3.935   7.171  0.3572  0.3974  0.2432
   90CHL1    H6 9076   0.328   3.897   7.084 -1.2261  0.3648  1.2372
   90CHL1    C7 9077   0.356   3.877   7.310  0.7225 -0.3011 -0.0210
   90CHL1   H7A 9078   0.247   3.866   7.324  0.1310  3.4895 -0.5316
   90CHL1   H7B 9079   0.422   3.788   7.311  1.0592 -0.0915 -1.5656
   90CHL1    C8 9080   0.408   3.966   7.420 -0.7004 -0.0822 -0.3020
   90CHL1    H8 9081   0.337   4.051   7.427 -1.3313 -0.6841  0.9511
   90CHL1   C14 9082   0.423   3.894   7.546 -0.9283 -0.4500 -0.0430
   90CHL1   H14 9083   0.500   3.816   7.532  0.0751  0.1861  1.6200
   90CHL1   C15 9084   0.304   3.798   7.592 -0.1834 -0.6878  0.2600
   90CHL1  H15A 9085   0.207   3.851   7.584 -0.0277 -0.6089 -1.2276
   90CHL1  H15B 9086   0.297   3.706   7.530 -2.4748 -1.0474  0.9228
   90CHL1   C16 9087   0.341   3.765   7.740 -0.1546 -0.1842  0.3471
   90CHL1  H16A 9088   0.254   3.777   7.807 -0.5465 -1.9108  0.1805
   90CHL1  H16B 9089   0.374   3.661   7.758 -1.1953 -0.4800  0.5902
   90CHL1   C17 9090   0.454   3.861   7.774  0.0449 -0.7402  0.0649
   90CHL1   H17 9091   0.544   3.796   7.761 -0.3812 -1.1262 -1.1216
   90CHL1   C13 9092   0.454   3.975   7.672  0.8437  0.5240  0.0387
   90CHL1   C18 9093   0.347   4.086   7.710  0.1224  0.2511 -0.0279
   90CHL1  H18A 9094   0.327   4.153   7.623  0.7299  0.3271 -0.1132
   90CHL1  H18B 9095   0.252   4.030   7.720  0.9493 -1.1909  0.0548
   90CHL1  H18C 9096   0.378   4.143   7.800 -2.2199 -0.7844  1.5239
   90CHL1   C12 9097   0.591   4.037   7.643 -0.4103  0.2203 -0.1018
   90CHL1  H12A 9098   0.635   4.090   7.730 -0.0885  0.7786 -0.5907
   90CHL1  H12B 9099   0.658   3.949   7.631 -1.1243 -0.1857 -1.3327
   90CHL1   C11 9100   0.587   4.118   7.508 -0.0893 -0.2634 -0.3758
   90CHL1  H11A 9101   0.552   4.223   7.518  0.2651 -0.1151 -0.6362
   90CHL1  H11B 9102   0.694   4.147   7.495  0.3607 -2.5506 -2.7842
   90CHL1    C9 9103   0.544   4.037   7.388  0.0420  0.1796  0.4337
   90CHL1    H9 9104   0.616   3.953   7.383  1.6635  1.4477  1.6919
   90CHL1   C10 9105   0.550   4.112   7.250 -0.5274  0.6278 -0.5132
   90CHL1   C19 9106   0.501   4.259   7.268 -0.1429 -0.8005  0.4074
   90CHL1  H19A 9107   0.560   4.319   7.340  0.0567 -1.3178  0.6807
   90CHL1  H19B 9108   0.521   4.314   7.173 -0.2856  1.8018  1.8031
   90CHL1  H19C 9109   0.395   4.259   7.301 -0.1629  0.0321  0.3607
   90CHL1    C1 9110   0.701   4.103   7.212 -0.0932 -0.6972  0.0355
   90CHL1   H1A 9111   0.763   4.165   7.281 -1.9743  2.0702 -0.5815
   90CHL1   H1B 9112   0.735   3.999   7.231 -0.8571 -0.5620  2.5527
   90CHL1    C2 9113   0.727   4.157   7.069 -0.5968  0.9373 -1.5061
   90CHL1   H2A 9114   0.835   4.148   7.043 -0.3883 -2.1121 -0.0515
   90CHL1   H2B 9115   0.697   4.264   7.072 -2.9313  0.3457  1.6730
   90CHL1   C20 9116   0.439   3.902   7.925  0.4368  0.8936 -0.3212
   90CHL1   H20 9117   0.351   3.969   7.935 -0.4032 -0.1248 -0.7640
   90CHL1   C21 9118   0.561   3.976   7.982 -1.3109 -1.0253  0.1740
   90CHL1  H21A 9119   0.565   3.974   8.093 -1.0599  0.1489  0.1982
   90CHL1  H21B 9120   0.575   4.079   7.944 -0.1242 -0.5064  1.8828
   90CHL1  H21C 9121   0.646   3.910   7.954  0.2665  0.2276  1.7663
   90CHL1   C22 9122   0.411   3.774   8.017  0.7051 -0.1890 -0.4152
   90CHL1  H22A 9123   0.394   3.825   8.115  1.4008  0.8584 -0.8202
   90CHL1  H22B 9124   0.309   3.732   8.005 -0.2637  1.8882 -0.0397
   90CHL1   C23 9125   0.517   3.667   8.043  0.0509 -0.3535 -0.4346
   90CHL1  H23A 9126   0.554   3.614   7.953  1.4957 -0.3783  0.1323
   90CHL1  H23B 9127   0.604   3.718   8.091 -1.3153 -0.9530  2.9413
   90CHL1   C24 9128   0.465   3.560   8.135 -0.6298  0.2576 -0.3690
   90CHL1  H24A 9129   0.429   3.607   8.230 -0.5331 -0.0891 -0.1587
   90CHL1  H24B 9130   0.382   3.493   8.103 -0.0750 -0.9423  0.5989
   90CHL1   C25 9131   0.580   3.460   8.182 -0.2512  0.4105  0.2948
   90CHL1   H25 9132   0.615   3.399   8.096  0.4654 -1.4148  1.8139
   90CHL1   C26 9133   0.698   3.535   8.243  0.4175  0.0650  0.1734
   90CHL1  H26A 9134   0.750   3.605   8.174  1.5582  0.0658  1.0076
   90CHL1  H26B 9135   0.670   3.589   8.336 -1.1360  0.6926 -0.6279
   90CHL1  H26C 9136   0.776   3.460   8.268  0.6381 -0.8214 -2.7786
   90CHL1   C27 9137   0.533   3.346   8.277  0.1290  0.2889 -1.0195
   90CHL1  H27A 9138   0.530   3.396   8.376  0.4134  0.4781 -1.1073
   90CHL1  H27B 9139   0.440   3.295   8.243  0.5339 -0.3680 -1.1657
   90CHL1  H27C 9140   0.604   3.260   8.283 -3.0821 -2.5932 -0.7259
   91CHL1    C3 9141   1.210   2.602   6.698 -0.2366  0.1744 -0.2477
   91CHL1    H3 9142   1.225   2.711   6.682 -0.7839  0.2855 -0.0089
   91CHL1    O3 9143   1.188   2.550   6.569  0.5040 -0.1177 -0.5401
   91CHL1   H3' 9144   1.193   2.455   6.580 -0.0777  0.0272  1.2760
   91CHL1    C4 9145   1.333   2.539   6.765 -0.2213 -0.5310 -0.1043
   91CHL1   H4A 9146   1.328   2.429   6.757 -0.5749 -0.3856 -2.4032
   91CHL1   H4B 9147   1.430   2.549   6.711 -0.0329 -1.4515  0.0482
   91CHL1    C5 9148   1.350   2.580   6.905  0.3014 -0.4264 -0.3299
   91CHL1    C6 9149   1.463   2.633   6.953  0.0722  0.1046 -0.4967
   91CHL1    H6 9150   1.545   2.643   6.881  0.2078  0.1359 -0.3402
   91CHL1    C7 9151   1.495   2.668   7.092 -0.6905  0.0159  0.3366
   91CHL1   H7A 9152   1.600   2.635   7.106 -0.6736  0.7792  2.3409
   91CHL1   H7B 9153   1.506   2.778   7.107  1.9719 -0.5064  3.2931
   91CHL1    C8 9154   1.394   2.612   7.191  0.8272 -0.2499 -0.0907
   91CHL1    H8 9155   1.407   2.502   7.205  0.1893 -0.5473 -1.5730
   91CHL1   C14 9156   1.409   2.675   7.329 -1.1786 -0.2548  0.4378
   91CHL1   H14 9157   1.379   2.782   7.319  1.4503  0.4215 -1.3030
   91CHL1   C15 9158   1.552   2.675   7.382  0.2122  0.4189 -0.3463
   91CHL1  H15A 9159   1.606   2.578   7.373 -0.2229  0.3847 -3.9212
   91CHL1  H15B 9160   1.612   2.761   7.345  0.8064  0.3317  0.3881
   91CHL1   C16 9161   1.527   2.700   7.537  0.5149 -0.1486 -0.2417
   91CHL1  H16A 9162   1.577   2.614   7.586  2.0752  0.1415 -1.2314
   91CHL1  H16B 9163   1.589   2.787   7.567 -1.7602  2.2939 -2.0578
   91CHL1   C17 9164   1.375   2.697   7.556  0.5304 -0.6694  0.4482
   91CHL1   H17 9165   1.344   2.803   7.545  0.4966 -0.7043  0.2176
   91CHL1   C13 9166   1.322   2.618   7.436 -0.0372  0.1999 -0.0131
   91CHL1   C18 9167   1.348   2.465   7.463 -0.1998  0.8261 -0.1738
   91CHL1  H18A 9168   1.455   2.437   7.480 -0.7626 -1.3380  0.1574
   91CHL1  H18B 9169   1.282   2.433   7.547 -1.7336 -2.7128 -2.4854
   91CHL1  H18C 9170   1.311   2.400   7.381  1.9243  0.0140 -0.5726
   91CHL1   C12 9171   1.181   2.641   7.388 -0.7899  0.3746 -0.5325
   91CHL1  H12A 9172   1.118   2.593   7.466  2.5995 -0.3953  1.9721
   91CHL1  H12B 9173   1.157   2.748   7.379  1.7401  0.9177 -1.7935
   91CHL1   C11 9174   1.151   2.574   7.257  0.0514 -0.5417  0.8081
   91CHL1  H11A 9175   1.162   2.464   7.271 -0.8669 -0.7069  0.3005
   91CHL1  H11B 9176   1.044   2.587   7.233  0.4976  1.0281 -0.4757
   91CHL1    C9 9177   1.250   2.623   7.139 -1.0912 -0.5518 -0.0773
   91CHL1    H9 9178   1.225   2.731   7.132 -0.1905 -0.3782 -0.8323
   91CHL1   C10 9179   1.227   2.556   6.996  0.0764  0.1454 -0.0634
   91CHL1   C19 9180   1.191   2.401   7.020 -0.0830  0.3882 -0.2680
   91CHL1  H19A 9181   1.092   2.384   7.068 -0.1780  0.7820 -0.3166
   91CHL1  H19B 9182   1.183   2.340   6.928 -0.5196 -0.7939  0.5392
   91CHL1  H19C 9183   1.269   2.347   7.077  0.6522  0.6928 -0.9632
   91CHL1    C1 9184   1.110   2.625   6.928 -0.9490 -0.3378  0.4222
   91CHL1   H1A 9185   1.022   2.606   6.994 -0.6279  0.5249  1.1143
   91CHL1   H1B 9186   1.127   2.734   6.914  2.7155 -1.0934 -2.6264
   91CHL1    C2 9187   1.092   2.575   6.783 -0.2889 -0.0935 -0.1915
   91CHL1   H2A 9188   1.002   2.622   6.738 -1.0506  0.4260  1.7495
   91CHL1   H2B 9189   1.082   2.465   6.793  1.6638 -0.1482  2.0028
   91CHL1   C20 9190   1.324   2.672   7.702 -0.0156  0.4465 -0.5729
   91CHL1   H20 9191   1.311   2.564   7.720  4.2429  0.2687  2.9328
   91CHL1   C21 9192   1.179   2.736   7.723  0.3969 -0.0501 -0.2678
   91CHL1  H21A 9193   1.142   2.731   7.827 -1.7184  1.0300 -0.9184
   91CHL1  H21B 9194   1.103   2.705   7.649 -0.1788  2.7935 -1.0141
   91CHL1  H21C 9195   1.187   2.845   7.701  1.5066  0.2915  1.6249
   91CHL1   C22 9196   1.432   2.705   7.805 -0.5141  0.2277 -0.3406
   91CHL1  H22A 9197   1.516   2.633   7.796 -0.2223  0.4924  0.2156
   91CHL1  H22B 9198   1.460   2.812   7.792 -2.3189  0.6218 -1.4093
   91CHL1   C23 9199   1.379   2.696   7.948 -0.0055 -0.3110 -0.2618
   91CHL1  H23A 9200   1.295   2.766   7.969 -0.8225 -1.6851  1.3130
   91CHL1  H23B 9201   1.333   2.595   7.954  0.0181 -0.3137 -0.1225
   91CHL1   C24 9202   1.495   2.716   8.061  0.0983 -0.0905 -0.6787
   91CHL1  H24A 9203   1.574   2.639   8.047 -1.6536 -2.4146  1.2554
   91CHL1  H24B 9204   1.528   2.820   8.044 -0.6348  0.0882 -1.0557
   91CHL1   C25 9205   1.453   2.704   8.209 -0.2258 -0.1511 -0.0317
   91CHL1   H25 9206   1.367   2.774   8.223 -0.6512 -0.9533  1.4593
   91CHL1   C26 9207   1.401   2.566   8.251 -0.3573 -0.1419 -0.1518
   91CHL1  H26A 9208   1.306   2.543   8.197  0.8381 -2.0479 -1.5771
   91CHL1  H26B 9209   1.472   2.487   8.218  0.7677  1.5706 -2.1051
   91CHL1  H26C 9210   1.398   2.553   8.361 -3.1980  0.5371 -0.0717
   91CHL1   C27 9211   1.570   2.739   8.296  0.2317 -0.3755 -0.2519
   91CHL1  H27A 9212   1.545   2.746   8.404 -0.7976 -0.0784 -0.4889
   91CHL1  H27B 9213   1.645   2.659   8.278 -0.6758 -1.4279  0.5014
   91CHL1  H27C 9214   1.612   2.835   8.260 -1.2285  0.0792 -0.8513
   92CHL1    C3 9215   2.186   1.693   6.671  0.2536 -0.0991  0.4779
   92CHL1    H3 9216   2.280   1.747   6.695  1.1008 -1.1915 -0.2655
   92CHL1    O3 9217   2.181   1.664   6.535 -0.4411 -0.1730  0.2040
   92CHL1   H3' 9218   2.239   1.722   6.485 -0.1618  0.0441  0.7798
   92CHL1    C4 9219   2.182   1.561   6.748 -0.3576  0.0608 -0.3661
   92CHL1   H4A 9220   2.095   1.498   6.721 -1.0927  0.1490  1.6187
   92CHL1   H4B 9221   2.270   1.500   6.718 -0.0560 -1.1459  2.6295
   92CHL1    C5 9222   2.186   1.597   6.897  0.5654 -0.0567 -0.5432
   92CHL1    C6 9223   2.279   1.535   6.970 -0.1119 -0.5173 -0.5865
   92CHL1    H6 9224   2.343   1.458   6.924 -0.7263 -1.8778  0.7611
   92CHL1    C7 9225   2.294   1.555   7.119 -0.4304 -0.0089  0.3607
   92CHL1   H7A 9226   2.298   1.454   7.166 -0.7923 -0.0978  0.2034
   92CHL1   H7B 9227   2.387   1.607   7.150 -1.1801  1.6818 -0.0826
   92CHL1    C8 9228   2.174   1.635   7.181 -0.1168  0.2248  0.0505
   92CHL1    H8 9229   2.087   1.567   7.196  0.4909 -0.4302  0.7199
   92CHL1   C14 9230   2.213   1.692   7.317  0.1498 -0.6172  0.1212
   92CHL1   H14 9231   2.304   1.754   7.298  0.3297 -1.4521 -2.0910
   92CHL1   C15 9232   2.276   1.605   7.427 -0.3015  0.1921 -0.3431
   92CHL1  H15A 9233   2.200   1.527   7.447 -0.7321  0.9050  0.8951
   92CHL1  H15B 9234   2.371   1.555   7.397  0.1330 -0.7131  2.2870
   92CHL1   C16 9235   2.267   1.690   7.551 -0.6134 -0.4107  0.1550
   92CHL1  H16A 9236   2.220   1.634   7.634 -0.4484  0.8600  1.1251
   92CHL1  H16B 9237   2.367   1.715   7.593  0.0947 -1.2256 -0.9731
   92CHL1   C17 9238   2.172   1.812   7.521 -0.5106  0.5762 -0.1831
   92CHL1   H17 9239   2.242   1.896   7.501 -0.9082  0.8367 -0.5095
   92CHL1   C13 9240   2.110   1.780   7.387  0.4505  0.5750  0.2376
   92CHL1   C18 9241   1.979   1.697   7.414 -0.5856  0.4720  0.2928
   92CHL1  H18A 9242   1.922   1.666   7.323  3.2305 -1.6594 -1.6140
   92CHL1  H18B 9243   1.989   1.610   7.483  0.7173 -0.1249 -0.6259
   92CHL1  H18C 9244   1.909   1.766   7.467 -0.3695 -0.7155  2.2205
   92CHL1   C12 9245   2.103   1.901   7.295  0.1050 -0.2216  0.2505
   92CHL1  H12A 9246   2.030   1.977   7.328 -2.8632 -2.2535 -1.1086
   92CHL1  H12B 9247   2.204   1.945   7.290  0.6011 -1.4140 -1.3297
   92CHL1   C11 9248   2.047   1.858   7.155 -0.3845  0.0512 -0.0606
   92CHL1  H11A 9249   1.944   1.822   7.174  0.1388 -0.8492  1.1628
   92CHL1  H11B 9250   2.051   1.947   7.088  0.3240  1.7233  2.0698
   92CHL1    C9 9251   2.144   1.754   7.086 -0.3284 -0.3312 -0.5632
   92CHL1    H9 9252   2.234   1.809   7.054  0.4667 -2.0417 -1.3869
   92CHL1   C10 9253   2.089   1.706   6.944  0.2230 -0.4894  0.3695
   92CHL1   C19 9254   1.950   1.651   6.960  0.3654  0.5650  0.1962
   92CHL1  H19A 9255   1.885   1.731   7.001  0.8192  0.0046  2.1182
   92CHL1  H19B 9256   1.909   1.612   6.864 -0.9895  1.5993  0.3284
   92CHL1  H19C 9257   1.940   1.574   7.040  1.3919  1.8526  1.6084
   92CHL1    C1 9258   2.087   1.826   6.851  0.2519 -0.3438 -0.5337
   92CHL1   H1A 9259   2.011   1.904   6.871  0.5283 -0.0555 -0.6090
   92CHL1   H1B 9260   2.175   1.894   6.852 -0.7921  1.0913 -1.9657
   92CHL1    C2 9261   2.073   1.780   6.703  0.6092 -0.0234  0.5781
   92CHL1   H2A 9262   2.076   1.870   6.638 -0.4161 -0.4452 -0.0728
   92CHL1   H2B 9263   1.973   1.732   6.699  0.0080  1.2404 -0.3256
   92CHL1   C20 9264   2.081   1.854   7.639 -0.0609 -0.1499  0.3878
   92CHL1   H20 9265   2.002   1.776   7.649  0.5506 -1.2090 -2.1309
   92CHL1   C21 9266   2.007   1.988   7.612 -0.3998 -0.3207  0.3073
   92CHL1  H21A 9267   1.925   1.997   7.687 -0.3057 -0.0817  0.3841
   92CHL1  H21B 9268   1.961   1.978   7.511  5.6239  0.7047 -2.9867
   92CHL1  H21C 9269   2.059   2.084   7.633  0.8994 -1.1644  1.0030
   92CHL1   C22 9270   2.162   1.868   7.764  0.4733  0.0358 -0.1607
   92CHL1  H22A 9271   2.205   1.771   7.796  0.7205 -0.7573 -2.6830
   92CHL1  H22B 9272   2.241   1.946   7.754  2.7716 -1.7188  2.6586
   92CHL1   C23 9273   2.070   1.920   7.883  0.1463 -0.2302  0.4356
   92CHL1  H23A 9274   2.032   2.023   7.866  0.7107  0.3071  2.2274
   92CHL1  H23B 9275   1.987   1.848   7.875 -0.6958  0.4845  2.2809
   92CHL1   C24 9276   2.138   1.896   8.022  0.0726  0.3545 -0.1760
   92CHL1  H24A 9277   2.160   1.788   8.037 -0.8605  0.2079  0.2172
   92CHL1  H24B 9278   2.233   1.952   8.033  0.8501 -1.0974  0.9035
   92CHL1   C25 9279   2.057   1.939   8.148  0.1612 -0.7957 -0.1750
   92CHL1   H25 9280   2.110   1.896   8.236 -0.9699 -1.7544  0.0514
   92CHL1   C26 9281   2.045   2.091   8.163 -0.1898 -0.2487  0.0914
   92CHL1  H26A 9282   1.998   2.129   8.070 -2.2766 -3.1432 -0.1549
   92CHL1  H26B 9283   1.972   2.132   8.236  1.4101  1.6209  0.7664
   92CHL1  H26C 9284   2.136   2.154   8.149 -1.8331  1.9036 -1.4453
   92CHL1   C27 9285   1.916   1.874   8.131 -0.9154  0.1840  0.4319
   92CHL1  H27A 9286   1.920   1.764   8.121  4.1883  0.2923 -1.2530
   92CHL1  H27B 9287   1.847   1.886   8.218  0.0460  0.2074  1.2153
   92CHL1  H27C 9288   1.859   1.924   8.050  1.2171 -0.7611 -1.7502
   93CHL1    C3 9289   6.706   4.828   6.879 -0.7112  0.4005 -0.0407
   93CHL1    H3 9290   6.602   4.791   6.867 -0.2764 -0.8640 -0.0900
   93CHL1    O3 9291   6.775   4.823   6.756 -0.1545 -0.0902 -0.4771
   93CHL1   H3' 9292   6.807   4.734   6.741 -0.3665  0.1744 -2.7592
   93CHL1    C4 9293   6.700   4.971   6.931  0.2271  0.8361 -0.3482
   93CHL1   H4A 9294   6.803   5.013   6.934  0.3372  0.5405  2.6403
   93CHL1   H4B 9295   6.631   5.025   6.863  0.6318  0.6279 -0.9375
   93CHL1    C5 9296   6.647   4.967   7.072 -0.6865  0.8102  0.0323
   93CHL1    C6 9297   6.541   5.039   7.107  0.4937  0.6332  0.1297
   93CHL1    H6 9298   6.490   5.089   7.023 -0.0911 -2.0771 -1.2646
   93CHL1    C7 9299   6.487   5.053   7.240 -0.4637  0.0274 -0.1774
   93CHL1   H7A 9300   6.454   5.159   7.251 -0.5282  0.0105 -0.2090
   93CHL1   H7B 9301   6.399   4.988   7.256 -0.7250  0.2085 -0.8621
   93CHL1    C8 9302   6.599   5.013   7.346  0.5651 -0.2027  0.4643
   93CHL1    H8 9303   6.668   5.100   7.350  0.3883 -0.0305 -0.0926
   93CHL1   C14 9304   6.537   4.994   7.490 -0.6443 -0.0254  1.1034
   93CHL1   H14 9305   6.473   4.904   7.475 -0.6031  0.2242 -0.8062
   93CHL1   C15 9306   6.448   5.105   7.553  0.1126 -0.3261  0.0307
   93CHL1  H15A 9307   6.499   5.203   7.545  0.4707 -0.5727 -0.8687
   93CHL1  H15B 9308   6.346   5.104   7.508  0.4137 -1.8053 -0.6690
   93CHL1   C16 9309   6.436   5.064   7.700 -0.1487 -0.2746  0.3933
   93CHL1  H16A 9310   6.465   5.156   7.756 -0.6297  0.4117 -0.4621
   93CHL1  H16B 9311   6.332   5.037   7.729 -1.0075  1.1548 -1.1803
   93CHL1   C17 9312   6.542   4.948   7.727 -0.3492 -1.0665  0.2080
   93CHL1   H17 9313   6.490   4.850   7.728  1.1745 -1.9021  1.5166
   93CHL1   C13 9314   6.633   4.952   7.603  0.3297  0.3106 -0.0618
   93CHL1   C18 9315   6.736   5.064   7.618  0.6390 -0.2207  0.1697
   93CHL1  H18A 9316   6.711   5.167   7.652 -0.4713  0.2417 -1.8886
   93CHL1  H18B 9317   6.812   5.040   7.696 -0.6998 -2.8917  0.7444
   93CHL1  H18C 9318   6.798   5.080   7.527  0.8818 -0.9110  0.2064
   93CHL1   C12 9319   6.696   4.814   7.564  0.4047 -0.0101 -0.0565
   93CHL1  H12A 9320   6.770   4.784   7.641  1.3562  2.2888  0.0202
   93CHL1  H12B 9321   6.618   4.735   7.553  1.5243 -0.9710 -1.4234
   93CHL1   C11 9322   6.767   4.830   7.432  0.0039 -0.1596 -0.1095
   93CHL1  H11A 9323   6.848   4.905   7.442  0.2005  0.0328 -2.5826
   93CHL1  H11B 9324   6.819   4.737   7.398  3.4164  1.1614  1.0831
   93CHL1    C9 9325   6.663   4.879   7.316  0.3770 -0.1488  0.3603
   93CHL1    H9 9326   6.587   4.798   7.308  1.5010 -1.2068  0.0775
   93CHL1   C10 9327   6.732   4.882   7.171 -0.3296 -0.2868  0.1704
   93CHL1   C19 9328   6.880   4.937   7.185 -0.0220 -0.2309  0.0921
   93CHL1  H19A 9329   6.938   4.863   7.245  1.6577  2.5942  2.1720
   93CHL1  H19B 9330   6.939   4.933   7.091  2.1268 -1.5200  1.3896
   93CHL1  H19C 9331   6.892   5.039   7.226 -2.0665 -0.2038  0.7373
   93CHL1    C1 9332   6.733   4.737   7.119  0.3084 -0.1120 -0.7208
   93CHL1   H1A 9333   6.803   4.676   7.180  0.3691  0.7285  0.0645
   93CHL1   H1B 9334   6.636   4.682   7.123  0.6324 -0.7379 -1.2347
   93CHL1    C2 9335   6.784   4.735   6.977 -0.3278 -0.4583 -0.3911
   93CHL1   H2A 9336   6.782   4.633   6.934  1.0384 -0.9974  0.7323
   93CHL1   H2B 9337   6.889   4.772   6.970 -0.4996  0.1607  0.2111
   93CHL1   C20 9338   6.601   4.957   7.871  0.5128  0.1528 -0.9237
   93CHL1   H20 9339   6.661   5.050   7.877  0.5693  0.1437 -1.2918
   93CHL1   C21 9340   6.693   4.829   7.895  0.6174 -0.4167 -0.7077
   93CHL1  H21A 9341   6.789   4.838   7.839  0.6341  2.6480 -0.3872
   93CHL1  H21B 9342   6.635   4.738   7.872  1.9263 -1.0493 -1.6221
   93CHL1  H21C 9343   6.712   4.827   8.005 -3.0163 -1.3340  0.0240
   93CHL1   C22 9344   6.490   4.963   7.978  0.1664  0.1974 -0.2333
   93CHL1  H22A 9345   6.425   5.050   7.955 -0.1420 -0.3534 -1.5225
   93CHL1  H22B 9346   6.426   4.872   7.983 -1.2755  1.1994  0.0806
   93CHL1   C23 9347   6.540   4.973   8.128 -0.2621  0.4790 -1.4864
   93CHL1  H23A 9348   6.447   5.007   8.179 -0.4015 -1.7680 -0.1228
   93CHL1  H23B 9349   6.543   4.870   8.168 -0.8085  0.7102 -0.8211
   93CHL1   C24 9350   6.653   5.073   8.168  0.6141 -0.1359  0.1892
   93CHL1  H24A 9351   6.750   5.042   8.122  0.5769 -0.1038  0.0880
   93CHL1  H24B 9352   6.622   5.172   8.128 -0.0940  0.1270  1.3641
   93CHL1   C25 9353   6.664   5.101   8.319 -0.2678  0.4211 -0.3796
   93CHL1   H25 9354   6.575   5.159   8.351  1.3157  0.9510  3.5513
   93CHL1   C26 9355   6.660   4.971   8.403  0.5745 -0.1994  0.6433
   93CHL1  H26A 9356   6.675   5.012   8.505 -0.7791  2.2286 -0.0602
   93CHL1  H26B 9357   6.565   4.915   8.392  0.1192  0.3306  1.7213
   93CHL1  H26C 9358   6.739   4.904   8.364 -2.1542 -2.0912 -2.0079
   93CHL1   C27 9359   6.794   5.177   8.342  0.0960  0.5369 -0.0063
   93CHL1  H27A 9360   6.877   5.120   8.295 -0.1302 -0.2902  0.5711
   93CHL1  H27B 9361   6.795   5.276   8.292 -3.3402  0.9373  0.4802
   93CHL1  H27C 9362   6.811   5.187   8.451 -0.7666  0.0426  0.1738
   94CHL1    C3 9363   3.869   0.104   6.894  0.0510 -0.6965 -0.2676
   94CHL1    H3 9364   3.935   0.024   6.934 -0.5519 -0.6604  0.8361
   94CHL1    O3 9365   3.901   0.156   6.767  0.2310  0.1906 -0.1871
   94CHL1   H3' 9366   3.834   0.123   6.707 -1.3500  1.9437  0.5409
   94CHL1    C4 9367   3.731   0.041   6.898  0.1228 -0.1735 -0.1475
   94CHL1   H4A 9368   3.664   0.117   6.853  0.2579 -1.3541 -2.4748
   94CHL1   H4B 9369   3.724  -0.040   6.823  1.0690 -1.1047  0.7332
   94CHL1    C5 9370   3.682  -0.006   7.034 -0.7404 -0.7739  0.0777
   94CHL1    C6 9371   3.637  -0.129   7.054 -0.5500  0.0437  0.0067
   94CHL1    H6 9372   3.629  -0.184   6.959  1.2393 -1.2301  0.5565
   94CHL1    C7 9373   3.583  -0.182   7.189 -0.1519 -0.1945 -0.0121
   94CHL1   H7A 9374   3.481  -0.224   7.177 -0.9875  1.9257 -0.9026
   94CHL1   H7B 9375   3.649  -0.264   7.227 -1.4638 -1.4470 -0.3735
   94CHL1    C8 9376   3.568  -0.070   7.291  0.2768 -1.1259 -0.1106
   94CHL1    H8 9377   3.476  -0.013   7.264  1.2784  0.6393  0.0755
   94CHL1   C14 9378   3.553  -0.128   7.435 -0.0077 -0.5798 -0.4230
   94CHL1   H14 9379   3.649  -0.182   7.449  0.1084  0.2223  2.6163
   94CHL1   C15 9380   3.440  -0.226   7.461  0.0071  0.2019 -0.1988
   94CHL1  H15A 9381   3.346  -0.186   7.418 -0.2200  0.9375  0.9217
   94CHL1  H15B 9382   3.474  -0.317   7.408  1.8043  1.4379 -1.3003
   94CHL1   C16 9383   3.442  -0.226   7.616 -1.2470 -0.2452 -0.1876
   94CHL1  H16A 9384   3.343  -0.195   7.655 -0.3588  1.3389  0.8892
   94CHL1  H16B 9385   3.479  -0.329   7.637 -0.3629  0.2164  0.5644
   94CHL1   C17 9386   3.546  -0.121   7.666 -0.7457 -0.1911 -0.4400
   94CHL1   H17 9387   3.641  -0.178   7.657 -0.1853  0.7393 -0.5453
   94CHL1   C13 9388   3.550  -0.022   7.548  0.6263 -0.5410 -0.1250
   94CHL1   C18 9389   3.409   0.055   7.543 -0.1916  0.7617 -0.8056
   94CHL1  H18A 9390   3.320  -0.012   7.545 -0.0047  0.5214  0.5496
   94CHL1  H18B 9391   3.395   0.135   7.619  1.1560  0.1797  0.1153
   94CHL1  H18C 9392   3.404   0.103   7.444  1.1004  2.7833  0.0402
   94CHL1   C12 9393   3.665   0.062   7.533 -0.1778 -0.2226 -0.7786
   94CHL1  H12A 9394   3.667   0.137   7.614  0.3911  1.5078 -2.3229
   94CHL1  H12B 9395   3.760   0.004   7.539  0.3648  0.7146 -0.0758
   94CHL1   C11 9396   3.669   0.134   7.401  0.1703 -0.1104 -0.2077
   94CHL1  H11A 9397   3.583   0.200   7.378  3.1989  3.9444 -0.9861
   94CHL1  H11B 9398   3.762   0.194   7.406 -0.5541  0.9269  3.6103
   94CHL1    C9 9399   3.680   0.030   7.283 -0.5526 -0.4316 -0.5748
   94CHL1    H9 9400   3.773  -0.027   7.301 -1.2141 -1.9430 -1.7665
   94CHL1   C10 9401   3.704   0.099   7.142  0.4380  0.2144 -0.6496
   94CHL1   C19 9402   3.581   0.199   7.129 -0.5656 -0.3582  0.1353
   94CHL1  H19A 9403   3.597   0.246   7.029  1.2862 -2.6186 -0.7233
   94CHL1  H19B 9404   3.482   0.150   7.119  0.0931 -1.4449 -1.4168
   94CHL1  H19C 9405   3.570   0.278   7.206 -1.2510 -0.3031 -0.0139
   94CHL1    C1 9406   3.841   0.169   7.142 -0.4417  0.2511  0.1679
   94CHL1   H1A 9407   3.842   0.254   7.213 -1.3147 -0.4238  1.0161
   94CHL1   H1B 9408   3.919   0.102   7.185  1.5364  2.3814  0.1036
   94CHL1    C2 9409   3.886   0.213   7.002  0.2855  0.0633  0.2270
   94CHL1   H2A 9410   3.991   0.248   7.002  0.2950  0.0536  1.1766
   94CHL1   H2B 9411   3.834   0.308   6.976 -0.8956  0.0900  2.4760
   94CHL1   C20 9412   3.536  -0.069   7.814 -0.1499  0.2756  0.0654
   94CHL1   H20 9413   3.571   0.035   7.829  1.4337 -0.1471 -0.5578
   94CHL1   C21 9414   3.631  -0.157   7.895  0.1247  0.4536 -0.1459
   94CHL1  H21A 9415   3.636  -0.123   8.001  0.6728 -2.1702  0.7484
   94CHL1  H21B 9416   3.738  -0.140   7.868  0.2866  2.7098  1.6304
   94CHL1  H21C 9417   3.597  -0.262   7.898 -0.2635  0.5952  0.9454
   94CHL1   C22 9418   3.400  -0.079   7.882 -0.2874  0.1092 -0.4438
   94CHL1  H22A 9419   3.319  -0.044   7.814  0.3702 -0.9612 -1.8106
   94CHL1  H22B 9420   3.381  -0.188   7.895  1.3498  0.0480  2.1188
   94CHL1   C23 9421   3.370   0.001   8.012 -0.0049  0.2030  0.0329
   94CHL1  H23A 9422   3.438  -0.036   8.092 -0.9762 -2.6018 -0.3349
   94CHL1  H23B 9423   3.384   0.110   7.997  0.9019  0.1343  0.2938
   94CHL1   C24 9424   3.227  -0.035   8.064  0.6697  0.0102  0.5480
   94CHL1  H24A 9425   3.168   0.030   7.996 -0.7071 -2.2695 -0.5823
   94CHL1  H24B 9426   3.205  -0.144   8.054  0.5111  0.1942 -1.4743
   94CHL1   C25 9427   3.213   0.013   8.206 -0.7591  1.1010 -0.3846
   94CHL1   H25 9428   3.253   0.116   8.218 -1.4943  1.2167  1.3572
   94CHL1   C26 9429   3.070   0.019   8.244 -0.4331 -0.2751 -0.0192
   94CHL1  H26A 9430   3.030   0.099   8.178  0.3319  0.7479  0.7187
   94CHL1  H26B 9431   3.016  -0.077   8.235  2.6142 -1.9355 -3.0744
   94CHL1  H26C 9432   3.053   0.066   8.344 -1.2947  0.6896 -0.6067
   94CHL1   C27 9433   3.284  -0.073   8.313  0.3191  0.4413 -0.3912
   94CHL1  H27A 9434   3.264  -0.021   8.409 -1.3763 -0.1258 -0.4017
   94CHL1  H27B 9435   3.244  -0.177   8.311 -0.1698  0.6087  0.1843
   94CHL1  H27C 9436   3.393  -0.082   8.294  0.2967 -0.3815 -0.1991
   95CHL1    C3 9437   3.153   6.774   6.721 -0.7691  0.5096 -0.0569
   95CHL1    H3 9438   3.106   6.685   6.674  1.1704 -0.0154 -1.0766
   95CHL1    O3 9439   3.241   6.818   6.613  0.1321 -0.2297  0.6676
   95CHL1   H3' 9440   3.178   6.830   6.541 -0.8260 -0.4431  1.4468
   95CHL1    C4 9441   3.045   6.876   6.760  0.4180  1.3396 -0.1046
   95CHL1   H4A 9442   3.098   6.973   6.772  2.5975  0.1288  0.6496
   95CHL1   H4B 9443   2.974   6.888   6.675  1.5292 -1.7884 -1.6486
   95CHL1    C5 9444   2.974   6.838   6.890 -0.4712  0.3966 -0.9033
   95CHL1    C6 9445   2.839   6.830   6.901  0.0457 -0.3185  0.0878
   95CHL1    H6 9446   2.774   6.857   6.817  0.3840  1.8312  0.4495
   95CHL1    C7 9447   2.769   6.809   7.036  0.1417  0.4079 -0.1914
   95CHL1   H7A 9448   2.682   6.878   7.038  0.2799  0.6190 -0.9351
   95CHL1   H7B 9449   2.729   6.707   7.050  2.1652 -0.1829  1.8677
   95CHL1    C8 9450   2.857   6.834   7.161 -0.0634  0.6263 -0.2879
   95CHL1    H8 9451   2.873   6.943   7.165 -0.6432  0.8071 -1.9991
   95CHL1   C14 9452   2.788   6.780   7.288 -0.2926  0.4183  0.2050
   95CHL1   H14 9453   2.787   6.669   7.276  0.1130  0.4803 -0.4497
   95CHL1   C15 9454   2.650   6.835   7.326 -0.9337  0.5252 -0.5735
   95CHL1  H15A 9455   2.636   6.944   7.313  2.6260  1.1667  0.0052
   95CHL1  H15B 9456   2.574   6.787   7.260 -1.2080  0.0663  0.0659
   95CHL1   C16 9457   2.638   6.806   7.478  0.0426 -0.0391  0.7662
   95CHL1  H16A 9458   2.601   6.894   7.534  2.5713  0.8743  1.1106
   95CHL1  H16B 9459   2.581   6.711   7.489  0.4101 -0.4696 -0.7839
   95CHL1   C17 9460   2.780   6.768   7.524 -0.2531  0.9935 -0.0878
   95CHL1   H17 9461   2.786   6.657   7.527 -0.8394  0.9695  0.3464
   95CHL1   C13 9462   2.874   6.814   7.414 -0.3526  0.3473 -0.7693
   95CHL1   C18 9463   2.907   6.971   7.425  0.1151  0.0036  0.3464
   95CHL1  H18A 9464   2.966   7.004   7.337  0.1786 -0.4378  0.2184
   95CHL1  H18B 9465   2.813   7.029   7.439  0.6356  0.8375  0.4246
   95CHL1  H18C 9466   2.976   6.992   7.509  1.7872 -2.1095 -0.3978
   95CHL1   C12 9467   3.010   6.736   7.405  0.2456  0.0589  0.1883
   95CHL1  H12A 9468   3.084   6.749   7.487  1.0870 -0.8072 -0.4049
   95CHL1  H12B 9469   2.994   6.626   7.403  0.5525 -0.0297  1.6187
   95CHL1   C11 9470   3.087   6.771   7.276 -0.6327  0.1885  0.4127
   95CHL1  H11A 9471   3.134   6.869   7.302  1.9659 -0.7126 -0.6142
   95CHL1  H11B 9472   3.176   6.707   7.268  1.2811  2.4294  2.2328
   95CHL1    C9 9473   2.990   6.761   7.145  0.1700 -0.2727 -0.4733
   95CHL1    H9 9474   2.964   6.654   7.135 -2.0646  0.2614 -0.9228
   95CHL1   C10 9475   3.065   6.811   7.012  0.0500 -0.2144 -0.3689
   95CHL1   C19 9476   3.138   6.944   7.027  0.9716  0.7783 -0.1584
   95CHL1  H19A 9477   3.069   7.027   7.055 -1.0401 -1.1644  0.9335
   95CHL1  H19B 9478   3.215   6.932   7.106  0.8512 -0.4700 -0.2110
   95CHL1  H19C 9479   3.204   6.985   6.947 -0.4752  0.1195 -1.7434
   95CHL1    C1 9480   3.159   6.694   6.963 -0.6262 -0.1779 -0.2239
   95CHL1   H1A 9481   3.227   6.654   7.041 -0.2393  0.1653 -0.3848
   95CHL1   H1B 9482   3.091   6.608   6.943 -0.0492 -0.1942 -2.4279
   95CHL1    C2 9483   3.243   6.742   6.838 -0.6760 -0.7514 -0.3219
   95CHL1   H2A 9484   3.304   6.653   6.812 -0.9730 -1.6405  1.7882
   95CHL1   H2B 9485   3.305   6.830   6.866 -3.9038  0.8638  2.5791
   95CHL1   C20 9486   2.817   6.811   7.667 -0.0646  0.0704  0.3742
   95CHL1   H20 9487   2.897   6.888   7.669  0.5416 -0.5602  0.9539
   95CHL1   C21 9488   2.882   6.688   7.730 -0.7599 -0.0685  0.5804
   95CHL1  H21A 9489   2.820   6.611   7.779  0.2250 -2.1097 -1.1799
   95CHL1  H21B 9490   2.946   6.722   7.814 -1.7473  4.0724 -0.1089
   95CHL1  H21C 9491   2.943   6.636   7.653  0.3180  1.8512  0.0410
   95CHL1   C22 9492   2.707   6.861   7.756 -0.0349  0.7083 -0.0043
   95CHL1  H22A 9493   2.668   6.953   7.708  0.1772  0.2990 -0.9801
   95CHL1  H22B 9494   2.629   6.785   7.776  0.4319  0.3598  0.5042
   95CHL1   C23 9495   2.747   6.925   7.888 -0.6957 -0.5116  0.3199
   95CHL1  H23A 9496   2.780   6.857   7.969  1.7107  1.6863  1.3283
   95CHL1  H23B 9497   2.830   6.996   7.866 -0.0113 -1.6969 -1.1037
   95CHL1   C24 9498   2.628   7.006   7.938 -0.9775 -0.7255 -0.1139
   95CHL1  H24A 9499   2.599   7.092   7.873  4.2605 -0.5419 -2.7497
   95CHL1  H24B 9500   2.550   6.930   7.958 -0.9788 -0.7433 -0.1869
   95CHL1   C25 9501   2.664   7.085   8.070 -0.0538 -0.1765  0.7887
   95CHL1   H25 9502   2.754   7.142   8.040  0.4291  0.0274  2.5014
   95CHL1   C26 9503   2.553   7.181   8.105  0.6693  0.6203  0.3162
   95CHL1  H26A 9504   2.582   7.245   8.191  2.3252 -1.0409  1.0731
   95CHL1  H26B 9505   2.535   7.253   8.022 -0.0431  1.8116  1.4764
   95CHL1  H26C 9506   2.461   7.126   8.134  0.9207 -0.2298 -0.4233
   95CHL1   C27 9507   2.693   6.988   8.186 -0.0961 -0.3449  0.1386
   95CHL1  H27A 9508   2.765   6.907   8.162  0.6424 -0.1158  1.5402
   95CHL1  H27B 9509   2.729   7.051   8.270 -0.8514 -0.3921  0.5098
   95CHL1  H27C 9510   2.600   6.933   8.215  1.6872 -3.1636  0.8601
   96CHL1    C3 9511   3.357   6.207   7.007 -0.7438  0.6859  0.1338
   96CHL1    H3 9512   3.465   6.210   7.035 -0.5004  0.8876 -0.7859
   96CHL1    O3 9513   3.339   6.184   6.869 -0.3205 -0.0320 -0.5632
   96CHL1   H3' 9514   3.253   6.219   6.843 -1.6121 -2.0007  0.8311
   96CHL1    C4 9515   3.282   6.103   7.089 -0.4703  0.5204 -0.1081
   96CHL1   H4A 9516   3.178   6.090   7.053 -0.7988  2.2627  0.1028
   96CHL1   H4B 9517   3.335   6.009   7.063 -1.3196 -0.3205  1.0874
   96CHL1    C5 9518   3.284   6.124   7.240  0.8694 -1.0257  0.8275
   96CHL1    C6 9519   3.349   6.047   7.323 -0.4160  0.4280  0.4951
   96CHL1    H6 9520   3.384   5.952   7.281  0.7673 -0.6421  3.6050
   96CHL1    C7 9521   3.369   6.064   7.469  0.3884 -0.3199  0.0047
   96CHL1   H7A 9522   3.367   5.963   7.516  3.1288 -0.4862 -0.0818
   96CHL1   H7B 9523   3.467   6.114   7.484  0.4628 -0.7518  1.0156
   96CHL1    C8 9524   3.244   6.148   7.519  0.2214 -0.7876  0.2459
   96CHL1    H8 9525   3.148   6.092   7.506 -1.5611  2.2418 -0.6138
   96CHL1   C14 9526   3.260   6.186   7.668 -0.2056 -0.6261  0.5175
   96CHL1   H14 9527   3.355   6.242   7.683 -1.2735  0.9604  1.6934
   96CHL1   C15 9528   3.284   6.071   7.766 -0.3409 -0.4263 -0.5901
   96CHL1  H15A 9529   3.211   5.987   7.758 -0.0869 -0.6560 -0.5197
   96CHL1  H15B 9530   3.381   6.025   7.740  0.2688  1.2752 -1.4152
   96CHL1   C16 9531   3.279   6.142   7.901 -0.2289 -0.2171  0.4257
   96CHL1  H16A 9532   3.214   6.088   7.973 -0.0400 -1.4664 -0.3120
   96CHL1  H16B 9533   3.379   6.158   7.947  1.1542 -0.9679 -2.1186
   96CHL1   C17 9534   3.211   6.283   7.879 -0.2000 -0.3261  0.2061
   96CHL1   H17 9535   3.295   6.356   7.874 -0.9834  0.8607  2.5979
   96CHL1   C13 9536   3.159   6.277   7.729 -0.3924 -0.3587 -0.0933
   96CHL1   C18 9537   3.021   6.213   7.731 -0.2237  0.5251 -0.2928
   96CHL1  H18A 9538   3.021   6.121   7.794 -1.7543  0.0157 -0.9946
   96CHL1  H18B 9539   2.949   6.284   7.777 -1.0244 -0.9541  0.8498
   96CHL1  H18C 9540   2.993   6.184   7.628 -0.6451 -0.2802  0.0326
   96CHL1   C12 9541   3.153   6.404   7.651 -0.2146 -0.2325  0.4198
   96CHL1  H12A 9542   3.082   6.474   7.700 -1.4156 -1.0263 -0.1452
   96CHL1  H12B 9543   3.255   6.446   7.666  0.1102  0.2823 -2.6040
   96CHL1   C11 9544   3.130   6.380   7.506 -0.4605 -0.0319  0.7275
   96CHL1  H11A 9545   3.028   6.337   7.498 -0.6980  0.5678  0.4893
   96CHL1  H11B 9546   3.133   6.469   7.439  3.5037 -0.1517  0.4672
   96CHL1    C9 9547   3.233   6.279   7.441  0.2915  0.1508  0.0359
   96CHL1    H9 9548   3.331   6.331   7.452  2.5285 -3.7587  0.3076
   96CHL1   C10 9549   3.224   6.262   7.281  0.1515  0.4488 -0.2715
   96CHL1   C19 9550   3.072   6.261   7.248  0.7311 -0.9949  0.5334
   96CHL1  H19A 9551   3.032   6.365   7.249 -1.4178 -1.7726  0.3277
   96CHL1  H19B 9552   3.054   6.226   7.144 -1.8148 -0.8261  0.8422
   96CHL1  H19C 9553   3.006   6.203   7.315 -3.1840  0.3461 -1.8255
   96CHL1    C1 9554   3.314   6.366   7.202  1.0734 -0.2670  0.3410
   96CHL1   H1A 9555   3.278   6.469   7.223  1.1525  0.4365 -2.6100
   96CHL1   H1B 9556   3.414   6.364   7.250  1.1897 -1.4158  0.0779
   96CHL1    C2 9557   3.306   6.351   7.049 -0.6841  0.0622  0.6726
   96CHL1   H2A 9558   3.370   6.424   6.994 -0.8702 -0.3629 -0.1332
   96CHL1   H2B 9559   3.202   6.363   7.012 -0.6643 -0.0658  0.5711
   96CHL1   C20 9560   3.124   6.339   7.991  0.6091 -0.3280 -0.2012
   96CHL1   H20 9561   3.039   6.274   8.018  1.5415 -1.5565 -0.1124
   96CHL1   C21 9562   3.088   6.486   7.965  0.4991  0.3815  0.2377
   96CHL1  H21A 9563   3.180   6.543   7.939  0.3584  0.9761  1.0129
   96CHL1  H21B 9564   3.037   6.521   8.058  3.3902 -0.7524  2.3983
   96CHL1  H21C 9565   3.016   6.505   7.882  1.1472 -1.6080 -0.8502
   96CHL1   C22 9566   3.194   6.342   8.132 -0.3847 -0.4622  0.7617
   96CHL1  H22A 9567   3.287   6.402   8.141 -1.2200  0.9141  0.5250
   96CHL1  H22B 9568   3.127   6.397   8.202 -0.5913  0.0457  0.1737
   96CHL1   C23 9569   3.210   6.205   8.207 -0.4860  0.0398  0.2492
   96CHL1  H23A 9570   3.124   6.135   8.195 -0.9318  0.0491  2.8716
   96CHL1  H23B 9571   3.294   6.152   8.157 -2.2807 -0.5933 -2.3375
   96CHL1   C24 9572   3.233   6.215   8.354 -0.1255  0.1949 -0.1015
   96CHL1  H24A 9573   3.314   6.286   8.382  0.8345 -0.3116 -1.5034
   96CHL1  H24B 9574   3.144   6.256   8.407 -0.8093 -0.9499 -0.3408
   96CHL1   C25 9575   3.269   6.092   8.438  0.1157 -0.7956  0.1960
   96CHL1   H25 9576   3.359   6.053   8.385  2.0901 -0.3830  3.0110
   96CHL1   C26 9577   3.319   6.129   8.578  0.6379  1.2337  0.1587
   96CHL1  H26A 9578   3.380   6.222   8.576 -0.5241  2.0230  0.1579
   96CHL1  H26B 9579   3.238   6.165   8.645  0.5022  2.0687 -0.4289
   96CHL1  H26C 9580   3.382   6.052   8.626  0.3871  1.7878  1.4094
   96CHL1   C27 9581   3.167   5.982   8.441 -0.4030  0.2105 -0.6063
   96CHL1  H27A 9582   3.077   6.008   8.501 -0.5604  0.6117 -1.0108
   96CHL1  H27B 9583   3.131   5.955   8.339  1.2238 -3.2458 -0.4304
   96CHL1  H27C 9584   3.212   5.886   8.475 -1.3253  0.3756  1.1876
   97OSM      N 9585   6.385   3.216  10.735 -0.1037  0.4691  0.1557
   97OSM    C15 9586   6.401   3.306  10.852  0.0385  0.2446  0.4315
   97OSM   H15A 9587   6.425   3.261  10.947  0.7666  0.0457  0.1610
   97OSM   H15B 9588   6.305   3.352  10.869  0.0224 -0.3502  2.1723
   97OSM   H15C 9589   6.465   3.391  10.832  1.0082 -0.4491  0.5191
   97OSM    C14 9590   6.278   3.118  10.753  0.7790  0.2709 -0.7023
   97OSM   H14A 9591   6.276   3.044  10.675  1.0077  0.7128 -1.1335
   97OSM   H14B 9592   6.180   3.161  10.741  0.5558  0.0974  0.3964
   97OSM   H14C 9593   6.287   3.076  10.852  3.1562  1.8737 -0.1503
   97OSM    C13 9594   6.343   3.276  10.600  0.9238  0.1893 -0.2041
   97OSM   H13A 9595   6.253   3.331  10.621 -0.1545 -1.3608 -0.5868
   97OSM   H13B 9596   6.320   3.196  10.531  2.9229 -1.1201  0.5365
   97OSM   H13C 9597   6.427   3.336  10.566 -0.4630  1.9201 -0.7095
   97OSM    C12 9598   6.519   3.155  10.704  0.4882 -0.4647  0.9667
   97OSM   H12A 9599   6.529   3.077  10.778 -2.0386 -1.5057  0.3154
   97OSM   H12B 9600   6.597   3.227  10.726 -0.1705  0.6989 -0.3249
   97OSM    C11 9601   6.550   3.070  10.577 -0.1636 -0.1316 -0.0579
   97OSM   H11A 9602   6.656   3.040  10.565 -0.3535 -0.3542 -1.4130
   97OSM   H11B 9603   6.530   3.129  10.485 -0.3107  1.7451  1.1425
   97OSM      P 9604   6.502   2.829  10.664 -0.4958  0.1396  0.2570
   97OSM    O13 9605   6.574   2.877  10.783 -0.2554 -0.2891  0.2252
   97OSM    O14 9606   6.391   2.742  10.697  0.0964  0.2907  0.8402
   97OSM    O11 9607   6.603   2.757  10.566 -0.0407 -0.7040 -0.0923
   97OSM    O12 9608   6.466   2.955  10.576  0.1380 -0.1571 -0.2668
   97OSM    C1S 9609   6.594   2.621  10.526  0.0305 -0.5896 -0.2877
   97OSM    H1S 9610   6.493   2.578  10.543 -0.1340 -0.1878 -0.2459
   97OSM    H1T 9611   6.673   2.567  10.583  1.7391  2.4107  0.4351
   97OSM     NF 9612   6.625   2.458  10.351 -0.2843 -0.1446  0.1080
   97OSM    HNF 9613   6.711   2.409  10.358  1.8846  3.4458  1.4057
   97OSM    C2S 9614   6.632   2.602  10.379  0.1485  0.6511 -0.1169
   97OSM    H2S 9615   6.557   2.655  10.315 -2.5100 -1.0328  1.4279
   97OSM    C3S 9616   6.775   2.665  10.349  0.1637  0.5659  0.3957
   97OSM    H3S 9617   6.847   2.609  10.411 -0.7941 -0.0835  0.9477
   97OSM     O3 9618   6.787   2.801  10.384  0.2450  0.0192  0.4216
   97OSM    HO3 9619   6.712   2.813  10.443  2.0184  0.9768  2.6272
   97OSM    C4S 9620   6.807   2.641  10.206 -0.1380 -0.4882 -0.1604
   97OSM    H4S 9621   6.861   2.545  10.198  1.2472 -0.0324  2.7357
   97OSM    C5S 9622   6.770   2.715  10.097 -0.4052  0.1817  0.2816
   97OSM    H5S 9623   6.721   2.813  10.110  0.2771  0.3933  1.4410
   97OSM    C6S 9624   6.803   2.682   9.954 -0.3336 -0.1679 -0.4858
   97OSM    H6S 9625   6.861   2.767   9.913  1.6246 -1.1053  0.2402
   97OSM    H6T 9626   6.705   2.689   9.901 -0.2250  1.9771 -0.5145
   97OSM    C7S 9627   6.875   2.543   9.919  0.2085 -0.3972  0.0255
   97OSM    H7S 9628   6.822   2.468   9.981 -0.5426  0.1045  0.0130
   97OSM    H7T 9629   6.980   2.559   9.950  0.7375  0.3263 -1.9569
   97OSM    C8S 9630   6.856   2.520   9.769 -0.3921 -0.0021  0.0178
   97OSM    H8S 9631   6.886   2.610   9.710 -2.8667 -1.0850 -3.2090
   97OSM    H8T 9632   6.748   2.516   9.743  0.1945  0.0748 -2.7154
   97OSM    C9S 9633   6.917   2.387   9.717 -0.2561 -0.4902  0.2750
   97OSM    H9S 9634   6.875   2.310   9.784  1.5036 -1.3957  0.3991
   97OSM    H9T 9635   7.027   2.392   9.733 -0.3262  0.6807  0.4972
   97OSM   C10S 9636   6.897   2.350   9.564 -0.1841 -0.1788 -0.6051
   97OSM   H10S 9637   6.791   2.353   9.534 -0.7244  0.5054  1.2481
   97OSM   H10T 9638   6.946   2.250   9.559  1.0221  0.3872 -0.6419
   97OSM   C11S 9639   6.970   2.466   9.474 -0.8375  0.3271  0.3736
   97OSM   H11S 9640   7.081   2.473   9.485 -0.5663 -0.2410 -1.4761
   97OSM   H11T 9641   6.929   2.568   9.485 -0.8651  0.2443  1.0659
   97OSM   C12S 9642   6.970   2.416   9.330 -0.4798 -0.4070 -0.1373
   97OSM   H12S 9643   6.865   2.417   9.296 -0.4665 -2.0784 -0.2965
   97OSM   H12T 9644   6.997   2.308   9.326 -4.2275 -1.4623 -0.7056
   97OSM   C13S 9645   7.060   2.506   9.248  0.3647 -0.3856  0.0629
   97OSM   H13S 9646   7.155   2.534   9.297  0.6239  2.2504 -1.7571
   97OSM   H13T 9647   6.999   2.598   9.234 -1.2195 -1.2748  0.7982
   97OSM   C14S 9648   7.097   2.440   9.115 -0.7208 -0.5919 -0.5080
   97OSM   H14S 9649   7.169   2.359   9.142  0.1210  0.1145 -0.5693
   97OSM   H14T 9650   7.155   2.511   9.052 -0.1785  0.9772  1.6651
   97OSM   C15S 9651   6.976   2.372   9.049  0.3435  0.2977  0.4907
   97OSM   H15S 9652   6.896   2.448   9.049 -0.9424 -0.8553 -2.8309
   97OSM   H15T 9653   6.922   2.302   9.116 -0.2018  0.6778  0.4557
   97OSM   C16S 9654   6.989   2.336   8.904  0.2219 -0.8004 -0.2619
   97OSM   H16S 9655   7.040   2.238   8.908  0.0818 -0.8282  1.7176
   97OSM   H16T 9656   7.055   2.414   8.859 -0.5135 -1.0247 -1.8279
   97OSM   C17S 9657   6.848   2.323   8.837 -0.2712 -0.3392 -0.7244
   97OSM   H17S 9658   6.781   2.292   8.919  0.9021  0.6370  0.6572
   97OSM   H17T 9659   6.837   2.247   8.756 -2.3374 -0.7918 -0.0571
   97OSM   C18S 9660   6.802   2.456   8.773  0.2889 -0.4988  0.3046
   97OSM   H18S 9661   6.833   2.476   8.668  0.2991 -1.3560  0.1352
   97OSM   H18T 9662   6.853   2.532   8.836 -1.1240 -1.5247  2.8582
   97OSM   H18U 9663   6.691   2.466   8.768  0.1564 -2.1625 -0.6061
   97OSM    C1F 9664   6.507   2.399  10.335  0.1487 -0.3198  0.3468
   97OSM     OF 9665   6.397   2.457  10.354 -0.2086  0.3042 -1.1488
   97OSM    C2F 9666   6.516   2.260  10.296  0.4757  0.1883 -1.1257
   97OSM    H2F 9667   6.411   2.227  10.306 -0.1224  1.9911 -1.1057
   97OSM    H2G 9668   6.568   2.199  10.373 -1.1235 -0.9459 -0.8927
   97OSM    C3F 9669   6.573   2.231  10.157  0.2344 -0.2474  0.3452
   97OSM    H3F 9670   6.572   2.120  10.148  1.3084 -0.3412  1.1844
   97OSM    H3G 9671   6.677   2.270  10.150  0.2853 -0.4554 -0.0951
   97OSM    C4F 9672   6.499   2.289  10.034  0.2974 -0.2720 -0.3322
   97OSM    H4F 9673   6.507   2.400  10.034 -1.3115 -0.1211 -0.5694
   97OSM    H4G 9674   6.390   2.265  10.035  0.6509 -2.1754  2.4391
   97OSM    C5F 9675   6.555   2.236   9.896  0.1558  0.5034  0.3832
   97OSM    H5F 9676   6.541   2.126   9.886  0.0363  0.3493  1.9321
   97OSM    H5G 9677   6.665   2.257   9.900  0.2424  0.5754 -1.4461
   97OSM    C6F 9678   6.490   2.305   9.783 -0.2363 -0.1337  0.6698
   97OSM    H6F 9679   6.515   2.411   9.761  1.8967 -1.1656 -2.5120
   97OSM    H6G 9680   6.379   2.316   9.784 -0.7056 -2.6056 -3.1870
   97OSM    C7F 9681   6.530   2.239   9.651 -0.0102  0.1846  0.3320
   97OSM    H7F 9682   6.509   2.130   9.659 -3.5270  0.7170 -0.0730
   97OSM    H7G 9683   6.639   2.247   9.630  0.0323 -1.4339 -0.2291
   97OSM    C8F 9684   6.454   2.296   9.528 -0.2505  0.2837 -0.7433
   97OSM    H8F 9685   6.478   2.404   9.519  0.5631  0.2419  0.6311
   97OSM    H8G 9686   6.348   2.295   9.562 -0.9287 -3.2705 -2.4732
   97OSM    C9F 9687   6.470   2.217   9.401  0.5485 -0.5750  0.3602
   97OSM    H9F 9688   6.431   2.115   9.413  2.0873 -1.1141  0.9997
   97OSM   C10F 9689   6.520   2.253   9.282  0.8249 -0.1117 -0.4954
   97OSM   H10F 9690   6.526   2.174   9.205  3.0489 -0.3609 -0.1434
   97OSM   C11F 9691   6.581   2.385   9.238 -0.1119  0.4421  0.2395
   97OSM   H11F 9692   6.673   2.366   9.179 -0.8726  0.4620 -0.9904
   97OSM   H11G 9693   6.604   2.443   9.329  0.9107 -0.4787  0.5824
   97OSM   C12F 9694   6.487   2.468   9.153 -0.8270 -1.5414  0.0450
   97OSM   H12F 9695   6.515   2.575   9.143 -0.1566 -1.7815 -0.6882
   97OSM   H12G 9696   6.382   2.471   9.191 -0.1787 -0.7140  1.8928
   97OSM   C13F 9697   6.467   2.417   9.003  0.0541 -0.0094 -0.1075
   97OSM   H13F 9698   6.366   2.371   8.997  0.1087 -0.1025 -0.2978
   97OSM   H13G 9699   6.536   2.339   8.965 -0.0577  0.0845 -0.5129
   97OSM   C14F 9700   6.453   2.548   8.918 -0.2234 -0.0076 -0.2969
   97OSM   H14F 9701   6.454   2.514   8.812 -1.4984 -2.2568  0.3424
   97OSM   H14G 9702   6.542   2.608   8.948  1.1278 -1.3423 -1.5113
   97OSM   C15F 9703   6.322   2.626   8.953 -0.4152  0.1471 -0.2129
   97OSM   H15F 9704   6.356   2.702   9.027  0.0142 -0.3691  0.1311
   97OSM   H15G 9705   6.254   2.558   9.008  1.4540 -0.9470  0.8727
   97OSM   C16F 9706   6.245   2.702   8.839 -0.1077  0.1158  0.4529
   97OSM   H16F 9707   6.153   2.744   8.885  0.0514  0.4098  0.5062
   97OSM   H16G 9708   6.212   2.632   8.759 -0.0789 -0.2709  0.7759
   97OSM   C17F 9709   6.328   2.811   8.781  0.1205 -0.4811  0.2093
   97OSM   H17F 9710   6.419   2.771   8.734 -1.0169 -1.5842 -1.1351
   97OSM   H17G 9711   6.356   2.882   8.862 -0.5999 -0.6993  0.6668
   97OSM   C18F 9712   6.256   2.882   8.667  0.1081  0.2124  0.0523
   97OSM   H18F 9713   6.174   2.948   8.703 -1.5914  0.1285 -3.3354
   97OSM   H18G 9714   6.210   2.804   8.604  0.6502 -1.5146  1.6771
   97OSM   H18H 9715   6.321   2.945   8.602 -0.9967  2.0584  0.6676
   98OSM      N 9716   1.040   2.383  11.145 -0.1827 -0.1978  0.5273
   98OSM    C15 9717   1.027   2.230  11.148  0.8937  0.1145  0.1100
   98OSM   H15A 9718   1.005   2.197  11.249 -0.1732  2.6331  0.7789
   98OSM   H15B 9719   1.108   2.178  11.100  0.5613  2.0138 -2.7310
   98OSM   H15C 9720   0.934   2.205  11.100  0.2697 -0.6254  1.6403
   98OSM    C14 9721   0.945   2.435  11.249 -0.2444  0.0131 -0.0124
   98OSM   H14A 9722   0.977   2.409  11.348 -1.3901  2.3781  1.0587
   98OSM   H14B 9723   0.845   2.402  11.226  0.1665 -0.6125 -0.9736
   98OSM   H14C 9724   0.949   2.543  11.260  2.1183 -0.1192  1.0265
   98OSM    C13 9725   1.178   2.416  11.185  0.0821  0.1494 -0.5634
   98OSM   H13A 9726   1.203   2.518  11.212 -0.7978  0.0627  0.6153
   98OSM   H13B 9727   1.254   2.386  11.113  0.1046  1.6023 -1.1915
   98OSM   H13C 9728   1.198   2.354  11.271 -2.3274 -0.6510 -0.5267
   98OSM    C12 9729   0.991   2.439  11.007 -0.3931 -0.9823 -0.0592
   98OSM   H12A 9730   1.002   2.547  11.012  0.1812 -0.9740 -1.1829
   98OSM   H12B 9731   0.885   2.418  11.008 -0.6903  0.3901  0.6212
   98OSM    C11 9732   1.050   2.401  10.880 -0.2170  0.2505 -0.0497
   98OSM   H11A 9733   1.160   2.419  10.884 -0.2856  0.6191  0.2348
   98OSM   H11B 9734   1.009   2.455  10.792 -1.4259 -1.3483 -0.5065
   98OSM      P 9735   0.893   2.210  10.807  0.1215  0.2424  0.2409
   98OSM    O13 9736   0.903   2.063  10.777  0.7204  0.4017 -0.1030
   98OSM    O14 9737   0.790   2.254  10.907 -0.2212 -0.4142 -0.3437
   98OSM    O11 9738   0.867   2.282  10.669 -0.2706  0.0507 -0.5564
   98OSM    O12 9739   1.027   2.266  10.857 -0.1341 -0.3234  0.8053
   98OSM    C1S 9740   0.962   2.265  10.565  0.7874 -0.0462  1.3352
   98OSM    H1S 9741   1.011   2.166  10.561  3.7244  1.3449 -1.1390
   98OSM    H1T 9742   1.046   2.338  10.565  0.6726  0.0928  0.8856
   98OSM     NF 9743   0.965   2.244  10.320  0.4915  0.4776 -0.5941
   98OSM    HNF 9744   0.995   2.313  10.254 -0.0198 -1.9400 -3.5765
   98OSM    C2S 9745   0.880   2.280  10.427  0.6448  0.1958  0.4664
   98OSM    H2S 9746   0.792   2.213  10.419  1.7380 -1.4916  1.7561
   98OSM    C3S 9747   0.839   2.425  10.407  0.2449 -0.8747  0.6296
   98OSM    H3S 9748   0.926   2.492  10.394 -1.3372  0.7500 -3.4064
   98OSM     O3 9749   0.764   2.475  10.517 -0.4398 -0.7338 -0.4711
   98OSM    HO3 9750   0.767   2.400  10.577 -1.3506 -1.2089 -0.9874
   98OSM    C4S 9751   0.745   2.436  10.287  0.4504 -0.7860  0.1927
   98OSM    H4S 9752   0.647   2.388  10.299  0.6547 -1.1978  0.2630
   98OSM    C5S 9753   0.777   2.494  10.174  0.0151  0.8035 -0.4330
   98OSM    H5S 9754   0.873   2.549  10.169 -0.5528  1.8744  0.0083
   98OSM    C6S 9755   0.690   2.501  10.052 -0.0770  0.8619 -1.3173
   98OSM    H6S 9756   0.663   2.607  10.034  1.2010  1.5977  0.7135
   98OSM    H6T 9757   0.599   2.444  10.078  0.8808  1.1231  3.5973
   98OSM    C7S 9758   0.762   2.428   9.931  0.1664 -0.0569 -0.1730
   98OSM    H7S 9759   0.698   2.430   9.841  1.7405 -0.5796 -1.3483
   98OSM    H7T 9760   0.786   2.328   9.973  1.2548  1.1249  2.2517
   98OSM    C8S 9761   0.891   2.499   9.887 -0.2199 -0.0753 -0.2205
   98OSM    H8S 9762   0.963   2.502   9.971  0.1936  1.2560 -0.6153
   98OSM    H8T 9763   0.861   2.597   9.845 -0.3421 -0.5211 -1.2276
   98OSM    C9S 9764   0.969   2.437   9.771 -0.1899 -0.3027 -0.2859
   98OSM    H9S 9765   0.940   2.329   9.770  1.7794 -0.8622 -0.4762
   98OSM    H9T 9766   1.079   2.435   9.783 -0.2523  1.2133  0.9072
   98OSM   C10S 9767   0.952   2.506   9.640 -0.0673 -0.5328 -0.1483
   98OSM   H10S 9768   1.001   2.605   9.656  0.4369 -0.7830 -0.1336
   98OSM   H10T 9769   0.845   2.524   9.617 -0.0317 -0.0953  0.0143
   98OSM   C11S 9770   1.008   2.425   9.518 -0.5397  0.4403  0.3785
   98OSM   H11S 9771   0.961   2.325   9.528  2.1644 -0.8307  1.2404
   98OSM   H11T 9772   1.118   2.418   9.532  0.1316  1.1854 -3.3389
   98OSM   C12S 9773   0.972   2.502   9.386 -0.5808  0.3050 -0.1820
   98OSM   H12S 9774   1.007   2.607   9.379  1.0149 -0.3116 -2.6128
   98OSM   H12T 9775   0.861   2.499   9.378 -0.5984 -1.8672  0.2506
   98OSM   C13S 9776   1.036   2.431   9.265 -0.4235 -0.8291 -0.5427
   98OSM   H13S 9777   0.991   2.329   9.265  0.2915 -1.1578  0.8114
   98OSM   H13T 9778   1.146   2.425   9.276 -0.5590 -1.8190  0.4174
   98OSM   C14S 9779   1.000   2.498   9.137  0.6322  0.7782 -0.5726
   98OSM   H14S 9780   1.054   2.594   9.121  0.5655  0.6423 -1.6671
   98OSM   H14T 9781   0.892   2.525   9.145  0.4324 -0.2852  0.6666
   98OSM   C15S 9782   1.030   2.415   9.016  0.7693 -0.2914 -0.9032
   98OSM   H15S 9783   0.991   2.463   8.924  0.5840  2.4461  0.4948
   98OSM   H15T 9784   0.974   2.319   9.024  0.5953 -0.1588 -0.5264
   98OSM   C16S 9785   1.181   2.390   8.998 -0.0531  0.3423  0.7046
   98OSM   H16S 9786   1.224   2.335   9.084 -1.8440 -0.1581  1.3161
   98OSM   H16T 9787   1.232   2.487   8.978 -2.3156  1.5385  0.4157
   98OSM   C17S 9788   1.209   2.301   8.867 -0.2495 -0.4882 -0.1327
   98OSM   H17S 9789   1.320   2.294   8.859 -0.1228  0.2868  0.8096
   98OSM   H17T 9790   1.161   2.362   8.787 -0.0419  2.5908  1.9233
   98OSM   C18S 9791   1.147   2.163   8.850  0.0800  0.1810 -0.8718
   98OSM   H18S 9792   1.150   2.110   8.947  1.0008 -1.6470 -1.8351
   98OSM   H18T 9793   1.193   2.095   8.775 -2.0997 -2.9122  0.3576
   98OSM   H18U 9794   1.039   2.180   8.831 -0.6893 -3.1622 -0.1859
   98OSM    C1F 9795   1.009   2.119  10.300  0.4848  0.0101  0.2596
   98OSM     OF 9796   0.935   2.028  10.329  0.2731  0.0408  0.6906
   98OSM    C2F 9797   1.137   2.098  10.222  0.1973  0.1226  0.1738
   98OSM    H2F 9798   1.220   2.098  10.296 -0.6726 -2.1345  1.2629
   98OSM    H2G 9799   1.143   2.182  10.150 -1.0593 -0.3051 -0.4599
   98OSM    C3F 9800   1.148   1.973  10.129  0.0813  0.6642 -0.0443
   98OSM    H3F 9801   1.145   1.884  10.195  0.7385  1.2087  0.7421
   98OSM    H3G 9802   1.245   1.967  10.075  0.7096 -0.9299  1.1961
   98OSM    C4F 9803   1.029   1.957  10.031 -0.3986 -0.2286  0.2823
   98OSM    H4F 9804   0.937   2.001  10.074 -0.6974 -0.8361  0.2733
   98OSM    H4G 9805   1.017   1.849  10.008  1.9163 -0.4913  0.0595
   98OSM    C5F 9806   1.055   2.023   9.895  0.5243  0.2599 -0.1508
   98OSM    H5F 9807   1.147   1.979   9.852  0.9057  2.2428 -1.4530
   98OSM    H5G 9808   1.066   2.133   9.909 -1.3445  0.4820 -0.0813
   98OSM    C6F 9809   0.936   2.004   9.806 -0.4155  0.0663  0.7917
   98OSM    H6F 9810   0.869   2.085   9.843  1.3443  1.7149  0.5273
   98OSM    H6G 9811   0.871   1.913   9.802 -0.0409 -0.1528 -1.7590
   98OSM    C7F 9812   0.987   2.048   9.664  0.3058  0.2030  0.6310
   98OSM    H7F 9813   1.063   1.973   9.633 -1.0654 -0.1349 -2.2212
   98OSM    H7G 9814   1.027   2.152   9.671 -0.3641  0.5226 -0.0899
   98OSM    C8F 9815   0.871   2.051   9.562 -0.2272 -0.1669  0.1345
   98OSM    H8F 9816   0.900   2.114   9.475  1.4607  0.0942  0.8572
   98OSM    H8G 9817   0.784   2.110   9.600 -0.1067  0.1838 -0.1291
   98OSM    C9F 9818   0.822   1.930   9.498 -0.1306 -0.2177  0.7616
   98OSM    H9F 9819   0.744   1.878   9.556  0.1294 -0.9484  0.4693
   98OSM   C10F 9820   0.849   1.872   9.376  0.6959 -1.3635  0.2796
   98OSM   H10F 9821   0.811   1.770   9.366 -0.3545 -1.0115  0.5330
   98OSM   C11F 9822   0.946   1.928   9.270  0.1367  0.1943 -0.7124
   98OSM   H11F 9823   1.005   2.009   9.319 -2.1265  0.7615  1.2398
   98OSM   H11G 9824   0.916   1.980   9.177  1.2892 -0.1055 -1.2700
   98OSM   C12F 9825   1.057   1.833   9.222 -0.4148  0.8551 -0.7491
   98OSM   H12F 9826   1.109   1.799   9.314 -1.7012  0.0231 -0.3107
   98OSM   H12G 9827   1.130   1.894   9.165  0.3326  0.2331 -0.4788
   98OSM   C13F 9828   1.023   1.707   9.140 -0.1482 -0.7791  0.0373
   98OSM   H13F 9829   0.948   1.657   9.204 -1.1660  0.5434 -0.0997
   98OSM   H13G 9830   1.108   1.636   9.141  0.3445 -0.1993  0.3923
   98OSM   C14F 9831   0.990   1.729   8.994  0.4431  1.0509 -0.3458
   98OSM   H14F 9832   0.893   1.782   8.993 -1.7327 -2.5944 -1.8363
   98OSM   H14G 9833   0.953   1.636   8.945 -1.6652  1.8251 -0.2967
   98OSM   C15F 9834   1.096   1.793   8.910 -0.4970 -0.7155  0.1963
   98OSM   H15F 9835   1.186   1.731   8.928  0.5439  0.1455 -1.7978
   98OSM   H15G 9836   1.117   1.893   8.954  0.3838  0.4644 -2.6908
   98OSM   C16F 9837   1.073   1.813   8.766  0.4503 -0.7422  0.5387
   98OSM   H16F 9838   1.064   1.713   8.719 -3.6656 -0.3249  0.0018
   98OSM   H16G 9839   1.164   1.863   8.726  1.7820 -1.8153  2.1282
   98OSM   C17F 9840   0.939   1.897   8.734 -0.4691  0.7586 -0.3943
   98OSM   H17F 9841   0.968   1.975   8.660  0.0346 -0.1267 -1.1616
   98OSM   H17G 9842   0.916   1.952   8.828  1.7508 -0.5230  1.0110
   98OSM   C18F 9843   0.817   1.812   8.681 -0.3379 -0.3109  0.5543
   98OSM   H18F 9844   0.722   1.869   8.679 -0.4584 -0.5297 -0.6064
   98OSM   H18G 9845   0.804   1.731   8.756  1.8476 -0.6735  0.5997
   98OSM   H18H 9846   0.834   1.768   8.580  3.0669  0.5111  0.6407
   99OSM      N 9847   3.133   2.611  11.083  0.1698 -0.2696  0.3520
   99OSM    C15 9848   3.237   2.707  11.041  0.0426 -0.1589  0.4627
   99OSM   H15A 9849   3.264   2.699  10.937  1.9382  0.0896  0.9044
   99OSM   H15B 9850   3.327   2.684  11.096 -0.7088 -2.8298  0.6984
   99OSM   H15C 9851   3.202   2.809  11.055 -0.8030 -0.3375 -0.2272
   99OSM    C14 9852   3.110   2.612  11.228  0.4865 -0.4664 -0.0809
   99OSM   H14A 9853   3.182   2.559  11.288 -0.0029 -1.0874 -0.0292
   99OSM   H14B 9854   3.015   2.567  11.252 -0.1874  0.4784 -0.8610
   99OSM   H14C 9855   3.105   2.716  11.260 -2.6012 -0.3341 -0.6374
   99OSM    C13 9856   3.002   2.630  11.018  0.2396  1.0451 -0.2073
   99OSM   H13A 9857   2.962   2.730  11.028 -2.1569  0.1033  0.2105
   99OSM   H13B 9858   2.936   2.560  11.067 -0.4121  1.5399 -0.3697
   99OSM   H13C 9859   3.000   2.592  10.917 -1.5225 -2.9055  1.1070
   99OSM    C12 9860   3.170   2.470  11.052 -1.0483 -0.4675 -0.3222
   99OSM   H12A 9861   3.094   2.414  11.104  0.3946  0.6600  3.3409
   99OSM   H12B 9862   3.260   2.444  11.107 -0.4031 -0.6864 -1.4396
   99OSM    C11 9863   3.187   2.426  10.904  0.1112 -0.1552 -0.5731
   99OSM   H11A 9864   3.232   2.324  10.897 -0.2470 -0.3129 -0.6128
   99OSM   H11B 9865   3.265   2.491  10.861 -2.1521  2.9525 -0.2690
   99OSM      P 9866   2.980   2.308  10.810 -0.1021  0.0592  0.1543
   99OSM    O13 9867   3.005   2.205  10.918 -0.3058  0.4019  0.3875
   99OSM    O14 9868   2.845   2.345  10.795  0.8330  0.0305 -0.6414
   99OSM    O11 9869   3.035   2.249  10.671 -0.1644 -0.9701 -0.2765
   99OSM    O12 9870   3.067   2.438  10.824  0.0681  0.9625 -0.2035
   99OSM    C1S 9871   3.088   2.324  10.565 -0.6870 -0.3190 -0.2300
   99OSM    H1S 9872   3.190   2.361  10.590 -0.1695 -0.6872 -1.7338
   99OSM    H1T 9873   3.023   2.413  10.548  0.6068  0.5980 -0.5198
   99OSM     NF 9874   3.102   2.328  10.331  0.6009  0.9009  0.0938
   99OSM    HNF 9875   3.045   2.405  10.304 -0.1916  0.4412  0.4521
   99OSM    C2S 9876   3.070   2.251  10.446 -0.2261 -0.1524 -0.1054
   99OSM    H2S 9877   3.138   2.163  10.449  0.3017  0.2683  2.0463
   99OSM    C3S 9878   2.938   2.188  10.431  0.4431 -0.1123 -0.0632
   99OSM    H3S 9879   2.860   2.265  10.453  2.5094  1.4657  2.2774
   99OSM     O3 9880   2.913   2.078  10.524  0.6186  0.6757  0.1076
   99OSM    HO3 9881   2.990   2.081  10.580 -0.5539  2.1750  1.7436
   99OSM    C4S 9882   2.926   2.132  10.288 -0.4775  0.1066 -0.2562
   99OSM    H4S 9883   3.016   2.080  10.253 -1.0992  0.1225 -1.9550
   99OSM    C5S 9884   2.838   2.170  10.194  0.6271  0.2418 -0.5617
   99OSM    H5S 9885   2.766   2.246  10.229 -2.7027 -2.7696 -0.2635
   99OSM    C6S 9886   2.835   2.129  10.051 -0.0126  0.4016  0.4274
   99OSM    H6S 9887   2.736   2.139  10.002  0.9902  0.5398 -1.6824
   99OSM    H6T 9888   2.849   2.018  10.047  0.5466  0.4810  0.0874
   99OSM    C7S 9889   2.943   2.196   9.970 -0.3633 -0.0428 -0.1847
   99OSM    H7S 9890   3.045   2.178  10.010  0.1136 -1.1425 -1.7802
   99OSM    H7T 9891   2.915   2.304   9.969 -1.3500 -0.2465  1.4357
   99OSM    C8S 9892   2.945   2.152   9.823  0.1569  0.2023  0.2562
   99OSM    H8S 9893   3.009   2.222   9.765  1.9702 -0.6947  1.1012
   99OSM    H8T 9894   2.841   2.156   9.783  0.9371  1.9578 -1.8141
   99OSM    C9S 9895   2.994   2.009   9.796 -0.1384 -0.1840  0.1878
   99OSM    H9S 9896   2.940   1.942   9.866 -0.2416  0.7537  1.0350
   99OSM    H9T 9897   3.101   2.000   9.824  0.6552 -1.6872 -2.9994
   99OSM   C10S 9898   2.975   1.979   9.647  0.8360  0.5096  0.3324
   99OSM   H10S 9899   3.039   2.048   9.589  0.6150  0.4088 -0.0391
   99OSM   H10T 9900   2.870   2.003   9.618  1.4035  0.4086 -2.0312
   99OSM   C11S 9901   2.994   1.834   9.610 -0.9462 -0.0679  0.5114
   99OSM   H11S 9902   2.943   1.769   9.684 -0.6148  0.5921  1.3460
   99OSM   H11T 9903   3.102   1.809   9.625 -0.9289  0.6915  1.7885
   99OSM   C12S 9904   2.978   1.791   9.457  0.6473 -0.8950  0.8820
   99OSM   H12S 9905   3.003   1.682   9.455  2.1290 -0.5658 -0.1146
   99OSM   H12T 9906   2.869   1.798   9.437  0.3756  1.0242  2.6805
   99OSM   C13S 9907   3.068   1.858   9.360  0.0074  0.1188  0.2146
   99OSM   H13S 9908   3.071   1.969   9.359 -0.3828  0.1777 -2.3130
   99OSM   H13T 9909   3.038   1.823   9.259  0.3623 -2.0676  0.8185
   99OSM   C14S 9910   3.221   1.820   9.379 -0.0517  0.6244  0.1271
   99OSM   H14S 9911   3.248   1.819   9.487 -0.1169 -2.8217  0.2354
   99OSM   H14T 9912   3.297   1.879   9.324 -0.4833 -0.2225 -1.4234
   99OSM   C15S 9913   3.244   1.671   9.337 -0.3499 -0.3731 -0.4816
   99OSM   H15S 9914   3.222   1.650   9.230  0.8993 -1.6372 -0.5160
   99OSM   H15T 9915   3.174   1.612   9.400 -0.9053  0.1702 -0.5756
   99OSM   C16S 9916   3.386   1.627   9.377  0.8602 -0.5534 -0.6005
   99OSM   H16S 9917   3.386   1.634   9.488  1.8041 -1.0068 -0.5676
   99OSM   H16T 9918   3.458   1.703   9.340 -0.9998  1.6105  0.0057
   99OSM   C17S 9919   3.433   1.490   9.309  0.8638 -0.1405 -0.0437
   99OSM   H17S 9920   3.543   1.480   9.311  0.7673 -1.7563 -1.3317
   99OSM   H17T 9921   3.399   1.490   9.203  0.7460  1.5532 -0.0317
   99OSM   C18S 9922   3.369   1.370   9.381 -1.0492 -0.0933 -0.2109
   99OSM   H18S 9923   3.387   1.375   9.491  1.9655  2.1755 -0.6677
   99OSM   H18T 9924   3.394   1.272   9.335 -1.7492 -0.5822  0.4261
   99OSM   H18U 9925   3.261   1.373   9.358 -1.0173  1.6480 -0.2411
   99OSM    C1F 9926   3.228   2.323  10.289 -0.2050 -0.3511  0.3647
   99OSM     OF 9927   3.322   2.294  10.365 -0.0729 -0.0693 -0.1232
   99OSM    C2F 9928   3.252   2.365  10.148 -0.3716 -0.3693 -0.0247
   99OSM    H2F 9929   3.241   2.476  10.147 -0.4266 -0.1911  3.8501
   99OSM    H2G 9930   3.182   2.314  10.080 -0.7154  2.6695 -2.1804
   99OSM    C3F 9931   3.387   2.327  10.106  0.4757  0.5437  0.6147
   99OSM    H3F 9932   3.468   2.378  10.162  1.3120 -0.6661  0.5548
   99OSM    H3G 9933   3.398   2.216  10.110 -2.4404  0.1132 -0.9085
   99OSM    C4F 9934   3.409   2.372   9.962  0.4726  0.5786  0.2499
   99OSM    H4F 9935   3.519   2.369   9.945  0.5299 -0.7250  0.7382
   99OSM    H4G 9936   3.375   2.477   9.956 -1.7904 -0.1832 -1.9841
   99OSM    C5F 9937   3.317   2.298   9.854 -0.6757 -0.3987 -0.1232
   99OSM    H5F 9938   3.217   2.269   9.893 -0.1319 -1.8002  0.2828
   99OSM    H5G 9939   3.376   2.204   9.846  2.8669  1.6649 -0.2847
   99OSM    C6F 9940   3.325   2.371   9.719  0.4758  0.0754 -0.2133
   99OSM    H6F 9941   3.435   2.380   9.705  0.3681  0.8757 -0.6080
   99OSM    H6G 9942   3.275   2.470   9.728  0.9616  0.1828  1.6533
   99OSM    C7F 9943   3.255   2.291   9.608  0.2829  0.0557  0.1483
   99OSM    H7F 9944   3.148   2.306   9.633  0.2330 -0.6763  0.4012
   99OSM    H7G 9945   3.284   2.183   9.610  2.2757  0.5159 -0.9423
   99OSM    C8F 9946   3.279   2.333   9.463 -0.2960 -0.1685  0.5207
   99OSM    H8F 9947   3.245   2.437   9.442  0.2409 -0.0625  0.1593
   99OSM    H8G 9948   3.217   2.258   9.408  0.6165  0.1292 -0.9825
   99OSM    C9F 9949   3.425   2.320   9.417 -0.0365 -0.4357 -0.0152
   99OSM    H9F 9950   3.499   2.379   9.473 -0.2734  2.1573 -2.2604
   99OSM   C10F 9951   3.475   2.249   9.310 -0.6881 -0.0344  0.4251
   99OSM   H10F 9952   3.584   2.242   9.295 -0.6542 -0.1285  0.7146
   99OSM   C11F 9953   3.383   2.153   9.232 -0.8774  0.0560  0.0305
   99OSM   H11F 9954   3.313   2.096   9.297 -1.1951  1.9245  1.3990
   99OSM   H11G 9955   3.452   2.093   9.168  1.2589 -0.2587  2.4544
   99OSM   C12F 9956   3.283   2.220   9.138  0.4704 -0.0716 -0.4587
   99OSM   H12F 9957   3.337   2.270   9.054 -0.4692  0.4298 -0.7796
   99OSM   H12G 9958   3.235   2.304   9.193  1.1033  1.9033 -2.7436
   99OSM   C13F 9959   3.180   2.131   9.074 -0.3575 -0.2172  0.3357
   99OSM   H13F 9960   3.123   2.198   9.005 -1.2036 -2.0351 -0.7939
   99OSM   H13G 9961   3.114   2.085   9.150 -0.5997  2.0607  1.6105
   99OSM   C14F 9962   3.241   2.010   8.983 -0.2254  0.0523 -0.3137
   99OSM   H14F 9963   3.315   1.955   9.044 -0.9874  0.3270  0.8966
   99OSM   H14G 9964   3.296   2.058   8.899  0.4253  0.7397  0.4910
   99OSM   C15F 9965   3.140   1.907   8.940 -0.6656 -0.2903  0.9021
   99OSM   H15F 9966   3.099   1.845   9.023 -1.3616 -1.5953 -0.3805
   99OSM   H15G 9967   3.190   1.830   8.877  0.4347  1.7746 -0.8527
   99OSM   C16F 9968   3.022   1.980   8.865  0.0108  0.1065  0.3084
   99OSM   H16F 9969   3.074   2.050   8.796 -0.1300 -0.4553 -0.3713
   99OSM   H16G 9970   2.962   2.042   8.935 -2.2793 -0.3579 -1.1391
   99OSM   C17F 9971   2.934   1.898   8.771  0.5681  0.0562 -0.4645
   99OSM   H17F 9972   2.876   1.830   8.837  2.0688  0.6548  1.5707
   99OSM   H17G 9973   3.009   1.840   8.712 -0.6992 -0.4001 -1.6937
   99OSM   C18F 9974   2.825   1.960   8.683 -0.2824 -0.3904 -0.5194
   99OSM   H18F 9975   2.736   1.983   8.745  1.9136  0.0830  2.7291
   99OSM   H18G 9976   2.799   1.890   8.601  0.2652  0.7047 -1.6613
   99OSM   H18H 9977   2.856   2.057   8.638  0.1332  0.3914  1.3722
  100OSM      N 9978   5.226   5.276  10.749 -1.2226 -0.2634 -0.0502
  100OSM    C15 9979   5.348   5.356  10.727 -0.1075  0.5755  0.3449
  100OSM   H15A 9980   5.347   5.412  10.635  0.2765  0.1712  0.0840
  100OSM   H15B 9981   5.439   5.298  10.739  0.6576  2.0205  2.0800
  100OSM   H15C 9982   5.351   5.427  10.809 -2.8412  0.5961  0.4947
  100OSM    C14 9983   5.238   5.202  10.879  0.4118  0.9955  0.3324
  100OSM   H14A 9984   5.312   5.123  10.874 -2.1219 -1.5899  0.6602
  100OSM   H14B 9985   5.140   5.160  10.900  0.2784  1.2367  0.1948
  100OSM   H14C 9986   5.263   5.270  10.959 -0.9033  0.4139  1.2735
  100OSM    C13 9987   5.109   5.357  10.760 -0.1227  0.3643  0.0568
  100OSM   H13A 9988   5.114   5.428  10.841  1.6542  0.7802 -0.3657
  100OSM   H13B 9989   5.020   5.298  10.771 -0.8591  1.4558  0.0534
  100OSM   H13C 9990   5.094   5.413  10.669 -1.3307 -0.5728 -0.3432
  100OSM    C12 9991   5.213   5.183  10.629 -0.0699  0.7322  0.1320
  100OSM   H12A 9992   5.183   5.234  10.539 -1.9157 -1.1408 -0.3846
  100OSM   H12B 9993   5.135   5.111  10.647  1.2315 -0.2476  2.3383
  100OSM    C11 9994   5.336   5.091  10.591 -0.1179  0.0326 -0.4061
  100OSM   H11A 9995   5.425   5.157  10.582 -1.5122  2.3369  1.6011
  100OSM   H11B 9996   5.320   5.046  10.491  3.4050  0.1332 -1.1606
  100OSM      P 9997   5.469   4.893  10.717  0.2524  0.0469  0.5965
  100OSM    O13 9998   5.575   4.973  10.773 -0.5549  0.0319 -0.3479
  100OSM    O14 9999   5.430   4.772  10.795 -0.7955 -0.0838 -0.5088
  100OSM    O1110000   5.511   4.835  10.574 -0.1009 -0.6851 -0.3306
  100OSM    O1210001   5.341   4.986  10.690 -0.0027 -0.1248  0.2915
  100OSM    C1S10002   5.617   4.743  10.573  1.1292 -0.3058  0.3710
  100OSM    H1S10003   5.588   4.644  10.615  0.9760 -1.7540 -2.8237
  100OSM    H1T10004   5.706   4.783  10.625 -0.0818 -0.1893  2.4406
  100OSM     NF10005   5.758   4.602  10.399  0.0000 -0.5714 -0.9006
  100OSM    HNF10006   5.843   4.619  10.350 -0.2456  0.2033 -1.0819
  100OSM    C2S10007   5.662   4.715  10.424  0.1487  0.2129 -0.2100
  100OSM    H2S10008   5.570   4.695  10.363 -1.7060  0.2630  2.4160
  100OSM    C3S10009   5.707   4.851  10.364 -0.1295  0.1074  0.1770
  100OSM    H3S10010   5.785   4.902  10.425 -0.3668 -0.2623  0.8013
  100OSM     O310011   5.603   4.945  10.361 -0.4492  0.3811  0.0210
  100OSM    HO310012   5.540   4.919  10.429 -0.3194 -0.2157 -0.0822
  100OSM    C4S10013   5.753   4.833  10.219 -0.8414 -0.4697 -0.2839
  100OSM    H4S10014   5.677   4.803  10.145 -0.5947  1.5995 -1.4466
  100OSM    C5S10015   5.880   4.861  10.184 -0.6675  0.2429  0.5027
  100OSM    H5S10016   5.960   4.889  10.254 -0.3696  0.6406  0.0089
  100OSM    C6S10017   5.933   4.860  10.049 -0.5889  0.4800 -0.2866
  100OSM    H6S10018   5.968   4.757  10.029  1.3582  0.2344  3.5268
  100OSM    H6T10019   6.024   4.925  10.051 -0.6210  0.5100  0.3654
  100OSM    C7S10020   5.842   4.924   9.938 -0.3447  0.3251 -0.0460
  100OSM    H7S10021   5.816   5.029   9.961  2.0811  1.0281 -0.2592
  100OSM    H7T10022   5.753   4.859   9.918 -0.4938  0.0805  1.2806
  100OSM    C8S10023   5.928   4.939   9.809 -0.1445  0.7553  0.5600
  100OSM    H8S10024   5.984   4.847   9.781 -0.9603  0.7287 -1.1236
  100OSM    H8T10025   6.002   5.021   9.823 -0.1298  0.8602 -0.1195
  100OSM    C9S10026   5.850   4.977   9.680 -0.0605 -0.2714 -0.0445
  100OSM    H9S10027   5.831   5.086   9.683  1.7292  0.0490  1.5072
  100OSM    H9T10028   5.755   4.920   9.672  0.2042 -1.1413  2.1233
  100OSM   C10S10029   5.923   4.938   9.550 -0.1678 -0.4016  0.1507
  100OSM   H10S10030   5.948   4.830   9.539 -1.4008 -0.5152 -2.0242
  100OSM   H10T10031   6.014   5.002   9.558 -0.7160  0.4148 -0.0856
  100OSM   C11S10032   5.844   4.981   9.432  0.4895 -0.4289  0.0614
  100OSM   H11S10033   5.818   5.089   9.435  1.4544 -0.2097  2.4418
  100OSM   H11T10034   5.744   4.932   9.430  0.1850  0.1894  0.0422
  100OSM   C12S10035   5.904   4.959   9.294 -0.3184  0.2630 -0.1650
  100OSM   H12S10036   5.947   4.858   9.279  0.4085  0.2604  1.6853
  100OSM   H12T10037   5.991   5.028   9.283  0.6048 -0.8535 -0.1300
  100OSM   C13S10038   5.806   4.970   9.171  0.0381 -0.4935 -0.0791
  100OSM   H13S10039   5.713   4.915   9.198 -0.4466 -0.6696 -1.9665
  100OSM   H13T10040   5.847   4.906   9.091 -0.4119 -0.8933 -0.0001
  100OSM   C14S10041   5.765   5.108   9.130 -0.3129 -0.1543 -0.0897
  100OSM   H14S10042   5.842   5.181   9.164 -1.2708 -0.4779  3.0802
  100OSM   H14T10043   5.669   5.136   9.179 -0.2798  0.0303 -0.1285
  100OSM   C15S10044   5.762   5.118   8.979  0.7310 -0.0475  0.2506
  100OSM   H15S10045   5.677   5.063   8.931 -1.3411  3.0476  0.1082
  100OSM   H15T10046   5.853   5.080   8.928 -0.5559  0.2505 -2.4797
  100OSM   C16S10047   5.740   5.262   8.921  0.2897  0.6488 -0.5490
  100OSM   H16S10048   5.771   5.328   9.005  0.7060  0.7912 -0.8132
  100OSM   H16T10049   5.637   5.286   8.886 -0.1944 -0.9297 -0.3204
  100OSM   C17S10050   5.851   5.281   8.815  0.2053 -0.2092  0.3373
  100OSM   H17S10051   5.948   5.238   8.848 -0.5871 -1.2460  1.4208
  100OSM   H17T10052   5.866   5.390   8.805  2.8476 -0.6126 -0.9559
  100OSM   C18S10053   5.811   5.235   8.674  0.4214 -0.2719 -0.6339
  100OSM   H18S10054   5.796   5.125   8.675  3.0610 -0.6906  0.8054
  100OSM   H18T10055   5.889   5.265   8.601  0.8060  0.0409 -0.1033
  100OSM   H18U10056   5.715   5.273   8.633 -0.5401 -2.3621 -0.4542
  100OSM    C1F10057   5.738   4.478  10.430 -0.4475  0.4450  0.9320
  100OSM     OF10058   5.625   4.432  10.448  0.1037  0.2257 -0.0795
  100OSM    C2F10059   5.852   4.392  10.438  0.1588  0.2929  0.4619
  100OSM    H2F10060   5.823   4.285  10.446  0.6824  0.1491  0.4711
  100OSM    H2G10061   5.905   4.422  10.531 -1.6046  0.0925  1.5797
  100OSM    C3F10062   5.946   4.415  10.314  0.2302  0.6014 -0.8301
  100OSM    H3F10063   6.032   4.351  10.341 -0.5878  0.2164  1.0345
  100OSM    H3G10064   5.990   4.517  10.307 -1.5909  1.4897 -0.1008
  100OSM    C4F10065   5.902   4.362  10.173  0.4333  0.0466  0.6700
  100OSM    H4F10066   5.853   4.263  10.184  2.1491 -0.9535 -0.2833
  100OSM    H4G10067   5.992   4.355  10.109 -0.1138  1.0317 -0.2425
  100OSM    C5F10068   5.794   4.450  10.099  0.7207  0.6678 -0.6263
  100OSM    H5F10069   5.834   4.552  10.084  3.8698 -0.6648 -2.3377
  100OSM    H5G10070   5.705   4.447  10.164 -0.0921  0.8489 -1.7064
  100OSM    C6F10071   5.770   4.380   9.960 -0.3904 -0.0206 -0.6687
  100OSM    H6F10072   5.723   4.280   9.973  0.0312 -0.0759  0.6048
  100OSM    H6G10073   5.869   4.364   9.911 -0.7530  1.3409 -1.8941
  100OSM    C7F10074   5.682   4.451   9.866 -0.2454  0.0080  0.1348
  100OSM    H7F10075   5.589   4.474   9.922 -0.7631  2.5844 -1.6582
  100OSM    H7G10076   5.668   4.382   9.780  2.2688 -0.0353 -0.3213
  100OSM    C8F10077   5.746   4.586   9.825 -0.3815  0.2277 -0.1669
  100OSM    H8F10078   5.763   4.652   9.912 -0.1802 -0.8688  0.6583
  100OSM    H8G10079   5.674   4.638   9.759 -0.7253 -0.7221 -0.5695
  100OSM    C9F10080   5.872   4.575   9.748 -0.4190 -0.2965  0.3427
  100OSM    H9F10081   5.967   4.582   9.802  0.0206  1.7204 -0.5891
  100OSM   C10F10082   5.892   4.584   9.616 -0.3520  0.7374  0.4138
  100OSM   H10F10083   5.993   4.582   9.573 -0.7778  0.0597 -0.6077
  100OSM   C11F10084   5.783   4.596   9.513 -0.5450 -0.9059 -0.0464
  100OSM   H11F10085   5.771   4.706   9.507 -1.4366 -1.0379 -0.8213
  100OSM   H11G10086   5.691   4.541   9.541 -0.9302 -0.6049 -0.6991
  100OSM   C12F10087   5.839   4.556   9.374  0.0357  0.6674 -0.7075
  100OSM   H12F10088   5.854   4.445   9.373 -1.0388  0.3141  3.4834
  100OSM   H12G10089   5.933   4.609   9.351  0.9339  0.3343  1.8059
  100OSM   C13F10090   5.739   4.579   9.256 -0.4775  0.0343 -0.0393
  100OSM   H13F10091   5.702   4.684   9.259  0.9623  0.6309 -1.3120
  100OSM   H13G10092   5.650   4.516   9.274 -0.8876  0.5328 -0.2758
  100OSM   C14F10093   5.794   4.549   9.115 -0.5061 -0.0625  1.0167
  100OSM   H14F10094   5.848   4.452   9.110  1.7599  1.1738 -1.5479
  100OSM   H14G10095   5.874   4.623   9.093 -0.2956 -0.7963 -0.8609
  100OSM   C15F10096   5.692   4.560   9.006 -0.1900  0.0874  0.4503
  100OSM   H15F10097   5.684   4.668   8.982  0.7925  0.1263  0.2622
  100OSM   H15G10098   5.594   4.529   9.050 -0.5992  0.7557  0.0290
  100OSM   C16F10099   5.711   4.472   8.883 -0.2408  0.0405 -0.8302
  100OSM   H16F10100   5.753   4.378   8.924 -1.0577 -0.3506 -0.8728
  100OSM   H16G10101   5.790   4.512   8.816 -0.6608  1.3923 -0.5545
  100OSM   C17F10102   5.579   4.442   8.814 -0.4341 -0.3277 -0.2038
  100OSM   H17F10103   5.524   4.382   8.889 -0.8835  0.6377  0.2506
  100OSM   H17G10104   5.602   4.384   8.722 -0.1161 -1.9495  0.8511
  100OSM   C18F10105   5.491   4.570   8.779 -0.0160  0.5066  0.0596
  100OSM   H18F10106   5.407   4.538   8.714  2.8411  0.9321 -4.3573
  100OSM   H18G10107   5.551   4.644   8.720 -1.5035 -0.4472 -2.8279
  100OSM   H18H10108   5.461   4.622   8.872  1.5970 -0.1231  0.9762
  101OSM      N10109   0.145   2.808  10.789  0.1626 -0.1711  0.1244
  101OSM    C1510110   0.031   2.722  10.721 -0.1313 -0.9739 -0.4938
  101OSM   H15A10111   0.073   2.637  10.671  0.2811 -0.7818 -0.4794
  101OSM   H15B10112  -0.031   2.777  10.650  0.7883 -0.0052 -0.5720
  101OSM   H15C10113  -0.047   2.693  10.791 -0.9055 -0.8706 -1.2893
  101OSM    C1410114   0.188   2.748  10.911 -0.2207  0.1217 -0.4940
  101OSM   H14A10115   0.105   2.753  10.981  1.2260  0.4830  1.2754
  101OSM   H14B10116   0.270   2.809  10.946  0.2988 -0.1628 -1.1995
  101OSM   H14C10117   0.212   2.643  10.899 -1.2133 -0.2356  0.4137
  101OSM    C1310118   0.261   2.829  10.693  0.2019 -0.4788  0.2824
  101OSM   H13A10119   0.239   2.890  10.607 -0.3766 -5.0825 -3.2444
  101OSM   H13B10120   0.280   2.733  10.647  0.4674 -0.0292 -0.5523
  101OSM   H13C10121   0.341   2.868  10.754 -0.9030  0.6161  1.0865
  101OSM    C1210122   0.097   2.946  10.828  0.4107 -0.0576  0.1954
  101OSM   H12A10123  -0.000   2.938  10.873  0.3332  0.4287  0.1184
  101OSM   H12B10124   0.082   3.005  10.739 -0.9104 -0.8800 -0.1551
  101OSM    C1110125   0.190   3.030  10.922 -0.7954 -0.3859  0.1799
  101OSM   H11A10126   0.232   2.974  11.008  0.3745  2.4745  1.6078
  101OSM   H11B10127   0.122   3.106  10.968  1.4043  0.4144  2.3093
  101OSM      P10128   0.446   3.100  10.904 -0.2124 -0.1105 -0.2284
  101OSM    O1310129   0.450   3.184  11.027  0.3453  0.4112 -0.3973
  101OSM    O1410130   0.515   2.968  10.903  0.0720  0.2622 -0.1803
  101OSM    O1110131   0.506   3.183  10.794 -0.1565 -0.1085  0.3309
  101OSM    O1210132   0.297   3.084  10.846 -0.4224 -0.4214 -0.1700
  101OSM    C1S10133   0.571   3.136  10.673  0.1023 -0.4217 -0.7831
  101OSM    H1S10134   0.619   3.037  10.688 -1.2391 -1.2548 -1.8116
  101OSM    H1T10135   0.655   3.205  10.649  1.2604 -1.6618 -0.4142
  101OSM     NF10136   0.560   3.107  10.432  0.1988 -0.0874 -0.0053
  101OSM    HNF10137   0.579   3.181  10.368 -1.6449 -0.7163 -1.4107
  101OSM    C2S10138   0.476   3.126  10.548 -0.2554 -0.3475  0.1836
  101OSM    H2S10139   0.410   3.037  10.553 -0.5150 -0.2354 -1.0091
  101OSM    C3S10140   0.379   3.243  10.514 -0.2848 -0.3794  0.1900
  101OSM    H3S10141   0.432   3.341  10.513 -3.9491  1.7567  0.0246
  101OSM     O310142   0.269   3.258  10.608 -0.5484  0.1147  0.1720
  101OSM    HO310143   0.284   3.200  10.683  0.9063  0.9909  0.6157
  101OSM    C4S10144   0.318   3.220  10.377 -0.0090 -0.7704  0.0264
  101OSM    H4S10145   0.308   3.114  10.348  2.0767 -1.0131  0.0255
  101OSM    C5S10146   0.281   3.317  10.291  1.1143  0.1214  0.3940
  101OSM    H5S10147   0.300   3.424  10.311 -1.2177  1.1349 -2.1797
  101OSM    C6S10148   0.225   3.291  10.155  0.3623 -0.0626 -0.2802
  101OSM    H6S10149   0.306   3.323  10.087 -1.1950  0.4088 -1.9988
  101OSM    H6T10150   0.132   3.352  10.149 -0.0997 -0.4919  1.6666
  101OSM    C7S10151   0.206   3.136  10.111 -0.1862 -0.1367  0.8499
  101OSM    H7S10152   0.148   3.081  10.188  0.9153  1.1600  2.6966
  101OSM    H7T10153   0.302   3.081  10.098 -0.8543 -1.3754  0.9410
  101OSM    C8S10154   0.145   3.130   9.977  0.1361  0.2954  0.6332
  101OSM    H8S10155   0.047   3.183   9.976 -0.3532 -0.5185  1.9409
  101OSM    H8T10156   0.113   3.026   9.954 -1.4057  0.5712  1.3783
  101OSM    C9S10157   0.233   3.168   9.855 -0.4078 -0.1402 -0.4504
  101OSM    H9S10158   0.341   3.151   9.879 -0.1782 -0.9947 -1.9571
  101OSM    H9T10159   0.214   3.271   9.819 -0.5713 -0.1326 -0.3417
  101OSM   C10S10160   0.213   3.084   9.733  0.8383  0.4167  0.5231
  101OSM   H10S10161   0.104   3.100   9.713 -0.0089 -3.1335  1.5053
  101OSM   H10T10162   0.228   2.975   9.749 -1.8553 -0.6279 -2.8203
  101OSM   C11S10163   0.287   3.137   9.612 -0.1461 -0.0387 -0.3308
  101OSM   H11S10164   0.390   3.096   9.610 -0.6374 -1.7287  2.5403
  101OSM   H11T10165   0.286   3.247   9.627  1.3678 -0.1827  1.0961
  101OSM   C12S10166   0.228   3.106   9.471  0.0550 -0.1366  1.0249
  101OSM   H12S10167   0.125   3.145   9.454 -0.3606 -1.3977  0.5489
  101OSM   H12T10168   0.214   2.996   9.464 -1.8076  0.1435 -0.4357
  101OSM   C13S10169   0.324   3.160   9.362  0.2246  0.0470 -0.1804
  101OSM   H13S10170   0.429   3.137   9.393 -0.2562 -1.2968  0.5525
  101OSM   H13T10171   0.321   3.270   9.369  1.5454  0.0171  1.8066
  101OSM   C14S10172   0.300   3.105   9.222  0.7025 -0.8134 -0.4918
  101OSM   H14S10173   0.194   3.123   9.196  0.6945  2.0508  1.0542
  101OSM   H14T10174   0.320   2.996   9.219 -2.7925 -1.5819 -0.3485
  101OSM   C15S10175   0.393   3.180   9.120  0.8327  0.3816  0.1785
  101OSM   H15S10176   0.494   3.164   9.165  0.4508 -1.2542  0.4866
  101OSM   H15T10177   0.376   3.290   9.119  0.1945  0.2991  1.1076
  101OSM   C16S10178   0.369   3.125   8.977  0.3788  0.6991 -0.8251
  101OSM   H16S10179   0.273   3.070   8.982  0.5981  0.3328 -0.6641
  101OSM   H16T10180   0.451   3.055   8.950  0.7204 -0.5782  2.9228
  101OSM   C17S10181   0.360   3.232   8.873  0.0642 -0.6984  0.0984
  101OSM   H17S10182   0.273   3.301   8.882  1.8263  1.8544 -1.1384
  101OSM   H17T10183   0.354   3.183   8.774  0.0626  1.0493 -0.8018
  101OSM   C18S10184   0.490   3.313   8.866 -0.6596 -1.1203 -0.2591
  101OSM   H18S10185   0.499   3.373   8.774  0.4564 -0.6457  0.1486
  101OSM   H18T10186   0.577   3.244   8.873  0.0856 -0.0956  0.8677
  101OSM   H18U10187   0.506   3.380   8.953  0.0786 -1.1713 -0.3526
  101OSM    C1F10188   0.635   3.002  10.427 -0.1812  0.6654 -0.7011
  101OSM     OF10189   0.602   2.904  10.498 -0.0730 -0.5020  0.6513
  101OSM    C2F10190   0.757   2.999  10.344 -0.4532  0.2208 -1.0727
  101OSM    H2F10191   0.843   3.051  10.392 -2.2402  1.9306  0.4811
  101OSM    H2G10192   0.728   3.071  10.264 -3.5715  1.0605  0.6116
  101OSM    C3F10193   0.797   2.864  10.276  0.1182 -0.0993  0.1146
  101OSM    H3F10194   0.712   2.811  10.229  0.8865 -1.0888 -0.1969
  101OSM    H3G10195   0.822   2.794  10.358  0.5127 -0.6703 -0.4831
  101OSM    C4F10196   0.921   2.884  10.181  1.0763 -0.7334 -0.1354
  101OSM    H4F10197   0.970   2.785  10.169  1.1515 -0.4891 -2.4108
  101OSM    H4G10198   0.994   2.955  10.226 -1.2047  3.0527 -1.8818
  101OSM    C5F10199   0.892   2.950  10.046 -0.1459  0.0534  0.4151
  101OSM    H5F10200   0.893   3.061  10.056  2.7386  0.3940 -2.1115
  101OSM    H5G10201   0.790   2.919  10.014 -0.8304 -2.5176  4.4396
  101OSM    C6F10202   0.973   2.903   9.931 -0.2253 -0.2516 -0.1832
  101OSM    H6F10203   1.078   2.932   9.956  0.0507 -0.1016 -1.4361
  101OSM    H6G10204   0.974   2.793   9.916  1.0243 -0.1984 -0.6418
  101OSM    C7F10205   0.929   2.976   9.802  0.4681  0.4168  0.0652
  101OSM    H7F10206   1.018   2.983   9.735  1.5079 -0.5690  1.2730
  101OSM    H7G10207   0.882   3.075   9.816 -2.5828 -0.3624 -3.0999
  101OSM    C8F10208   0.821   2.885   9.727  0.1591  0.2301  0.0472
  101OSM    H8F10209   0.746   2.848   9.800  0.1407  0.9917  0.4231
  101OSM    H8G10210   0.865   2.801   9.669 -2.8220 -0.0584 -2.0101
  101OSM    C9F10211   0.752   2.971   9.623 -0.4355  0.1486 -0.4010
  101OSM    H9F10212   0.645   2.987   9.641 -0.2406  1.5726 -0.3980
  101OSM   C10F10213   0.805   3.031   9.520  0.1322  0.1776  0.5398
  101OSM   H10F10214   0.727   3.082   9.463 -1.8875 -0.3629  2.6577
  101OSM   C11F10215   0.950   3.025   9.472  0.4305  0.2917 -1.1432
  101OSM   H11F10216   1.010   2.948   9.525  0.9695  2.6552  1.9547
  101OSM   H11G10217   1.002   3.122   9.483 -2.4547  1.6523  2.3653
  101OSM   C12F10218   0.939   2.978   9.327  0.4395 -0.1381  0.2541
  101OSM   H12F10219   0.875   2.887   9.327 -1.5612  1.2089  0.3235
  101OSM   H12G10220   1.036   2.937   9.290  0.8940 -1.4758  2.7109
  101OSM   C13F10221   0.891   3.080   9.232  0.3763  0.2887 -0.6565
  101OSM   H13F10222   0.927   3.181   9.262  0.6071 -0.0565  0.2587
  101OSM   H13G10223   0.781   3.093   9.241  0.6861  3.9375 -0.4653
  101OSM   C14F10224   0.922   3.057   9.082  0.0772  0.4644 -1.2344
  101OSM   H14F10225   0.859   2.968   9.060 -1.1172  1.0726 -0.3641
  101OSM   H14G10226   1.028   3.024   9.074  0.5689  1.0763  1.8544
  101OSM   C15F10227   0.879   3.180   8.996 -0.3168  0.5234 -0.3533
  101OSM   H15F10228   0.952   3.255   9.033 -1.2639  1.4101 -0.2557
  101OSM   H15G10229   0.779   3.221   9.018  0.9627  2.6906  1.8343
  101OSM   C16F10230   0.889   3.157   8.843 -0.1308 -0.0360  0.0419
  101OSM   H16F10231   0.821   3.085   8.792  1.2080  0.0949 -2.0529
  101OSM   H16G10232   0.989   3.111   8.826  0.0580  0.7857 -1.1998
  101OSM   C17F10233   0.870   3.291   8.773  0.5714  0.3086 -0.0580
  101OSM   H17F10234   0.819   3.359   8.845  0.7081  0.8005 -0.4253
  101OSM   H17G10235   0.815   3.279   8.678  1.4550  0.1741 -0.5631
  101OSM   C18F10236   1.012   3.340   8.746  0.4441 -0.4446 -0.3578
  101OSM   H18F10237   1.054   3.363   8.846 -2.5370 -0.0856  0.9088
  101OSM   H18G10238   1.000   3.434   8.688  0.1560 -0.9216 -1.0857
  101OSM   H18H10239   1.072   3.265   8.690  2.2027  0.5559  0.1182
  102OSM      N10240   3.398   5.177  10.832 -0.8783  0.0478 -0.2055
  102OSM    C1510241   3.321   5.044  10.843  0.5880  1.2246 -0.1043
  102OSM   H15A10242   3.372   4.979  10.913 -0.0113  0.3560 -0.4581
  102OSM   H15B10243   3.315   4.988  10.751  0.6409  0.9497  0.0584
  102OSM   H15C10244   3.221   5.065  10.876  0.6199  1.8827 -0.4096
  102OSM    C1410245   3.317   5.257  10.727 -1.0136 -0.3690  0.0020
  102OSM   H14A10246   3.212   5.263  10.752 -0.8542  0.2909  0.5667
  102OSM   H14B10247   3.340   5.214  10.631  1.8658 -0.1910  0.5201
  102OSM   H14C10248   3.354   5.358  10.737 -1.1750 -0.1567 -1.4472
  102OSM    C1310249   3.376   5.244  10.965 -0.3665 -0.1685 -0.2881
  102OSM   H13A10250   3.270   5.238  10.989 -0.3515 -1.5211 -0.4631
  102OSM   H13B10251   3.418   5.343  10.967  0.6808 -0.6154  0.5672
  102OSM   H13C10252   3.415   5.192  11.052  0.2000  0.6028 -0.0773
  102OSM    C1210253   3.538   5.156  10.798  0.1604 -0.1898 -0.2573
  102OSM   H12A10254   3.594   5.088  10.859  0.5311 -0.7368 -1.1804
  102OSM   H12B10255   3.586   5.250  10.818 -1.3135  0.6359 -0.3999
  102OSM    C1110256   3.577   5.142  10.649 -0.7804  0.4554  0.4749
  102OSM   H11A10257   3.519   5.060  10.602 -0.0473  0.5379 -0.5950
  102OSM   H11B10258   3.685   5.119  10.660 -0.6928  0.9048  0.5616
  102OSM      P10259   3.636   5.402  10.592 -0.0267 -0.1230 -0.3214
  102OSM    O1310260   3.539   5.502  10.627 -0.4216 -0.5555  0.2619
  102OSM    O1410261   3.761   5.391  10.676  0.2637  0.4620  0.3481
  102OSM    O1110262   3.694   5.423  10.438  0.6633  0.0259 -0.4845
  102OSM    O1210263   3.567   5.264  10.576  0.2274  0.3227  0.0757
  102OSM    C1S10264   3.627   5.365  10.320 -0.4983 -0.1963  0.8588
  102OSM    H1S10265   3.518   5.383  10.335 -1.3755 -3.7709 -0.1146
  102OSM    H1T10266   3.637   5.254  10.316 -0.9525 -0.2162  0.0049
  102OSM     NF10267   3.577   5.377  10.077 -0.0031 -0.0718  0.2674
  102OSM    HNF10268   3.634   5.319  10.019  0.8787  0.2855  0.7679
  102OSM    C2S10269   3.662   5.429  10.185 -0.3918 -0.4820 -1.1108
  102OSM    H2S10270   3.636   5.537  10.190  0.6883 -0.2764  0.6078
  102OSM    C3S10271   3.813   5.422  10.153 -0.0148 -0.2580  0.8053
  102OSM    H3S10272   3.834   5.319  10.117 -1.6165 -0.2310 -0.3169
  102OSM     O310273   3.897   5.457  10.257 -0.0042  0.2388 -0.5570
  102OSM    HO310274   3.841   5.472  10.333  1.8066  0.3877  0.8261
  102OSM    C4S10275   3.847   5.512  10.040  0.1181 -0.9162 -0.0011
  102OSM    H4S10276   3.794   5.608  10.043  1.7532  0.0117  0.2877
  102OSM    C5S10277   3.938   5.504   9.941 -0.0251  0.4290 -0.0119
  102OSM    H5S10278   4.004   5.417   9.931  1.3701  1.2588  1.3527
  102OSM    C6S10279   3.963   5.618   9.845 -0.4836  0.0697 -0.6118
  102OSM    H6S10280   4.018   5.576   9.758  2.1275 -3.2557  2.3169
  102OSM    H6T10281   4.025   5.702   9.882 -0.0831  0.1103 -1.3677
  102OSM    C7S10282   3.845   5.698   9.787  0.3779  0.1067 -0.2458
  102OSM    H7S10283   3.793   5.742   9.875  4.6614 -0.4949  2.9084
  102OSM    H7T10284   3.788   5.625   9.725 -1.4461  1.0388  0.2414
  102OSM    C8S10285   3.893   5.800   9.684  0.5137  0.4284 -0.3220
  102OSM    H8S10286   3.976   5.862   9.723  0.0273  0.3885  0.8294
  102OSM    H8T10287   3.803   5.861   9.662  1.1984  1.2983 -0.7913
  102OSM    C9S10288   3.941   5.734   9.551  0.1081  0.1466  0.1979
  102OSM    H9S10289   3.865   5.658   9.521 -0.1967  0.4118  0.3043
  102OSM    H9T10290   4.039   5.681   9.552 -0.7024 -1.4643 -0.9872
  102OSM   C10S10291   3.945   5.834   9.435  0.5930  0.0255  0.2966
  102OSM   H10S10292   4.001   5.923   9.471  2.0559 -0.1883 -1.3094
  102OSM   H10T10293   3.840   5.866   9.419  0.6794  0.3622  0.3854
  102OSM   C11S10294   4.012   5.799   9.299 -0.2626  0.2508 -0.3556
  102OSM   H11S10295   3.953   5.723   9.243 -2.6446  1.2479  0.6538
  102OSM   H11T10296   4.106   5.742   9.317  0.5500  1.9525  1.1213
  102OSM   C12S10297   4.038   5.915   9.207  0.0004  0.2010  0.2539
  102OSM   H12S10298   4.062   6.010   9.260 -0.0008  0.1428  0.3604
  102OSM   H12T10299   3.941   5.949   9.166 -0.2076 -0.1530  0.4486
  102OSM   C13S10300   4.142   5.889   9.102 -0.2107 -0.4907 -0.1690
  102OSM   H13S10301   4.120   5.805   9.033 -0.9100  1.3883 -2.3625
  102OSM   H13T10302   4.242   5.878   9.148  0.0992  1.7592 -0.1861
  102OSM   C14S10303   4.169   6.011   9.001  0.8775  0.1198 -0.8939
  102OSM   H14S10304   4.273   6.003   8.963  0.6992  0.0211 -1.3580
  102OSM   H14T10305   4.143   6.100   9.062  0.9119 -0.9464  0.7332
  102OSM   C15S10306   4.061   6.000   8.894  0.5380  0.0331 -0.6175
  102OSM   H15S10307   3.960   5.973   8.931  1.2705 -0.8067  0.9031
  102OSM   H15T10308   4.096   5.922   8.823 -0.7850 -2.9998  1.7839
  102OSM   C16S10309   4.056   6.136   8.819  0.6753 -0.2110  0.1767
  102OSM   H16S10310   4.159   6.156   8.782  0.4415  0.3945 -0.1577
  102OSM   H16T10311   4.033   6.212   8.897  1.1987  0.0062  0.1229
  102OSM   C17S10312   3.952   6.144   8.709  0.3796  0.3422  0.0664
  102OSM   H17S10313   3.942   6.249   8.676  0.3152  0.1353 -0.5772
  102OSM   H17T10314   3.854   6.120   8.755  0.3924  2.8741  1.6145
  102OSM   C18S10315   3.993   6.057   8.591  0.1505  0.7941 -0.5844
  102OSM   H18S10316   4.100   6.070   8.562  0.4244  0.8812  0.4208
  102OSM   H18T10317   3.923   6.065   8.506 -0.1738 -0.6104 -0.4803
  102OSM   H18U10318   3.998   5.951   8.626 -0.7794  0.5718 -1.1150
  102OSM    C1F10319   3.447   5.393  10.062  0.2169  0.8211 -0.8423
  102OSM     OF10320   3.384   5.450  10.149  0.2604 -0.3220 -0.2113
  102OSM    C2F10321   3.379   5.314   9.955  0.4570  0.2162  0.4879
  102OSM    H2F10322   3.412   5.208   9.967  1.7704  0.5970  0.2979
  102OSM    H2G10323   3.419   5.350   9.858  1.3923  1.4215  1.3046
  102OSM    C3F10324   3.224   5.319   9.961  1.0658 -0.9050 -0.5482
  102OSM    H3F10325   3.194   5.326  10.068 -1.1956  0.0868 -1.1890
  102OSM    H3G10326   3.179   5.228   9.916  1.7338 -0.5404 -2.0181
  102OSM    C4F10327   3.168   5.455   9.901  0.3403 -0.0889 -0.0414
  102OSM    H4F10328   3.219   5.501   9.814 -1.5806  0.1940 -1.0738
  102OSM    H4G10329   3.169   5.533   9.980  1.7699  2.5912 -2.4989
  102OSM    C5F10330   3.024   5.432   9.863  0.5106 -0.3858  0.7297
  102OSM    H5F10331   2.967   5.527   9.877  1.2116  0.3391 -1.0254
  102OSM    H5G10332   2.978   5.361   9.935 -2.4031  0.7320  0.1349
  102OSM    C6F10333   3.009   5.383   9.712  0.3088 -0.3135 -0.9865
  102OSM    H6F10334   2.904   5.349   9.695  0.0605  0.4613 -1.0460
  102OSM    H6G10335   3.070   5.293   9.691 -1.4294 -1.4466 -1.4023
  102OSM    C7F10336   3.051   5.481   9.603 -0.1043  0.6257  0.1746
  102OSM    H7F10337   3.158   5.510   9.597  0.0994  0.0969  1.0316
  102OSM    H7G10338   2.993   5.575   9.619  0.2676  1.0512 -0.8848
  102OSM    C8F10339   3.008   5.429   9.458  0.7383 -0.1256 -0.0367
  102OSM    H8F10340   3.022   5.509   9.382 -1.8318 -1.0082 -1.5624
  102OSM    H8G10341   2.899   5.407   9.463  1.1695 -2.1795  1.1012
  102OSM    C9F10342   3.074   5.296   9.431 -0.8551  0.2288  0.9155
  102OSM    H9F10343   3.065   5.212   9.500  0.2877 -1.1730 -0.5487
  102OSM   C10F10344   3.155   5.278   9.321  0.8469  0.1924  0.3605
  102OSM   H10F10345   3.203   5.180   9.309  0.5939  0.1836 -0.6249
  102OSM   C11F10346   3.184   5.378   9.208  0.1658 -0.0903 -1.0477
  102OSM   H11F10347   3.293   5.380   9.185  0.0383  1.5905 -1.6083
  102OSM   H11G10348   3.150   5.481   9.231 -0.7361 -0.6503  0.2500
  102OSM   C12F10349   3.134   5.317   9.078 -0.2643  1.0661  0.1685
  102OSM   H12F10350   3.029   5.282   9.087  0.0601 -0.5157 -1.5316
  102OSM   H12G10351   3.182   5.221   9.050 -3.0970 -0.4203  0.1029
  102OSM   C13F10352   3.122   5.415   8.957 -0.1282 -0.3370  1.0461
  102OSM   H13F10353   3.057   5.499   8.988  0.1735  0.4437 -0.3787
  102OSM   H13G10354   3.075   5.372   8.866  0.1281  0.7218  0.3987
  102OSM   C14F10355   3.261   5.463   8.902  0.2827 -0.3289 -0.5605
  102OSM   H14F10356   3.307   5.377   8.848  0.5388 -1.7894  1.8380
  102OSM   H14G10357   3.329   5.492   8.984 -1.5190 -1.9362  1.6493
  102OSM   C15F10358   3.245   5.582   8.803  0.1737  0.0961  0.2120
  102OSM   H15F10359   3.204   5.673   8.853 -0.0416  1.8702 -2.8688
  102OSM   H15G10360   3.183   5.544   8.718 -0.6098  0.6813  0.5042
  102OSM   C16F10361   3.393   5.620   8.761  0.6086 -0.3166  0.2809
  102OSM   H16F10362   3.441   5.550   8.689  0.9706  1.9904 -1.8658
  102OSM   H16G10363   3.441   5.611   8.861 -0.2534 -0.6339  0.6773
  102OSM   C17F10364   3.411   5.761   8.708 -0.6817 -0.4376  0.1953
  102OSM   H17F10365   3.327   5.813   8.758 -1.2424 -1.1888  0.0440
  102OSM   H17G10366   3.393   5.761   8.599 -1.6606 -0.4135  0.3456
  102OSM   C18F10367   3.547   5.821   8.744  1.0046  0.2256 -0.1332
  102OSM   H18F10368   3.561   5.822   8.855  0.9167 -0.3126 -0.1129
  102OSM   H18G10369   3.559   5.927   8.715  0.1993  0.2878 -0.2503
  102OSM   H18H10370   3.631   5.756   8.709  1.2818  1.3028 -1.5540
  103OSM      N10371   6.729   2.130  11.068 -0.5635 -0.4519 -0.0231
  103OSM    C1510372   6.654   2.172  10.950  0.5903  0.0448  0.2828
  103OSM   H15A10373   6.647   2.280  10.953  2.9844  0.2485  0.3331
  103OSM   H15B10374   6.557   2.125  10.945  1.0001 -0.8325  0.4281
  103OSM   H15C10375   6.710   2.136  10.865  0.1063 -0.3179  0.1108
  103OSM    C1410376   6.645   2.157  11.192  0.0321 -0.5633  0.4323
  103OSM   H14A10377   6.645   2.262  11.219 -0.7878 -0.1587 -1.0611
  103OSM   H14B10378   6.673   2.098  11.278  0.6842  0.5863  1.0288
  103OSM   H14C10379   6.540   2.138  11.176 -0.1672  0.2267  0.7596
  103OSM    C1310380   6.740   1.985  11.055  0.2092  0.2021 -0.3397
  103OSM   H13A10381   6.647   1.934  11.077  1.0392 -0.6904  1.2052
  103OSM   H13B10382   6.800   1.949  11.137 -1.2398  2.1587  1.6842
  103OSM   H13C10383   6.782   1.944  10.964 -2.4402 -0.9956 -1.1408
  103OSM    C1210384   6.861   2.200  11.087  0.1601 -0.1095  0.9065
  103OSM   H12A10385   6.911   2.176  11.180  1.0263 -0.9498  0.2452
  103OSM   H12B10386   6.850   2.308  11.092 -0.8993 -0.1162 -0.6747
  103OSM    C1110387   6.967   2.177  10.981  0.2155  0.0948 -0.0829
  103OSM   H11A10388   6.986   2.068  10.974  2.2098  0.4781 -1.7069
  103OSM   H11B10389   7.064   2.214  11.019 -0.7158  0.9697  1.5335
  103OSM      P10390   6.933   2.382  10.820 -0.4999  0.4663  0.0934
  103OSM    O1310391   6.817   2.407  10.739  0.6326 -0.4325 -0.4054
  103OSM    O1410392   6.956   2.458  10.942 -0.0860 -0.1553 -0.2818
  103OSM    O1110393   7.059   2.395  10.730 -0.1982 -0.0083 -0.1742
  103OSM    O1210394   6.934   2.227  10.849  0.1746 -0.4125 -0.5446
  103OSM    C1S10395   7.072   2.309  10.620 -0.1955  0.1729 -0.3698
  103OSM    H1S10396   6.993   2.231  10.609 -1.5260  1.3394  0.6164
  103OSM    H1T10397   7.170   2.258  10.631 -0.0329  0.6147  0.3004
  103OSM     NF10398   7.061   2.313  10.362 -0.3273 -0.0479 -0.0411
  103OSM    HNF10399   7.145   2.306  10.308  0.5606  0.7125  1.1723
  103OSM    C2S10400   7.073   2.391  10.482 -0.1853 -0.0516 -0.4912
  103OSM    H2S10401   6.982   2.455  10.484 -0.1917 -0.0428 -0.9332
  103OSM    C3S10402   7.201   2.471  10.494 -0.0909 -0.3028  0.4075
  103OSM    H3S10403   7.288   2.402  10.492  1.7920  1.9322  1.0316
  103OSM     O310404   7.221   2.548  10.613  0.1112 -0.0039  0.1250
  103OSM    HO310405   7.165   2.508  10.680 -0.4970 -0.4128 -0.6040
  103OSM    C4S10406   7.217   2.559  10.373 -0.0135  0.4255 -0.4085
  103OSM    H4S10407   7.302   2.518  10.318  1.7480  1.3872  1.4463
  103OSM    C5S10408   7.154   2.674  10.346 -0.2771  0.2300  0.2330
  103OSM    H5S10409   7.076   2.706  10.417 -1.0746  1.0903 -0.9911
  103OSM    C6S10410   7.190   2.770  10.232  0.4702 -0.4592 -0.2369
  103OSM    H6S10411   7.265   2.849  10.254  2.1222 -1.8737 -0.5618
  103OSM    H6T10412   7.109   2.833  10.190 -0.3411 -1.5006 -0.2580
  103OSM    C7S10413   7.253   2.708  10.106  0.1064  0.7347 -0.3279
  103OSM    H7S10414   7.194   2.620  10.075 -0.7832  1.1021  0.2887
  103OSM    H7T10415   7.361   2.689  10.124  0.1489  1.3608  0.0999
  103OSM    C8S10416   7.238   2.808   9.992  0.0236  0.2688 -0.1927
  103OSM    H8S10417   7.279   2.902  10.035  2.2326 -2.0360  3.1784
  103OSM    H8T10418   7.130   2.828   9.973  0.3584  2.2503 -0.2217
  103OSM    C9S10419   7.306   2.767   9.860 -0.7649  0.8657  0.3521
  103OSM    H9S10420   7.401   2.728   9.901 -0.8877  0.4955  0.2945
  103OSM    H9T10421   7.323   2.856   9.796 -2.6967  0.3908 -0.9342
  103OSM   C10S10422   7.236   2.657   9.781  0.5145  0.8174  1.2547
  103OSM   H10S10423   7.133   2.687   9.751  0.3865 -1.2221 -0.6290
  103OSM   H10T10424   7.230   2.568   9.847  1.4139  1.0746  1.6921
  103OSM   C11S10425   7.307   2.620   9.650 -0.1355  0.0042 -0.2736
  103OSM   H11S10426   7.243   2.540   9.608 -1.3319 -0.4235  2.1583
  103OSM   H11T10427   7.412   2.588   9.667 -0.7743 -2.3790 -0.5705
  103OSM   C12S10428   7.319   2.736   9.548 -0.1272 -0.0400 -0.1395
  103OSM   H12S10429   7.369   2.823   9.594 -0.4849 -1.1077  2.4535
  103OSM   H12T10430   7.221   2.771   9.508  0.0254  0.3213 -0.2009
  103OSM   C13S10431   7.417   2.693   9.425 -0.1992 -0.0300  0.0798
  103OSM   H13S10432   7.393   2.591   9.388 -1.5165  0.9837 -2.0692
  103OSM   H13T10433   7.523   2.691   9.458  0.5522 -0.4490 -2.2204
  103OSM   C14S10434   7.398   2.777   9.293  0.3936  0.0681 -0.3097
  103OSM   H14S10435   7.438   2.880   9.297  0.1223  0.2448 -1.7647
  103OSM   H14T10436   7.290   2.782   9.267  0.0901 -0.1551  0.8341
  103OSM   C15S10437   7.468   2.722   9.177  0.1356  0.5301  0.0762
  103OSM   H15S10438   7.446   2.614   9.161  0.0273  0.5893 -0.1929
  103OSM   H15T10439   7.578   2.733   9.185  0.1114 -0.1531  1.6914
  103OSM   C16S10440   7.405   2.790   9.054  0.1950  0.2491 -0.4014
  103OSM   H16S10441   7.429   2.898   9.057 -2.1547  0.9080 -2.1777
  103OSM   H16T10442   7.294   2.777   9.058 -0.0426  2.0900 -0.0333
  103OSM   C17S10443   7.447   2.725   8.924  0.2069  0.4709 -0.9222
  103OSM   H17S10444   7.424   2.617   8.931  0.4365  0.5121  0.7124
  103OSM   H17T10445   7.557   2.734   8.914  0.1574 -0.0337 -2.1050
  103OSM   C18S10446   7.386   2.776   8.794 -0.1819  0.4597  0.2576
  103OSM   H18S10447   7.276   2.771   8.810 -0.2680  2.4278  0.5759
  103OSM   H18T10448   7.408   2.703   8.714 -0.3497  0.5700  0.1096
  103OSM   H18U10449   7.413   2.881   8.771  1.2112 -0.0016 -0.3082
  103OSM    C1F10450   6.948   2.258  10.324 -1.1194  0.0303 -0.5180
  103OSM     OF10451   6.845   2.280  10.380  0.3668  0.7784 -0.2006
  103OSM    C2F10452   6.956   2.186  10.194 -0.1080 -0.4484 -0.0935
  103OSM    H2F10453   7.063   2.161  10.178  0.3636  2.3255 -2.0453
  103OSM    H2G10454   6.935   2.260  10.113  1.3676  1.2164  0.9833
  103OSM    C3F10455   6.890   2.047  10.201 -0.5558 -0.1716 -0.2099
  103OSM    H3F10456   6.796   2.050  10.259 -0.5101 -1.2333 -0.0573
  103OSM    H3G10457   6.963   1.977  10.247 -0.3067 -0.7730 -1.4742
  103OSM    C4F10458   6.864   1.998  10.057 -0.3853 -0.1720  0.3956
  103OSM    H4F10459   6.801   2.072  10.005 -1.1347 -0.7372  0.4901
  103OSM    H4G10460   6.799   1.908  10.066 -1.1345  0.3067 -0.1598
  103OSM    C5F10461   6.992   1.970   9.974  0.3950 -0.1702  0.3347
  103OSM    H5F10462   7.075   1.911  10.019  1.9269 -0.1704 -2.2662
  103OSM    H5G10463   7.037   2.071   9.966  2.0356 -0.9791 -1.4344
  103OSM    C6F10464   6.961   1.911   9.836  0.5886 -0.2431 -0.7575
  103OSM    H6F10465   6.911   1.812   9.839 -0.2618  0.1719  1.8938
  103OSM    H6G10466   7.061   1.886   9.795  0.9751 -0.2910  0.1667
  103OSM    C7F10467   6.867   2.004   9.760 -0.1699  0.2682  0.0182
  103OSM    H7F10468   6.912   2.106   9.762 -2.7945  1.4913  0.8906
  103OSM    H7G10469   6.771   2.017   9.813  0.7154  2.5863  1.2169
  103OSM    C8F10470   6.836   1.963   9.619 -1.2120 -0.1732 -0.2383
  103OSM    H8F10471   6.784   2.047   9.569 -1.0881  0.4680  0.6928
  103OSM    H8G10472   6.767   1.875   9.619 -0.3397 -0.8995  1.0149
  103OSM    C9F10473   6.956   1.936   9.530  0.1734 -0.3908  0.0937
  103OSM    H9F10474   7.047   1.889   9.570  0.9377  0.5454 -0.4914
  103OSM   C10F10475   6.969   1.974   9.401  0.7864  0.5813  0.2919
  103OSM   H10F10476   7.069   1.951   9.363  0.8338 -1.4807  1.5154
  103OSM   C11F10477   6.870   2.043   9.305 -0.1124  0.0361  0.4558
  103OSM   H11F10478   6.923   2.107   9.232  1.7500  0.2958  1.9585
  103OSM   H11G10479   6.807   2.111   9.367  2.1411  2.9845 -0.2734
  103OSM   C12F10480   6.785   1.942   9.225 -0.0020 -0.4541 -0.1345
  103OSM   H12F10481   6.698   2.001   9.188 -1.1963 -1.5095  0.8881
  103OSM   H12G10482   6.754   1.860   9.293  0.9545 -1.4009 -0.8013
  103OSM   C13F10483   6.857   1.866   9.117  0.7204 -0.1573 -0.0061
  103OSM   H13F10484   6.933   1.797   9.159 -0.1008  0.6976  3.1422
  103OSM   H13G10485   6.912   1.933   9.047 -1.5122 -0.2946 -2.0298
  103OSM   C14F10486   6.755   1.791   9.019  0.4021 -0.5975  0.3311
  103OSM   H14F10487   6.698   1.875   8.974  2.0387 -0.8323 -2.4079
  103OSM   H14G10488   6.677   1.729   9.068 -0.3300 -0.9206 -1.1900
  103OSM   C15F10489   6.825   1.709   8.906  0.2321  0.0526 -0.6155
  103OSM   H15F10490   6.869   1.612   8.938 -0.5292 -0.5029 -1.1923
  103OSM   H15G10491   6.902   1.778   8.865  1.4648 -1.3279 -0.7002
  103OSM   C16F10492   6.727   1.681   8.791  0.3160  0.2295  0.1185
  103OSM   H16F10493   6.644   1.610   8.810 -0.4326  0.9537 -0.3622
  103OSM   H16G10494   6.794   1.638   8.713  1.0884  0.3650  0.7029
  103OSM   C17F10495   6.659   1.794   8.706  0.0882  0.0197 -0.3624
  103OSM   H17F10496   6.722   1.885   8.711  1.0484 -0.3939 -2.9242
  103OSM   H17G10497   6.562   1.818   8.754 -0.1306 -0.2015 -0.6901
  103OSM   C18F10498   6.638   1.759   8.555  0.1867 -0.0380  0.2059
  103OSM   H18F10499   6.591   1.847   8.506  0.2452  0.7363  1.4835
  103OSM   H18G10500   6.565   1.677   8.539  1.1027 -0.9112  0.4057
  103OSM   H18H10501   6.734   1.734   8.505 -0.7337  0.3747 -1.8613
  104OSM      N10502   3.995   6.142  10.986 -0.1050 -0.1394 -0.3631
  104OSM    C1510503   3.971   5.999  11.032 -1.0001 -0.0722  0.1056
  104OSM   H15A10504   4.028   5.923  10.980  1.7280  3.3757 -2.4081
  104OSM   H15B10505   3.871   5.962  11.018 -1.2313  0.9022 -0.9586
  104OSM   H15C10506   3.999   5.994  11.137 -0.1404  0.3521 -0.0915
  104OSM    C1410507   3.914   6.220  11.075 -0.4054 -0.1624  0.3452
  104OSM   H14A10508   3.933   6.229  11.181 -0.4575  3.1367  0.1832
  104OSM   H14B10509   3.816   6.178  11.059 -0.3486  0.2882 -1.3990
  104OSM   H14C10510   3.915   6.323  11.042 -2.0031  0.4118  1.9391
  104OSM    C1310511   4.145   6.165  11.007 -0.4682  0.2199  0.0841
  104OSM   H13A10512   4.175   6.161  11.110 -1.2058  3.9730  0.5643
  104OSM   H13B10513   4.156   6.262  10.962  0.7948 -0.1374 -0.4257
  104OSM   H13C10514   4.209   6.096  10.953 -1.6058 -2.3935  1.9161
  104OSM    C1210515   3.956   6.160  10.841  0.4241  0.4899  0.3933
  104OSM   H12A10516   3.849   6.145  10.846  0.4536 -0.1660 -0.6441
  104OSM   H12B10517   3.996   6.076  10.786 -0.8956 -0.7190  1.1881
  104OSM    C1110518   3.988   6.296  10.767 -0.2636  0.6244  0.1750
  104OSM   H11A10519   3.953   6.306  10.662 -3.9676  0.5608  1.2687
  104OSM   H11B10520   4.098   6.307  10.780  0.3651  1.4443 -4.3674
  104OSM      P10521   3.769   6.437  10.810  0.2294 -0.1079 -0.0900
  104OSM    O1310522   3.685   6.315  10.810 -0.4681  0.3635  0.0580
  104OSM    O1410523   3.714   6.543  10.897 -0.5278 -0.3599  0.3774
  104OSM    O1110524   3.766   6.492  10.659 -0.5132 -0.2480 -0.4608
  104OSM    O1210525   3.925   6.400  10.842  0.3408 -0.2942 -0.6043
  104OSM    C1S10526   3.863   6.593  10.618 -0.1358  0.1757  0.5091
  104OSM    H1S10527   3.967   6.568  10.647 -1.0211 -1.7811  2.1715
  104OSM    H1T10528   3.845   6.695  10.659 -0.9386  0.1285  0.2873
  104OSM     NF10529   3.993   6.685  10.426  0.1801 -0.1446 -0.0262
  104OSM    HNF10530   3.970   6.776  10.391  1.7306  0.3163  0.0825
  104OSM    C2S10531   3.878   6.600  10.460  0.4754 -0.6970 -0.4183
  104OSM    H2S10532   3.892   6.500  10.414  0.2528 -0.8863 -0.0792
  104OSM    C3S10533   3.736   6.649  10.399  0.1617 -1.1409  0.1386
  104OSM    H3S10534   3.718   6.742  10.458 -2.4084 -1.8860  0.6466
  104OSM     O310535   3.629   6.563  10.425 -0.3003 -0.3209  0.3768
  104OSM    HO310536   3.650   6.518  10.508 -0.5337 -1.6712 -0.2754
  104OSM    C4S10537   3.737   6.668  10.255 -1.0144  0.0251  0.9292
  104OSM    H4S10538   3.762   6.571  10.210  0.0126 -0.4121  2.3511
  104OSM    C5S10539   3.741   6.779  10.181 -0.0073 -0.5569 -0.4847
  104OSM    H5S10540   3.737   6.876  10.231  0.3171  0.0378 -1.5758
  104OSM    C6S10541   3.750   6.790  10.030  0.3182  0.1018 -0.4430
  104OSM    H6S10542   3.789   6.699   9.982 -0.5984 -0.9517  0.7270
  104OSM    H6T10543   3.820   6.873  10.008  1.1733  0.5475  3.2391
  104OSM    C7S10544   3.618   6.825   9.969  1.0224  0.1702 -0.2275
  104OSM    H7S10545   3.580   6.902  10.040  0.7826 -0.4301  0.3144
  104OSM    H7T10546   3.548   6.739   9.968 -0.5563  1.3748  0.8847
  104OSM    C8S10547   3.627   6.881   9.825 -0.1062  0.1858  0.3536
  104OSM    H8S10548   3.716   6.948   9.819  0.3542 -0.2786  1.6045
  104OSM    H8T10549   3.538   6.933   9.784  1.0086  1.6712 -0.2749
  104OSM    C9S10550   3.652   6.770   9.729 -0.7450 -0.6634 -0.3132
  104OSM    H9S10551   3.579   6.689   9.754 -1.0817 -0.3432 -0.2455
  104OSM    H9T10552   3.748   6.719   9.750 -0.5976  0.1390  1.1546
  104OSM   C10S10553   3.625   6.817   9.582 -0.0757  0.1499  0.6958
  104OSM   H10S10554   3.688   6.904   9.554  0.1546 -0.9126 -2.5259
  104OSM   H10T10555   3.516   6.835   9.589 -0.1592 -0.6384  1.5824
  104OSM   C11S10556   3.666   6.714   9.477  0.2813  0.2008 -0.7265
  104OSM   H11S10557   3.616   6.616   9.494 -2.5982  1.7434  0.5148
  104OSM   H11T10558   3.772   6.693   9.501 -0.2670 -0.8825  0.8951
  104OSM   C12S10559   3.639   6.758   9.334  0.3039  0.5019 -0.3056
  104OSM   H12S10560   3.540   6.808   9.328 -0.0946 -0.3651 -1.3261
  104OSM   H12T10561   3.627   6.665   9.274  0.4660  0.3692 -0.1347
  104OSM   C13S10562   3.749   6.853   9.280  1.0149 -0.0719  0.0856
  104OSM   H13S10563   3.775   6.934   9.351  0.5541  1.9119 -1.8948
  104OSM   H13T10564   3.715   6.897   9.184 -0.6120  1.6946  1.4086
  104OSM   C14S10565   3.877   6.772   9.233 -0.0389  0.6896  0.4035
  104OSM   H14S10566   3.938   6.729   9.314 -0.9514 -0.4476  0.5107
  104OSM   H14T10567   3.952   6.843   9.191  1.1592 -1.5801 -1.5049
  104OSM   C15S10568   3.859   6.664   9.121  0.3700 -0.4267 -0.1155
  104OSM   H15S10569   3.779   6.701   9.054  0.7063 -0.9557 -0.8217
  104OSM   H15T10570   3.825   6.575   9.178 -0.6194  1.4541  2.4452
  104OSM   C16S10571   3.980   6.641   9.029 -0.1895  0.3923 -0.3586
  104OSM   H16S10572   4.058   6.607   9.099 -0.9882  2.4114  1.6460
  104OSM   H16T10573   4.010   6.743   8.995  2.9072 -0.4381 -0.3393
  104OSM   C17S10574   3.946   6.546   8.914  0.4698 -0.4120  0.1911
  104OSM   H17S10575   3.880   6.469   8.960 -1.3413  1.1649  0.4066
  104OSM   H17T10576   4.042   6.503   8.880 -0.1071  0.0100 -2.1679
  104OSM   C18S10577   3.881   6.615   8.797 -0.3817  0.0660 -0.2819
  104OSM   H18S10578   3.841   6.537   8.728  0.2758  0.7771 -1.4941
  104OSM   H18T10579   3.953   6.678   8.741  0.2910  2.0567  2.5953
  104OSM   H18U10580   3.797   6.684   8.822 -0.8097 -0.5084 -0.1094
  104OSM    C1F10581   4.116   6.647  10.419  0.2804  0.6888  0.4391
  104OSM     OF10582   4.144   6.530  10.447 -0.2477 -0.6057  0.1380
  104OSM    C2F10583   4.219   6.737  10.355 -1.0311  0.0595  0.7211
  104OSM    H2F10584   4.321   6.726  10.397 -0.2350 -0.0344 -1.1491
  104OSM    H2G10585   4.183   6.842  10.364 -0.6793  0.2408  0.1041
  104OSM    C3F10586   4.225   6.717  10.195  0.3654  0.5833  0.0750
  104OSM    H3F10587   4.254   6.612  10.174 -1.5799 -0.3150  1.5408
  104OSM    H3G10588   4.302   6.786  10.156  0.1733  1.2860  0.9017
  104OSM    C4F10589   4.092   6.734  10.115  0.1461  0.2468  0.3607
  104OSM    H4F10590   4.054   6.838  10.119 -0.9711 -0.0091 -2.0682
  104OSM    H4G10591   4.014   6.673  10.167 -0.3595  0.3337 -0.2831
  104OSM    C5F10592   4.109   6.687   9.965  0.1160  0.0754 -0.5521
  104OSM    H5F10593   4.009   6.707   9.920  0.4625 -1.7236 -2.2635
  104OSM    H5G10594   4.118   6.576   9.961 -0.8621 -0.0345 -0.1382
  104OSM    C6F10595   4.214   6.757   9.889 -0.3887 -0.2093 -0.3645
  104OSM    H6F10596   4.316   6.747   9.931 -0.2817  2.2237  0.1109
  104OSM    H6G10597   4.184   6.864   9.888 -3.5422 -0.9835 -1.7540
  104OSM    C7F10598   4.215   6.707   9.745 -0.5391 -0.4501 -0.3250
  104OSM    H7F10599   4.110   6.723   9.713 -0.5425 -0.4926 -0.3340
  104OSM    H7G10600   4.234   6.599   9.728  0.7067 -0.1285 -1.1256
  104OSM    C8F10601   4.314   6.798   9.659  0.4342 -0.4887 -0.1673
  104OSM    H8F10602   4.421   6.780   9.683  0.6528  0.3642 -0.4338
  104OSM    H8G10603   4.297   6.902   9.696  1.1355 -0.8368  1.1767
  104OSM    C9F10604   4.294   6.783   9.505  0.4511 -0.2403 -0.0294
  104OSM    H9F10605   4.314   6.680   9.474 -3.2325 -1.4692  1.2094
  104OSM   C10F10606   4.246   6.874   9.413  0.4776  0.3607  0.0712
  104OSM   H10F10607   4.225   6.840   9.311  1.2750  0.5242 -0.1506
  104OSM   C11F10608   4.210   7.019   9.442  1.0452  0.3798 -0.1905
  104OSM   H11F10609   4.259   7.060   9.533  0.5226  0.1170  0.2194
  104OSM   H11G10610   4.103   7.032   9.472  1.0080  0.1141 -0.2046
  104OSM   C12F10611   4.234   7.123   9.326  0.1648 -0.3870 -0.0205
  104OSM   H12F10612   4.344   7.128   9.316  0.0539  0.8101 -0.9748
  104OSM   H12G10613   4.203   7.227   9.353 -0.9260 -0.3323 -1.3484
  104OSM   C13F10614   4.171   7.094   9.186 -0.9204 -0.4591 -0.3636
  104OSM   H13F10615   4.063   7.071   9.201 -0.6366 -0.2580  2.6396
  104OSM   H13G10616   4.221   7.002   9.150  3.0916  1.2005  0.4155
  104OSM   C14F10617   4.192   7.218   9.104 -0.1771  0.4162 -0.4673
  104OSM   H14F10618   4.251   7.292   9.163  1.3325 -1.5436  0.5815
  104OSM   H14G10619   4.090   7.261   9.097 -1.2936 -1.4654  2.3629
  104OSM   C15F10620   4.256   7.199   8.966 -0.4016  0.0869 -0.4339
  104OSM   H15F10621   4.343   7.131   8.978 -0.6460 -0.1250  0.1269
  104OSM   H15G10622   4.276   7.298   8.918  1.2749  0.8144  1.6108
  104OSM   C16F10623   4.158   7.116   8.879 -0.3261 -0.4979  0.3704
  104OSM   H16F10624   4.065   7.177   8.878 -0.5839 -0.8820 -0.6047
  104OSM   H16G10625   4.132   7.017   8.921 -1.7810 -0.2931  0.0137
  104OSM   C17F10626   4.202   7.107   8.741 -0.1954  0.0142 -0.1359
  104OSM   H17F10627   4.132   7.037   8.690  0.0775 -1.2702  1.1865
  104OSM   H17G10628   4.303   7.062   8.739 -1.1455 -2.2387  0.0459
  104OSM   C18F10629   4.194   7.235   8.648 -0.4545  0.5919  0.2226
  104OSM   H18F10630   4.251   7.317   8.696  0.0059 -0.3790  1.3942
  104OSM   H18G10631   4.090   7.265   8.624 -0.9979 -1.0134  0.4405
  104OSM   H18H10632   4.242   7.206   8.552  0.8690  1.1308  0.7023
  105OSM      N10633   0.525   3.636  10.621 -1.1365 -0.7067  0.5758
  105OSM    C1510634   0.568   3.583  10.484  0.5801 -0.2341 -0.7763
  105OSM   H15A10635   0.640   3.649  10.438  0.6308  1.8148  1.9821
  105OSM   H15B10636   0.477   3.575  10.426 -0.5498  0.7822  0.7825
  105OSM   H15C10637   0.620   3.490  10.504  0.3651  0.1318  1.8648
  105OSM    C1410638   0.455   3.533  10.698 -0.0345 -0.0567 -0.2532
  105OSM   H14A10639   0.442   3.564  10.801  1.0826  0.3329 -0.2148
  105OSM   H14B10640   0.518   3.446  10.709  1.2500  0.7290 -1.0699
  105OSM   H14C10641   0.358   3.506  10.658 -0.1434 -2.1584  1.2312
  105OSM    C1310642   0.655   3.671  10.696 -0.6130  0.3093  0.8268
  105OSM   H13A10643   0.631   3.718  10.790  0.2382  0.0091  1.2018
  105OSM   H13B10644   0.710   3.751  10.649 -2.3919  0.4613 -1.1640
  105OSM   H13C10645   0.713   3.581  10.715  1.1058  1.1905 -0.0258
  105OSM    C1210646   0.437   3.765  10.609  0.3630  0.9848  0.3534
  105OSM   H12A10647   0.406   3.800  10.707 -2.1952 -0.8384  0.2959
  105OSM   H12B10648   0.350   3.738  10.551  2.2131  0.7006 -2.4617
  105OSM    C1110649   0.493   3.887  10.534 -0.3225  0.3756 -0.6403
  105OSM   H11A10650   0.409   3.959  10.529  2.0233  3.3337 -0.6407
  105OSM   H11B10651   0.520   3.851  10.433  0.3009 -0.8759 -0.0588
  105OSM      P10652   0.599   4.047  10.708 -0.1995 -0.2950 -0.0775
  105OSM    O1310653   0.466   4.048  10.767 -0.1669  0.4362 -0.3860
  105OSM    O1410654   0.716   4.036  10.799 -0.6396  0.0235 -0.7522
  105OSM    O1110655   0.615   4.185  10.628 -0.6419  0.1302 -0.0455
  105OSM    O1210656   0.615   3.936  10.595 -1.0182  0.5134 -0.1081
  105OSM    C1S10657   0.714   4.204  10.524  0.3958  0.2445 -0.1575
  105OSM    H1S10658   0.797   4.130  10.536  0.0002 -0.1506  0.1698
  105OSM    H1T10659   0.756   4.306  10.529 -2.1302  1.2636  3.0604
  105OSM     NF10660   0.771   4.215  10.282  0.0125  0.0464  0.3107
  105OSM    HNF10661   0.763   4.307  10.246 -0.2127 -0.0807  0.0360
  105OSM    C2S10662   0.663   4.182  10.375  0.0165 -0.5706  0.0257
  105OSM    H2S10663   0.631   4.078  10.354 -1.1121  0.0078 -1.2684
  105OSM    C3S10664   0.540   4.266  10.345 -0.1891  0.2486 -0.9583
  105OSM    H3S10665   0.565   4.373  10.358 -1.2235  0.7719 -2.9143
  105OSM     O310666   0.432   4.231  10.443 -0.7492 -0.0129 -0.1304
  105OSM    HO310667   0.477   4.190  10.517 -0.8801 -0.0278 -0.0587
  105OSM    C4S10668   0.503   4.239  10.199  0.4619 -0.4208  0.6045
  105OSM    H4S10669   0.536   4.302  10.115 -0.1479  0.3183  0.9072
  105OSM    C5S10670   0.417   4.138  10.166 -0.1751  0.3604 -0.5042
  105OSM    H5S10671   0.384   4.068  10.244  2.0882  0.1828  0.3701
  105OSM    C6S10672   0.373   4.099  10.023  0.6957  0.3627  0.4327
  105OSM    H6S10673   0.377   4.184   9.952 -0.5609 -0.5501 -0.7789
  105OSM    H6T10674   0.270   4.058  10.028 -0.0665  2.3347  3.7736
  105OSM    C7S10675   0.470   3.991   9.978  0.0073 -0.1521  1.0258
  105OSM    H7S10676   0.464   3.895  10.035 -0.6178 -0.2764  0.7542
  105OSM    H7T10677   0.578   4.017   9.987  0.4708 -1.2768 -0.8463
  105OSM    C8S10678   0.452   3.955   9.825  0.3260  0.1053 -0.4762
  105OSM    H8S10679   0.346   3.924   9.811 -0.4132  1.7458  0.9927
  105OSM    H8T10680   0.519   3.871   9.798 -1.6980 -1.4214 -1.0301
  105OSM    C9S10681   0.469   4.072   9.726  0.2103 -0.7351 -0.2106
  105OSM    H9S10682   0.563   4.127   9.747  1.3173 -2.3530 -0.7931
  105OSM    H9T10683   0.379   4.138   9.727  0.0281 -0.9759  0.7496
  105OSM   C10S10684   0.472   4.021   9.579  0.2561 -0.3457  0.2832
  105OSM   H10S10685   0.390   3.961   9.535  1.0894 -1.2965 -0.0404
  105OSM   H10T10686   0.554   3.946   9.566 -1.7771 -2.3582 -1.9791
  105OSM   C11S10687   0.486   4.133   9.473  0.0682  1.0466 -0.5150
  105OSM   H11S10688   0.581   4.188   9.486  0.0245  0.9359  0.3696
  105OSM   H11T10689   0.391   4.187   9.495 -0.7418  0.3600 -2.1080
  105OSM   C12S10690   0.485   4.060   9.338  0.1798 -0.6788  0.2649
  105OSM   H12S10691   0.384   4.016   9.331 -1.3090  2.7674 -3.2732
  105OSM   H12T10692   0.565   3.983   9.331 -0.2366 -0.9607 -2.2600
  105OSM   C13S10693   0.503   4.155   9.214  0.6534 -0.2123  0.2900
  105OSM   H13S10694   0.611   4.180   9.206  0.9735 -2.0655 -1.9541
  105OSM   H13T10695   0.449   4.252   9.218  1.9294  0.6256 -1.4245
  105OSM   C14S10696   0.479   4.071   9.085 -0.2273 -0.1160  0.3595
  105OSM   H14S10697   0.380   4.025   9.107  0.1128 -0.8096  0.4570
  105OSM   H14T10698   0.551   3.987   9.080  1.3708  1.2012  0.3908
  105OSM   C15S10699   0.495   4.150   8.957 -0.5613  0.1629 -0.2649
  105OSM   H15S10700   0.584   4.217   8.951  0.3828 -1.1078 -0.8903
  105OSM   H15T10701   0.405   4.213   8.943 -0.9247 -0.5028 -0.9998
  105OSM   C16S10702   0.490   4.063   8.836 -0.1991 -0.3913 -0.2081
  105OSM   H16S10703   0.386   4.029   8.818 -0.0314 -1.5180  0.8378
  105OSM   H16T10704   0.556   3.974   8.848  0.4652 -0.1575 -1.8889
  105OSM   C17S10705   0.553   4.148   8.720 -0.7354  0.2994 -0.5465
  105OSM   H17S10706   0.660   4.163   8.742 -0.5601  0.0570 -1.2006
  105OSM   H17T10707   0.507   4.249   8.709  0.4192  0.8730 -0.2679
  105OSM   C18S10708   0.549   4.074   8.590 -0.0342  0.2363  0.4524
  105OSM   H18S10709   0.629   4.100   8.518 -1.0056 -1.6930 -1.4195
  105OSM   H18T10710   0.455   4.081   8.532  0.4375 -1.2884 -0.5458
  105OSM   H18U10711   0.557   3.965   8.606  1.7836  0.3354  0.4565
  105OSM    C1F10712   0.879   4.139  10.274  0.2940 -0.2913  0.3435
  105OSM     OF10713   0.876   4.038  10.333  0.3962  0.3618 -0.2710
  105OSM    C2F10714   0.997   4.189  10.198  0.5340 -0.1977 -0.4308
  105OSM    H2F10715   1.087   4.126  10.211  0.7495  0.1631 -0.1543
  105OSM    H2G10716   1.022   4.287  10.243 -0.9437  1.0379 -2.1302
  105OSM    C3F10717   0.956   4.217  10.052 -0.2072  0.1433  0.5450
  105OSM    H3F10718   1.049   4.257  10.006 -1.2514  0.5058 -1.3845
  105OSM    H3G10719   0.867   4.283  10.039  0.0954  0.2720 -1.0479
  105OSM    C4F10720   0.921   4.084   9.987  0.1963 -0.6856  0.0372
  105OSM    H4F10721   0.826   4.046  10.029  0.0482 -0.1626  0.1794
  105OSM    H4G10722   0.989   3.999  10.010 -1.4379 -1.8218  0.8948
  105OSM    C5F10723   0.900   4.094   9.835  0.4486 -0.7762 -0.0268
  105OSM    H5F10724   0.818   4.169   9.827 -1.4740 -2.6185  1.2945
  105OSM    H5G10725   0.863   3.996   9.798 -0.5572 -0.2124 -0.5602
  105OSM    C6F10726   1.019   4.134   9.751 -0.1823  0.1298 -0.3520
  105OSM    H6F10727   1.109   4.093   9.801  0.7310  1.4401 -0.8737
  105OSM    H6G10728   1.025   4.244   9.753  1.9585  0.0511  1.6639
  105OSM    C7F10729   1.015   4.083   9.605 -0.0093 -0.6382 -1.0289
  105OSM    H7F10730   1.016   3.971   9.606 -0.4075 -0.7619  3.1547
  105OSM    H7G10731   1.099   4.136   9.555 -1.7852  2.7361 -0.6942
  105OSM    C8F10732   0.896   4.126   9.527  0.5292  0.3113 -0.3691
  105OSM    H8F10733   0.803   4.093   9.578 -0.1792  1.7157 -0.7161
  105OSM    H8G10734   0.898   4.078   9.426  0.8539  1.2146 -0.7977
  105OSM    C9F10735   0.874   4.273   9.505 -0.2235  0.8371 -0.1693
  105OSM    H9F10736   0.841   4.326   9.596 -1.3155 -0.0994  0.0008
  105OSM   C10F10737   0.880   4.342   9.389  0.2624 -0.0320 -0.2253
  105OSM   H10F10738   0.861   4.450   9.386  2.0012  0.4666  2.7016
  105OSM   C11F10739   0.909   4.284   9.253 -0.2335 -0.0009  0.3655
  105OSM   H11F10740   0.818   4.275   9.190 -0.6525  1.0823  0.7793
  105OSM   H11G10741   0.946   4.179   9.250  0.9924  0.3491  2.1418
  105OSM   C12F10742   1.014   4.373   9.182  0.1027 -0.5601  0.4401
  105OSM   H12F10743   1.103   4.374   9.249  1.6062  1.9193 -1.3878
  105OSM   H12G10744   0.963   4.470   9.168  2.0852  0.4980  0.1349
  105OSM   C13F10745   1.050   4.319   9.040 -0.4637  0.1337  0.4936
  105OSM   H13F10746   0.952   4.295   8.993 -0.4207 -1.0268  0.9550
  105OSM   H13G10747   1.118   4.231   9.047  0.1308  0.4278 -1.0564
  105OSM   C14F10748   1.130   4.422   8.961  0.1604  0.2666 -0.7468
  105OSM   H14F10749   1.179   4.378   8.872 -0.5209 -0.5153 -0.7373
  105OSM   H14G10750   1.210   4.471   9.022 -0.7159  2.4335 -1.2537
  105OSM   C15F10751   1.056   4.543   8.920 -0.3188  0.5491 -0.1174
  105OSM   H15F10752   1.014   4.599   9.006 -1.5301  0.6446 -0.7608
  105OSM   H15G10753   0.969   4.502   8.866 -0.5171  0.2684  0.4083
  105OSM   C16F10754   1.127   4.641   8.830 -0.7490  0.3328 -0.3213
  105OSM   H16F10755   1.177   4.594   8.743 -1.0912 -1.8585  0.6179
  105OSM   H16G10756   1.212   4.691   8.880 -1.8118  3.2395 -1.1726
  105OSM   C17F10757   1.040   4.756   8.798 -0.4349  0.1479  0.0659
  105OSM   H17F10758   0.983   4.781   8.890 -1.1438 -0.5474 -0.1637
  105OSM   H17G10759   0.959   4.739   8.724  0.4623  0.6621 -1.0675
  105OSM   C18F10760   1.110   4.886   8.753  0.8611  0.5817  0.3953
  105OSM   H18F10761   1.152   4.859   8.653 -0.0091 -0.0492  0.1886
  105OSM   H18G10762   1.193   4.921   8.818 -0.3836  1.0628  1.7830
  105OSM   H18H10763   1.033   4.964   8.734 -0.3031 -0.1973  1.7438
  106OSM      N10764   6.749   5.372  10.832  0.4626  0.4294  0.7354
  106OSM    C1510765   6.757   5.421  10.972  0.1569 -0.0443  1.0834
  106OSM   H15A10766   6.668   5.398  11.029 -1.7314  1.6626 -0.9936
  106OSM   H15B10767   6.768   5.528  10.965  0.6031 -0.2142 -2.5346
  106OSM   H15C10768   6.838   5.369  11.019 -0.6542 -0.8914  1.5766
  106OSM    C1410769   6.877   5.401  10.766 -0.6382  0.5064 -0.0713
  106OSM   H14A10770   6.898   5.507  10.759  0.6543  0.3228  0.8334
  106OSM   H14B10771   6.882   5.358  10.667 -0.3164 -1.4029  0.7415
  106OSM   H14C10772   6.961   5.351  10.811  0.4179  0.4831 -1.9799
  106OSM    C1310773   6.724   5.227  10.831  0.1498  0.5164 -0.1139
  106OSM   H13A10774   6.710   5.191  10.730 -3.1425  1.3005 -0.0431
  106OSM   H13B10775   6.642   5.203  10.897  1.3142  0.4857  1.3726
  106OSM   H13C10776   6.813   5.177  10.865  1.1857  2.1555 -0.2894
  106OSM    C1210777   6.642   5.448  10.762 -0.2822 -0.0288 -0.0371
  106OSM   H12A10778   6.566   5.464  10.838  1.6288 -1.4056  2.3410
  106OSM   H12B10779   6.610   5.382  10.683  0.4517  1.5031 -1.6699
  106OSM    C1110780   6.670   5.596  10.708 -0.1593 -0.0453  0.1893
  106OSM   H11A10781   6.571   5.623  10.665  0.1262 -0.9329 -1.0827
  106OSM   H11B10782   6.739   5.605  10.621  0.8366  0.8649  1.0434
  106OSM      P10783   6.830   5.788  10.799  0.0822 -0.2412  0.0909
  106OSM    O1310784   6.784   5.920  10.851 -0.8060 -0.2885 -0.3737
  106OSM    O1410785   6.948   5.719  10.867  0.2917 -0.2853 -0.3946
  106OSM    O1110786   6.857   5.795  10.646  0.0065  0.0081 -0.2710
  106OSM    O1210787   6.708   5.683  10.817  0.0241  0.4555  0.2923
  106OSM    C1S10788   6.778   5.880  10.557  0.0876 -0.1807 -0.5210
  106OSM    H1S10789   6.763   5.984  10.594  0.4598 -0.1235 -0.5265
  106OSM    H1T10790   6.678   5.834  10.540 -1.2708  2.5070 -0.2951
  106OSM     NF10791   6.767   5.999  10.351  0.1875  0.0542 -0.9275
  106OSM    HNF10792   6.698   5.958  10.291  0.9342 -1.3623 -0.8435
  106OSM    C2S10793   6.852   5.899  10.418  0.0590  0.0877 -0.2980
  106OSM    H2S10794   6.958   5.929  10.430 -0.2439  0.9116  0.4906
  106OSM    C3S10795   6.844   5.766  10.340 -0.5225 -0.6593 -0.9208
  106OSM    H3S10796   6.738   5.745  10.314 -2.6869  1.5054  4.6552
  106OSM     O310797   6.890   5.655  10.416 -0.4722 -0.5111  0.4779
  106OSM    HO310798   6.893   5.690  10.505  2.2780 -0.0266  0.2776
  106OSM    C4S10799   6.921   5.767  10.208 -0.0693  1.2436  0.0739
  106OSM    H4S10800   7.030   5.779  10.217  0.0326  0.6480 -0.2890
  106OSM    C5S10801   6.862   5.773  10.086 -0.0265  0.1048 -0.8619
  106OSM    H5S10802   6.752   5.766  10.081  0.0211 -0.9891 -0.6767
  106OSM    C6S10803   6.925   5.753   9.949 -0.1170 -0.1970 -0.3741
  106OSM    H6S10804   6.964   5.649   9.942  0.4778 -0.0750  0.8517
  106OSM    H6T10805   7.008   5.817   9.913 -1.2857  1.0839 -0.8613
  106OSM    C7S10806   6.811   5.756   9.839 -0.6150 -0.0643 -1.2157
  106OSM    H7S10807   6.772   5.860   9.830 -0.0608  0.3881  0.9132
  106OSM    H7T10808   6.741   5.674   9.866  1.8558 -2.6004 -2.0330
  106OSM    C8S10809   6.847   5.707   9.697 -0.0092 -0.2276 -0.3704
  106OSM    H8S10810   6.906   5.613   9.706 -1.1582 -1.0696 -1.4366
  106OSM    H8T10811   6.907   5.786   9.648  0.2772  0.5097  1.0994
  106OSM    C9S10812   6.716   5.671   9.624 -1.1009  0.3397 -0.0877
  106OSM    H9S10813   6.632   5.740   9.651 -0.0910  0.7931  2.1660
  106OSM    H9T10814   6.684   5.572   9.663 -0.8696 -0.2787 -1.4291
  106OSM   C10S10815   6.727   5.652   9.477 -0.1189 -0.7305  0.3032
  106OSM   H10S10816   6.810   5.579   9.462  0.0129 -0.3505 -0.9711
  106OSM   H10T10817   6.751   5.750   9.431 -0.5383  0.4096  2.4196
  106OSM   C11S10818   6.596   5.599   9.417  0.1560 -0.7312 -0.2073
  106OSM   H11S10819   6.510   5.667   9.435  0.7666 -0.4084  1.6852
  106OSM   H11T10820   6.588   5.502   9.470  1.2063 -0.1072  1.1575
  106OSM   C12S10821   6.601   5.565   9.267  0.6281 -0.6655  0.1536
  106OSM   H12S10822   6.507   5.519   9.230  0.0730  0.8771 -0.4227
  106OSM   H12T10823   6.685   5.495   9.248 -0.5229 -2.0314 -0.0544
  106OSM   C13S10824   6.628   5.695   9.188 -1.2165 -0.0886 -0.0557
  106OSM   H13S10825   6.737   5.702   9.169 -0.5419 -1.8988  2.6487
  106OSM   H13T10826   6.596   5.787   9.242  0.8936  0.2005  0.8003
  106OSM   C14S10827   6.554   5.694   9.046 -0.4195  0.4633  0.3772
  106OSM   H14S10828   6.446   5.721   9.050 -0.6903 -0.3802 -0.7518
  106OSM   H14T10829   6.553   5.589   9.010 -0.2603  1.1712 -1.8499
  106OSM   C15S10830   6.627   5.780   8.941  0.3140 -1.0794  0.0793
  106OSM   H15S10831   6.729   5.743   8.917  0.2372 -1.9751  1.0572
  106OSM   H15T10832   6.643   5.881   8.985 -0.2661 -0.0328 -1.9783
  106OSM   C16S10833   6.544   5.800   8.815  0.0578  0.0411  0.3851
  106OSM   H16S10834   6.452   5.854   8.847 -0.0737 -0.3355  0.6472
  106OSM   H16T10835   6.501   5.706   8.776 -0.4515 -0.3569  1.8392
  106OSM   C17S10836   6.602   5.877   8.693 -0.1338 -0.1279  0.3945
  106OSM   H17S10837   6.682   5.814   8.649 -1.9752 -1.1119 -1.7901
  106OSM   H17T10838   6.646   5.969   8.736  1.1529 -1.4832  2.1276
  106OSM   C18S10839   6.493   5.892   8.588 -0.3676 -0.4361 -0.5584
  106OSM   H18S10840   6.394   5.910   8.636 -0.3678  1.3571 -1.1800
  106OSM   H18T10841   6.476   5.799   8.529  0.2350 -1.4459  0.7917
  106OSM   H18U10842   6.524   5.975   8.522  1.1044  1.2629  2.0747
  106OSM    C1F10843   6.762   6.126  10.365  0.4034 -0.0104 -0.0745
  106OSM     OF10844   6.849   6.181  10.434  0.5617 -0.3042  0.3308
  106OSM    C2F10845   6.657   6.207  10.297 -0.7466 -0.4320 -0.3336
  106OSM    H2F10846   6.665   6.311  10.333 -0.0482 -0.5707 -0.0606
  106OSM    H2G10847   6.558   6.158  10.287  0.6563 -3.5212 -0.4076
  106OSM    C3F10848   6.681   6.236  10.142  0.2717 -0.3511 -0.1791
  106OSM    H3F10849   6.662   6.144  10.082 -0.4029  1.0709 -2.2478
  106OSM    H3G10850   6.790   6.259  10.138  0.1929  0.7374  2.1422
  106OSM    C4F10851   6.589   6.348  10.076 -0.2853 -0.2490  0.1266
  106OSM    H4F10852   6.597   6.441  10.136  0.7891 -0.2011 -0.0658
  106OSM    H4G10853   6.486   6.308  10.078 -0.9594  1.3112 -1.1884
  106OSM    C5F10854   6.616   6.374   9.925  0.2468  0.8842  0.3529
  106OSM    H5F10855   6.617   6.277   9.871  4.2806 -0.4081  2.3190
  106OSM    H5G10856   6.717   6.417   9.912  0.5887 -0.2211 -0.8516
  106OSM    C6F10857   6.507   6.473   9.878  0.0985  0.0986 -0.1570
  106OSM    H6F10858   6.520   6.573   9.924 -1.4151  0.3290 -0.1697
  106OSM    H6G10859   6.409   6.430   9.909 -0.7777  0.9165 -1.6958
  106OSM    C7F10860   6.521   6.485   9.727 -0.3568 -0.1527  0.0515
  106OSM    H7F10861   6.538   6.380   9.693 -1.0603 -1.0339  2.2731
  106OSM    H7G10862   6.616   6.535   9.700  0.7953  0.1706  4.0910
  106OSM    C8F10863   6.409   6.558   9.660 -0.1467 -0.3335  0.0434
  106OSM    H8F10864   6.432   6.590   9.556  0.5352  2.2303  0.9051
  106OSM    H8G10865   6.392   6.655   9.713  2.0039 -0.6829  1.5258
  106OSM    C9F10866   6.283   6.472   9.660 -0.3471 -0.1178 -0.5683
  106OSM    H9F10867   6.267   6.398   9.740  0.0454  1.4820  1.0379
  106OSM   C10F10868   6.192   6.480   9.566  0.4871  0.0321  0.6322
  106OSM   H10F10869   6.102   6.417   9.560  0.6513 -0.0663 -1.5484
  106OSM   C11F10870   6.201   6.589   9.462 -0.4002  0.3368  0.7552
  106OSM   H11F10871   6.261   6.673   9.503  0.0685 -1.5081  4.2799
  106OSM   H11G10872   6.100   6.613   9.422 -1.1689 -3.5191 -0.0291
  106OSM   C12F10873   6.279   6.542   9.339  0.0472  0.1216  0.1619
  106OSM   H12F10874   6.224   6.453   9.302  0.2901  0.1833 -0.3491
  106OSM   H12G10875   6.379   6.509   9.374 -1.3038 -0.1149  4.2971
  106OSM   C13F10876   6.282   6.651   9.230 -1.0545  0.2517  0.0304
  106OSM   H13F10877   6.344   6.732   9.274  0.0597 -0.8524  0.5268
  106OSM   H13G10878   6.179   6.690   9.211 -0.0780  3.0101 -0.1197
  106OSM   C14F10879   6.352   6.601   9.099 -0.4042  0.9219 -0.5124
  106OSM   H14F10880   6.304   6.509   9.058 -0.6589  0.6807  0.2965
  106OSM   H14G10881   6.458   6.570   9.113 -0.2001  2.0220  0.5712
  106OSM   C15F10882   6.345   6.700   8.985  0.1043 -0.2430  0.3747
  106OSM   H15F10883   6.394   6.655   8.896 -1.1990 -0.7913 -0.0831
  106OSM   H15G10884   6.396   6.793   9.019 -0.4299  0.2911 -0.2573
  106OSM   C16F10885   6.210   6.741   8.927 -0.0574  0.0957  0.1733
  106OSM   H16F10886   6.154   6.801   9.002  0.3805 -0.2510  0.7803
  106OSM   H16G10887   6.150   6.657   8.888 -0.1819  0.2345  0.0628
  106OSM   C17F10888   6.217   6.846   8.810 -0.0640  0.3173 -0.1446
  106OSM   H17F10889   6.307   6.823   8.750 -0.6068  1.0531 -1.2762
  106OSM   H17G10890   6.218   6.950   8.849 -0.4488 -0.1406  1.1561
  106OSM   C18F10891   6.098   6.824   8.719  0.2741 -0.4101 -0.3411
  106OSM   H18F10892   5.997   6.807   8.763 -0.0502 -0.9760 -1.2761
  106OSM   H18G10893   6.117   6.727   8.669  0.8440 -0.0467 -0.8380
  106OSM   H18H10894   6.095   6.896   8.635  1.6821 -1.8184 -1.6660
  107OSM      N10895   2.524   6.627  10.725 -0.2296  0.2606  0.6892
  107OSM    C1510896   2.589   6.495  10.699 -0.1699  0.4528 -0.4652
  107OSM   H15A10897   2.539   6.433  10.626  1.3157 -0.0245 -1.1143
  107OSM   H15B10898   2.584   6.429  10.785 -2.0910  1.5831  0.3527
  107OSM   H15C10899   2.687   6.507  10.655 -0.3783 -2.4089 -1.9625
  107OSM    C1410900   2.391   6.589  10.789 -0.2630  0.1955  0.2870
  107OSM   H14A10901   2.333   6.524  10.725 -2.3138  1.0446  1.2294
  107OSM   H14B10902   2.329   6.675  10.805  0.5219  1.1966 -1.7053
  107OSM   H14C10903   2.413   6.546  10.885 -1.5028 -0.2795  0.3689
  107OSM    C1310904   2.597   6.696  10.829 -0.4270  0.0920  0.4370
  107OSM   H13A10905   2.588   6.642  10.921 -0.0823  0.3733  0.6368
  107OSM   H13B10906   2.548   6.790  10.850 -2.3350 -1.2703  2.4871
  107OSM   H13C10907   2.704   6.705  10.818 -0.2992 -1.5691  0.1375
  107OSM    C1210908   2.509   6.712  10.600 -0.0982 -0.5540  0.2872
  107OSM   H12A10909   2.481   6.657  10.512 -0.8264  1.6903 -0.9881
  107OSM   H12B10910   2.611   6.742  10.585  0.3940 -1.5276  1.5447
  107OSM    C1110911   2.432   6.847  10.597 -0.2465  0.7297  0.1797
  107OSM   H11A10912   2.326   6.816  10.591 -0.6631  1.8256  1.2778
  107OSM   H11B10913   2.452   6.911  10.508  1.6360  2.1535  1.5493
  107OSM      P10914   2.331   6.978  10.791 -0.0805  0.2618  0.2857
  107OSM    O1310915   2.279   6.862  10.868 -0.2467  0.2933  0.2155
  107OSM    O1410916   2.359   7.097  10.877  0.3625  0.2882  0.0279
  107OSM    O1110917   2.229   7.015  10.677 -0.1825 -0.2585  0.4875
  107OSM    O1210918   2.455   6.928  10.713 -0.2980  0.4464 -0.0611
  107OSM    C1S10919   2.253   7.104  10.568 -0.1630 -0.4412 -0.6639
  107OSM    H1S10920   2.363   7.122  10.558  0.3105 -1.4476  1.9712
  107OSM    H1T10921   2.202   7.201  10.589  1.8189  0.7159 -0.8486
  107OSM     NF10922   2.222   7.163  10.334  0.5608 -0.5637 -0.3958
  107OSM    HNF10923   2.140   7.210  10.302  0.2305 -0.9417 -0.1212
  107OSM    C2S10924   2.203   7.055  10.429 -0.9389  0.3132 -0.6225
  107OSM    H2S10925   2.253   6.959  10.403  0.4571  0.3921  1.4951
  107OSM    C3S10926   2.056   7.006  10.443  0.3052 -0.5376  0.2543
  107OSM    H3S10927   2.004   7.101  10.462 -0.4120 -0.7959 -0.3707
  107OSM     O310928   2.019   6.922  10.553  0.0441  0.1414 -0.2978
  107OSM    HO310929   2.102   6.915  10.602 -1.5565 -0.6498  2.5448
  107OSM    C4S10930   2.000   6.954  10.316 -0.0429 -0.0517  0.3707
  107OSM    H4S10931   1.976   7.028  10.238  0.2676 -2.1917 -1.9070
  107OSM    C5S10932   1.998   6.826  10.272 -0.4453 -0.2844  0.1902
  107OSM    H5S10933   2.027   6.738  10.333 -1.5948 -1.5469 -1.0132
  107OSM    C6S10934   1.950   6.783  10.140  0.8212  0.5838  0.0447
  107OSM    H6S10935   1.848   6.744  10.157  0.9286  0.8799  1.4581
  107OSM    H6T10936   2.019   6.701  10.113 -0.1631 -0.0059 -0.7666
  107OSM    C7S10937   1.934   6.884  10.027 -0.3353 -0.3129  0.5222
  107OSM    H7S10938   2.034   6.931  10.019  0.2940 -1.5624  0.8461
  107OSM    H7T10939   1.866   6.969  10.050  0.3547 -0.0624  1.7214
  107OSM    C8S10940   1.883   6.815   9.901  0.2314  0.0715  0.3330
  107OSM    H8S10941   1.784   6.766   9.918 -1.2893  2.7789 -0.1426
  107OSM    H8T10942   1.959   6.737   9.880 -0.6830 -0.3102 -1.7932
  107OSM    C9S10943   1.877   6.912   9.789 -0.0961  0.2721 -0.7463
  107OSM    H9S10944   1.881   6.865   9.688 -0.2203  0.1393 -0.6889
  107OSM    H9T10945   1.964   6.981   9.790  0.5081 -0.4809 -0.3812
  107OSM   C10S10946   1.739   6.988   9.779 -0.4074 -0.3536  0.4838
  107OSM   H10S10947   1.708   7.032   9.877 -1.0664 -0.3042  0.2618
  107OSM   H10T10948   1.661   6.914   9.751  0.0787 -0.4414 -0.6831
  107OSM   C11S10949   1.747   7.101   9.675  0.6447  0.9582 -0.7765
  107OSM   H11S10950   1.841   7.157   9.696  0.9897 -0.4895  2.1582
  107OSM   H11T10951   1.663   7.171   9.696 -0.3082 -0.4976  0.5065
  107OSM   C12S10952   1.731   7.061   9.523 -0.0420 -0.5636  0.0446
  107OSM   H12S10953   1.632   7.014   9.507 -1.5598  2.3118  0.3062
  107OSM   H12T10954   1.812   6.994   9.487  1.5798  2.4613 -2.4302
  107OSM   C13S10955   1.744   7.194   9.444  0.0771  0.3532  0.2891
  107OSM   H13S10956   1.850   7.224   9.433  0.9119 -1.8549  1.6725
  107OSM   H13T10957   1.696   7.277   9.500  0.3571  0.0070  1.0471
  107OSM   C14S10958   1.689   7.174   9.298 -0.1196 -0.1220  0.2463
  107OSM   H14S10959   1.583   7.139   9.296  0.2217 -1.2936  1.4315
  107OSM   H14T10960   1.761   7.110   9.244  0.7175  0.2395  0.9157
  107OSM   C15S10961   1.680   7.306   9.219  0.3008  0.2154  0.5494
  107OSM   H15S10962   1.780   7.353   9.231  0.3346 -0.0029  1.1872
  107OSM   H15T10963   1.610   7.374   9.271 -0.2608 -0.6703  0.9845
  107OSM   C16S10964   1.650   7.275   9.069  0.1588  0.2667  0.5589
  107OSM   H16S10965   1.544   7.243   9.060  0.5867 -0.7479 -1.4832
  107OSM   H16T10966   1.724   7.200   9.035  0.1545 -0.1806  1.5160
  107OSM   C17S10967   1.669   7.399   8.986  0.4071  0.5507  0.2610
  107OSM   H17S10968   1.765   7.450   9.010  0.2759  0.0876  1.8531
  107OSM   H17T10969   1.591   7.474   9.011  2.1312  1.7720  2.3854
  107OSM   C18S10970   1.693   7.364   8.832 -0.4026  0.2589  0.0281
  107OSM   H18S10971   1.772   7.286   8.837 -0.2762  0.4312  0.9765
  107OSM   H18T10972   1.721   7.450   8.768 -2.1050  0.4970 -0.4568
  107OSM   H18U10973   1.602   7.316   8.789 -0.4934  2.3606 -2.3454
  107OSM    C1F10974   2.346   7.199  10.295 -0.0614 -0.1376  0.1111
  107OSM     OF10975   2.447   7.130  10.314 -0.6378  0.0020 -0.2949
  107OSM    C2F10976   2.367   7.328  10.229 -0.8441  0.1221  0.3632
  107OSM    H2F10977   2.454   7.370  10.284  0.3150 -0.8971 -0.6268
  107OSM    H2G10978   2.273   7.387  10.228 -1.1449 -0.3387 -1.0231
  107OSM    C3F10979   2.408   7.311  10.082  0.6332 -0.2125 -0.1743
  107OSM    H3F10980   2.477   7.226  10.065  1.9727  0.6743  0.6500
  107OSM    H3G10981   2.477   7.395  10.058  0.7537  0.1984  1.4580
  107OSM    C4F10982   2.293   7.300   9.968  0.4582  0.1565 -0.1817
  107OSM    H4F10983   2.237   7.396   9.966  1.6763  0.8888 -2.3606
  107OSM    H4G10984   2.214   7.236  10.015  0.3779 -2.1211 -3.1093
  107OSM    C5F10985   2.341   7.257   9.837 -0.0971 -0.3813  0.8158
  107OSM    H5F10986   2.384   7.155   9.843 -2.7667 -1.7378 -1.0581
  107OSM    H5G10987   2.411   7.339   9.809  0.0314 -0.5646  0.5985
  107OSM    C6F10988   2.230   7.263   9.735  0.9488 -0.2538 -0.2277
  107OSM    H6F10989   2.192   7.367   9.741 -1.6371 -1.1630  0.5219
  107OSM    H6G10990   2.151   7.200   9.783  1.6785 -0.7141  0.3919
  107OSM    C7F10991   2.268   7.217   9.599 -0.5624 -0.1720  0.4479
  107OSM    H7F10992   2.296   7.110   9.609 -2.3494 -0.6703  0.5262
  107OSM    H7G10993   2.362   7.260   9.559 -1.4166  0.3824 -1.0699
  107OSM    C8F10994   2.143   7.221   9.503 -0.3334 -0.8991  1.0305
  107OSM    H8F10995   2.059   7.175   9.558 -1.1525 -0.7427 -0.0635
  107OSM    H8G10996   2.173   7.156   9.418 -0.3657 -1.3426  1.3537
  107OSM    C9F10997   2.101   7.359   9.449  0.2501 -0.5434  0.3341
  107OSM    H9F10998   2.073   7.424   9.534 -0.0874 -0.7423  0.3740
  107OSM   C10F10999   2.096   7.400   9.324 -0.7303 -0.2031 -0.1162
  107OSM   H10F11000   2.051   7.496   9.295 -0.9404 -0.1217  0.4794
  107OSM   C11F11001   2.147   7.324   9.199 -0.1887 -0.9153  0.1779
  107OSM   H11F11002   2.205   7.234   9.230 -0.6754 -1.6330 -0.9454
  107OSM   H11G11003   2.214   7.386   9.136 -0.8860 -2.2431 -1.9959
  107OSM   C12F11004   2.027   7.283   9.107 -0.5708  0.6733  0.2666
  107OSM   H12F11005   1.973   7.377   9.081  1.3773  1.5506 -0.8599
  107OSM   H12G11006   1.964   7.209   9.161  0.1026  0.0598  0.2317
  107OSM   C13F11007   2.075   7.229   8.967 -0.2309 -0.6134 -0.2090
  107OSM   H13F11008   2.145   7.299   8.917 -0.5563 -0.7977 -0.9391
  107OSM   H13G11009   1.996   7.205   8.893 -0.8633 -0.8687  0.5339
  107OSM   C14F11010   2.151   7.095   8.973  0.3387 -0.5340 -0.2334
  107OSM   H14F11011   2.078   7.015   8.997 -1.4676  1.5202  1.6568
  107OSM   H14G11012   2.224   7.091   9.057  0.3804  0.9590 -0.1663
  107OSM   C15F11013   2.232   7.058   8.846  0.3949  0.1981 -0.5639
  107OSM   H15F11014   2.275   7.151   8.802  1.9350  0.2263  0.9111
  107OSM   H15G11015   2.150   7.025   8.778  2.0204  0.5535 -2.8347
  107OSM   C16F11016   2.335   6.940   8.861  0.2829 -0.4051  0.7748
  107OSM   H16F11017   2.268   6.852   8.850  0.4559 -0.3726 -0.8599
  107OSM   H16G11018   2.385   6.939   8.960 -0.1210 -1.1642  0.9807
  107OSM   C17F11019   2.436   6.917   8.745  0.4257 -0.5882  0.0107
  107OSM   H17F11020   2.496   6.825   8.765 -0.9157 -1.0779  2.0177
  107OSM   H17G11021   2.513   6.997   8.757 -0.4340  0.3605 -0.6435
  107OSM   C18F11022   2.366   6.920   8.610  0.2120  0.2911  0.3129
  107OSM   H18F11023   2.423   6.882   8.523  0.1334  0.0139  0.3817
  107OSM   H18G11024   2.342   7.026   8.585  1.7035  0.1269 -2.1421
  107OSM   H18H11025   2.275   6.857   8.617  1.0907 -0.8993  1.6382
  108OSM      N11026   4.331   1.783  11.024 -0.2809 -0.4154 -0.4975
  108OSM    C1511027   4.244   1.668  11.006  0.1044  0.3373 -0.4225
  108OSM   H15A11028   4.245   1.609  11.096 -0.0450 -0.5775 -1.0043
  108OSM   H15B11029   4.273   1.604  10.924  1.6178  0.2322  0.1651
  108OSM   H15C11030   4.139   1.692  10.993 -0.6489 -1.5561  1.5158
  108OSM    C1411031   4.296   1.830  11.158 -0.3762 -0.2852  0.6174
  108OSM   H14A11032   4.326   1.751  11.225  1.3910  0.0663  0.2717
  108OSM   H14B11033   4.194   1.865  11.167  0.1681  1.1979  1.2436
  108OSM   H14C11034   4.354   1.912  11.196 -2.2478  1.4458 -0.0545
  108OSM    C1311035   4.478   1.740  11.016  0.2752  0.5153 -0.3262
  108OSM   H13A11036   4.544   1.818  11.051  0.8318 -0.6753  1.3534
  108OSM   H13B11037   4.507   1.717  10.914  3.9142  3.2753 -0.1101
  108OSM   H13C11038   4.497   1.654  11.078 -2.7657  0.3078  0.5036
  108OSM    C1211039   4.310   1.899  10.924 -0.1426  0.4751  0.4689
  108OSM   H12A11040   4.379   1.976  10.956 -0.9465  1.3922  0.0529
  108OSM   H12B11041   4.208   1.932  10.930 -0.0394  0.7286  0.8382
  108OSM    C1111042   4.333   1.873  10.768 -0.5528 -0.3825  0.3576
  108OSM   H11A11043   4.306   1.953  10.696  6.0092  0.1339 -2.2180
  108OSM   H11B11044   4.259   1.794  10.738  1.6116 -1.7597 -1.7242
  108OSM      P11045   4.581   1.941  10.733  0.0171 -0.2461  0.2209
  108OSM    O1311046   4.569   2.050  10.839  0.1674  0.2071 -0.2828
  108OSM    O1411047   4.707   1.866  10.736  0.0791 -0.3193  0.0106
  108OSM    O1111048   4.570   1.997  10.584  0.2951 -0.3968  0.2773
  108OSM    O1211049   4.471   1.831  10.738 -0.3568 -0.2220 -0.1238
  108OSM    C1S11050   4.496   1.921  10.484 -0.0847  1.3934 -0.4844
  108OSM    H1S11051   4.390   1.933  10.514  0.8133  2.3150  2.6881
  108OSM    H1T11052   4.516   1.812  10.492  0.8987  1.5769 -0.2725
  108OSM     NF11053   4.399   1.928  10.254  0.3563  0.2593 -0.9421
  108OSM    HNF11054   4.401   1.867  10.176 -1.1622 -0.0119 -0.8068
  108OSM    C2S11055   4.509   1.972  10.332 -0.9766 -0.4170  0.3007
  108OSM    H2S11056   4.509   2.083  10.324 -0.2685 -0.3399  1.2158
  108OSM    C3S11057   4.644   1.909  10.283  0.0480 -0.4208  0.4197
  108OSM    H3S11058   4.631   1.799  10.292 -0.6289 -0.2335  1.9556
  108OSM     O311059   4.753   1.943  10.369  0.0003 -0.4217 -0.1773
  108OSM    HO311060   4.705   1.991  10.437 -0.9366  0.0166 -1.1218
  108OSM    C4S11061   4.664   1.955  10.138  0.3294  0.9811 -0.3178
  108OSM    H4S11062   4.613   1.894  10.061 -0.7709  0.0979  1.0555
  108OSM    C5S11063   4.735   2.069  10.101 -0.1828  0.0550 -0.3123
  108OSM    H5S11064   4.788   2.118  10.183  2.1365 -2.7569  0.0344
  108OSM    C6S11065   4.754   2.122   9.963 -0.1609  0.0678 -0.8992
  108OSM    H6S11066   4.858   2.159   9.950  0.2440 -0.5836  0.3434
  108OSM    H6T11067   4.690   2.209   9.940 -0.9881 -0.5961 -1.1455
  108OSM    C7S11068   4.716   2.040   9.841 -0.5223  0.4838  0.3714
  108OSM    H7S11069   4.608   2.025   9.860 -0.3871  1.7171  2.3095
  108OSM    H7T11070   4.769   1.945   9.858  2.2366  1.7125 -0.7840
  108OSM    C8S11071   4.746   2.094   9.702  0.5144 -0.4475  0.4874
  108OSM    H8S11072   4.839   2.156   9.700  0.8546 -0.9732 -0.5854
  108OSM    H8T11073   4.670   2.167   9.670 -0.3449 -1.9056 -0.9355
  108OSM    C9S11074   4.764   1.994   9.586  0.5347  0.0074 -0.3430
  108OSM    H9S11075   4.697   1.907   9.598 -1.5943  1.4040 -1.4405
  108OSM    H9T11076   4.866   1.950   9.583 -0.0279 -1.2870 -1.0977
  108OSM   C10S11077   4.735   2.060   9.446 -0.1657 -0.2674  0.2137
  108OSM   H10S11078   4.799   2.150   9.441 -1.4074  0.6135 -0.3209
  108OSM   H10T11079   4.629   2.092   9.441 -0.1349  0.2571  2.1912
  108OSM   C11S11080   4.790   1.982   9.330  0.3869 -0.5835  0.5428
  108OSM   H11S11081   4.741   1.884   9.348 -1.3464  0.3379  1.0883
  108OSM   H11T11082   4.901   1.970   9.333  0.8239  2.6758  2.2510
  108OSM   C12S11083   4.746   2.054   9.196 -0.4270  0.1205  0.1032
  108OSM   H12S11084   4.779   2.159   9.210  1.5108 -0.3207 -0.8097
  108OSM   H12T11085   4.636   2.047   9.183 -0.2810 -0.6244 -0.8621
  108OSM   C13S11086   4.815   2.011   9.068  0.7930  0.0369  0.5851
  108OSM   H13S11087   4.776   1.909   9.049  1.9627 -0.6733  1.8416
  108OSM   H13T11088   4.925   2.023   9.062  0.9958 -1.1210  1.5649
  108OSM   C14S11089   4.766   2.113   8.953 -0.0824 -0.2589  0.8488
  108OSM   H14S11090   4.854   2.128   8.886 -0.4206  0.9976  0.6509
  108OSM   H14T11091   4.737   2.210   8.998 -3.7697 -1.9142  2.4151
  108OSM   C15S11092   4.650   2.065   8.863  0.5786 -0.0216 -0.0004
  108OSM   H15S11093   4.551   2.095   8.904 -0.4030 -0.2136 -2.0903
  108OSM   H15T11094   4.658   1.956   8.881  0.6455  0.2664  1.8875
  108OSM   C16S11095   4.667   2.117   8.721 -0.1075 -0.6644 -0.4570
  108OSM   H16S11096   4.773   2.106   8.689  0.6314 -1.2483  2.0373
  108OSM   H16T11097   4.643   2.225   8.714  1.2654 -0.2703  0.3796
  108OSM   C17S11098   4.587   2.047   8.613  0.0361 -0.1430 -0.0410
  108OSM   H17S11099   4.630   1.945   8.609  1.6848  0.5594 -1.0608
  108OSM   H17T11100   4.603   2.093   8.513  4.2812 -3.3443 -1.1220
  108OSM   C18S11101   4.439   2.041   8.649 -0.4381  0.4560  0.3264
  108OSM   H18S11102   4.375   2.026   8.559  0.0556 -1.3134  0.2452
  108OSM   H18T11103   4.403   2.133   8.700  1.0119  1.4438 -0.3783
  108OSM   H18U11104   4.424   1.950   8.711 -0.9841  0.0450 -0.3901
  108OSM    C1F11105   4.280   1.988  10.265 -0.2536  0.7390  0.1403
  108OSM     OF11106   4.263   2.078  10.333  0.3036 -0.2679  0.2117
  108OSM    C2F11107   4.169   1.930  10.172 -0.2929 -0.7356 -0.2935
  108OSM    H2F11108   4.086   1.892  10.235 -0.5748  1.5010  0.7605
  108OSM    H2G11109   4.216   1.842  10.122  0.9786 -1.3028  1.7641
  108OSM    C3F11110   4.119   2.030  10.063 -0.6941  0.3913  0.5801
  108OSM    H3F11111   4.164   2.131  10.067  2.4387 -0.8192 -0.5118
  108OSM    H3G11112   4.014   2.045  10.096  0.0115  0.4220  3.0043
  108OSM    C4F11113   4.126   1.988   9.913  0.3137  0.3756 -1.0141
  108OSM    H4F11114   4.075   1.889   9.907  1.0845 -0.0754 -0.3503
  108OSM    H4G11115   4.229   1.976   9.873  0.1956 -2.4349 -0.6690
  108OSM    C5F11116   4.051   2.078   9.818 -0.3406  0.5188  0.3439
  108OSM    H5F11117   4.098   2.179   9.817  0.3549  0.2012 -1.0777
  108OSM    H5G11118   3.948   2.088   9.859  0.3165  1.0631  1.9687
  108OSM    C6F11119   4.053   2.039   9.672  0.4938 -0.3502 -0.2683
  108OSM    H6F11120   3.990   2.112   9.617  0.1000 -0.6834 -0.2647
  108OSM    H6G11121   4.006   1.940   9.651 -0.3713 -0.2693  1.1330
  108OSM    C7F11122   4.198   2.042   9.621  0.4334  0.4625  0.0591
  108OSM    H7F11123   4.268   1.965   9.661  0.4279 -0.1723 -1.1011
  108OSM    H7G11124   4.236   2.144   9.643 -0.0606  0.9549 -1.3042
  108OSM    C8F11125   4.216   2.039   9.460  0.3377 -0.0928  0.5084
  108OSM    H8F11126   4.325   2.049   9.440  0.0260  0.5788 -0.9438
  108OSM    H8G11127   4.179   2.130   9.409 -1.7925  0.2601  2.5222
  108OSM    C9F11128   4.157   1.918   9.401  0.3430  0.1948  0.1251
  108OSM    H9F11129   4.048   1.908   9.394  0.3778 -0.0154 -0.1478
  108OSM   C10F11130   4.231   1.821   9.340 -0.5476 -0.4044 -0.1365
  108OSM   H10F11131   4.184   1.726   9.312  2.1348 -1.7266 -0.3700
  108OSM   C11F11132   4.381   1.815   9.319 -0.1798  0.1661  0.4726
  108OSM   H11F11133   4.424   1.727   9.371  0.7825  0.1312 -0.3629
  108OSM   H11G11134   4.432   1.903   9.366 -1.6480  2.1555 -1.4324
  108OSM   C12F11135   4.419   1.820   9.167  0.2054  0.3821 -0.8355
  108OSM   H12F11136   4.527   1.841   9.154 -0.0007  1.9113 -0.3732
  108OSM   H12G11137   4.362   1.905   9.122  3.2290  2.2282 -1.4780
  108OSM   C13F11138   4.389   1.691   9.088 -0.3107 -0.1972 -0.6593
  108OSM   H13F11139   4.283   1.663   9.106 -0.2846 -0.1726 -0.4699
  108OSM   H13G11140   4.451   1.603   9.114 -0.7633 -0.0294  1.1085
  108OSM   C14F11141   4.404   1.709   8.941 -0.0248 -0.0730  0.3211
  108OSM   H14F11142   4.419   1.608   8.897  1.3819  0.8136 -1.3622
  108OSM   H14G11143   4.501   1.759   8.921  0.0695 -0.7085 -0.9456
  108OSM   C15F11144   4.293   1.777   8.858  0.1350 -0.0168  0.2001
  108OSM   H15F11145   4.338   1.792   8.757 -1.6476  0.0792 -0.6120
  108OSM   H15G11146   4.270   1.875   8.903 -0.1975  0.0745 -0.1653
  108OSM   C16F11147   4.161   1.696   8.840  0.3760  0.4391  0.3068
  108OSM   H16F11148   4.134   1.670   8.945  0.0028 -0.4015  0.0144
  108OSM   H16G11149   4.176   1.603   8.781  0.6683 -1.3382  2.9851
  108OSM   C17F11150   4.048   1.785   8.783 -0.0244  0.3440 -0.3946
  108OSM   H17F11151   4.066   1.776   8.674  0.9534 -2.6297 -0.0653
  108OSM   H17G11152   4.076   1.887   8.816  1.0683  0.1745 -0.7657
  108OSM   C18F11153   3.903   1.746   8.810 -0.1023  0.3082 -0.0358
  108OSM   H18F11154   3.886   1.722   8.917  0.1816 -1.4104 -0.3543
  108OSM   H18G11155   3.879   1.664   8.739 -1.3741  0.9336 -0.3497
  108OSM   H18H11156   3.836   1.834   8.796  0.1131  0.7364  1.4714
  109OSM      N11157   3.933   2.866  11.093  0.0109 -0.2672  0.6997
  109OSM    C1511158   4.010   2.986  11.142  0.8333 -0.7438  0.2931
  109OSM   H15A11159   3.948   3.074  11.141  0.7850 -0.7771 -0.5768
  109OSM   H15B11160   4.099   3.011  11.086  0.0578 -0.9549 -1.0935
  109OSM   H15C11161   4.045   2.973  11.243  2.0708  0.2508  0.0087
  109OSM    C1411162   4.011   2.740  11.077 -0.5365 -1.2049 -0.7612
  109OSM   H14A11163   4.101   2.765  11.023 -1.4644  1.6651 -1.1552
  109OSM   H14B11164   3.948   2.665  11.034 -0.9576 -0.9959 -0.5106
  109OSM   H14C11165   4.049   2.712  11.175  0.7052  0.5909 -0.6795
  109OSM    C1311166   3.830   2.842  11.198 -0.0548  0.0853 -0.5250
  109OSM   H13A11167   3.879   2.785  11.276  2.6275  0.5741 -1.7183
  109OSM   H13B11168   3.741   2.789  11.169 -0.0327 -1.5353  2.0417
  109OSM   H13C11169   3.789   2.931  11.242  0.3457  0.5596 -1.1012
  109OSM    C1211170   3.871   2.898  10.959 -0.1874  0.3458  0.1298
  109OSM   H12A11171   3.947   2.921  10.885 -1.0289 -0.3437 -0.9712
  109OSM   H12B11172   3.815   2.989  10.971 -0.6634  0.1104 -0.3010
  109OSM    C1111173   3.795   2.783  10.878 -0.6271 -0.2610  0.0585
  109OSM   H11A11174   3.864   2.706  10.836  0.8717  0.3098  1.3378
  109OSM   H11B11175   3.752   2.837  10.791 -0.5604 -0.6026 -0.1885
  109OSM      P11176   3.669   2.580  10.968 -0.1286  0.1063  0.0705
  109OSM    O1311177   3.792   2.529  11.031 -0.4445 -0.5635  0.1121
  109OSM    O1411178   3.539   2.550  11.033  0.1651  0.0942  0.2594
  109OSM    O1111179   3.661   2.520  10.818 -0.8579  0.1227 -0.5115
  109OSM    O1211180   3.679   2.730  10.939  0.1648  0.1864 -0.1715
  109OSM    C1S11181   3.571   2.553  10.718  0.2951  0.0733  0.3471
  109OSM    H1S11182   3.579   2.660  10.692  1.7768  0.0660  0.6416
  109OSM    H1T11183   3.470   2.524  10.753  0.3410 -0.5707 -0.0352
  109OSM     NF11184   3.496   2.507  10.489  0.1640 -0.4178  0.4517
  109OSM    HNF11185   3.414   2.450  10.495 -0.6839  0.1964 -2.9670
  109OSM    C2S11186   3.601   2.473  10.587 -0.0889 -0.6746  0.1439
  109OSM    H2S11187   3.698   2.503  10.542  0.3358  0.5815  1.7939
  109OSM    C3S11188   3.601   2.314  10.611  0.6138 -0.5896 -0.3628
  109OSM    H3S11189   3.500   2.297  10.652 -0.1752  0.6514 -1.6639
  109OSM     O311190   3.685   2.276  10.717 -0.3743  0.5045 -0.8687
  109OSM    HO311191   3.694   2.356  10.769 -0.9532 -1.2863  2.2122
  109OSM    C4S11192   3.631   2.241  10.483 -0.0251 -0.2942 -0.1449
  109OSM    H4S11193   3.548   2.184  10.440 -1.1460  1.6068 -0.6392
  109OSM    C5S11194   3.753   2.225  10.427  0.1698 -0.0186  0.4469
  109OSM    H5S11195   3.844   2.249  10.485  0.0281 -1.1810  1.1848
  109OSM    C6S11196   3.771   2.134  10.304 -0.1617 -0.3305 -0.1364
  109OSM    H6S11197   3.792   2.034  10.347 -1.1213 -0.2179  0.6271
  109OSM    H6T11198   3.856   2.168  10.242  0.1751 -0.5209  0.2190
  109OSM    C7S11199   3.654   2.097  10.207 -0.3485 -0.5206 -0.1202
  109OSM    H7S11200   3.604   2.194  10.188  0.3825  0.4875  2.6051
  109OSM    H7T11201   3.575   2.047  10.267 -0.3073  0.0822  0.4531
  109OSM    C8S11202   3.695   2.010  10.085 -1.3358 -0.2454  0.2698
  109OSM    H8S11203   3.746   1.917  10.116  1.5519  0.9111 -0.6680
  109OSM    H8T11204   3.772   2.065  10.026  1.2182 -1.3414  2.3899
  109OSM    C9S11205   3.577   1.974   9.988  0.0934  0.3926  0.4695
  109OSM    H9S11206   3.533   2.067   9.944  0.6477  0.5975  0.3330
  109OSM    H9T11207   3.501   1.920  10.048 -1.3813 -0.0702 -1.6812
  109OSM   C10S11208   3.622   1.878   9.883  0.9436  0.6677 -0.0995
  109OSM   H10S11209   3.683   1.806   9.942  1.2454  0.4564 -0.6652
  109OSM   H10T11210   3.696   1.926   9.816 -0.4142  2.7188 -0.2384
  109OSM   C11S11211   3.516   1.798   9.785  0.2039  0.3208 -0.0746
  109OSM   H11S11212   3.582   1.742   9.715 -0.2247  0.7089 -0.8036
  109OSM   H11T11213   3.451   1.872   9.733 -0.2998 -1.6911 -2.4510
  109OSM   C12S11214   3.434   1.693   9.857 -1.0259  0.5080 -0.7767
  109OSM   H12S11215   3.367   1.648   9.782  0.0486 -1.5334 -0.5853
  109OSM   H12T11216   3.380   1.742   9.941  0.3300 -2.4944  2.0661
  109OSM   C13S11217   3.523   1.576   9.907  0.1443  1.2485  0.1846
  109OSM   H13S11218   3.591   1.613   9.986  1.6523 -1.9276  0.5606
  109OSM   H13T11219   3.581   1.538   9.820  0.0754  2.2189 -0.2996
  109OSM   C14S11220   3.437   1.456   9.963  0.2549  0.2555  0.1176
  109OSM   H14S11221   3.340   1.458   9.909  0.0058 -1.3848  0.4479
  109OSM   H14T11222   3.415   1.490  10.066 -1.5997  1.1014 -0.5215
  109OSM   C15S11223   3.502   1.317   9.940 -0.1982  0.1989  0.1665
  109OSM   H15S11224   3.446   1.247  10.006 -0.4447 -0.5454 -0.7978
  109OSM   H15T11225   3.611   1.321   9.958 -0.0901 -0.2878 -0.3439
  109OSM   C16S11226   3.476   1.266   9.798  0.3815 -0.1803 -0.2164
  109OSM   H16S11227   3.490   1.346   9.723 -1.0031  1.9357  1.6400
  109OSM   H16T11228   3.370   1.233   9.793  0.2089  0.0168  1.4592
  109OSM   C17S11229   3.575   1.157   9.752 -0.2678 -0.0682  0.0726
  109OSM   H17S11230   3.531   1.068   9.803 -0.7014  0.9996  1.6707
  109OSM   H17T11231   3.676   1.165   9.799  0.0125 -0.5507 -0.4300
  109OSM   C18S11232   3.596   1.133   9.602 -0.9260  0.0318  0.1901
  109OSM   H18S11233   3.496   1.123   9.555 -1.4400  0.8118  1.0828
  109OSM   H18T11234   3.648   1.037   9.581 -0.0559  0.7784 -1.1997
  109OSM   H18U11235   3.660   1.207   9.550 -0.6166 -0.7152 -0.5242
  109OSM    C1F11236   3.490   2.627  10.432  0.4933  0.7360  0.3361
  109OSM     OF11237   3.581   2.705  10.444  0.0808 -0.5749  0.0477
  109OSM    C2F11238   3.371   2.662  10.350 -0.4781  1.3738  0.8735
  109OSM    H2F11239   3.278   2.610  10.379  0.0308 -0.8431 -1.0774
  109OSM    H2G11240   3.395   2.634  10.245 -1.2050  3.0781  0.2206
  109OSM    C3F11241   3.341   2.812  10.336  0.3069 -0.0445 -0.6051
  109OSM    H3F11242   3.421   2.871  10.287  1.7119 -1.1145  0.2986
  109OSM    H3G11243   3.349   2.846  10.441  3.1096  0.1912 -0.7956
  109OSM    C4F11244   3.208   2.857  10.276 -0.0042  0.3876  0.0291
  109OSM    H4F11245   3.191   2.966  10.281 -0.9726  0.2309  0.6631
  109OSM    H4G11246   3.121   2.818  10.334 -0.2253 -1.0146 -1.1555
  109OSM    C5F11247   3.195   2.802  10.130 -0.4043 -0.5667  0.1380
  109OSM    H5F11248   3.086   2.794  10.109 -1.2516  2.6336  2.5524
  109OSM    H5G11249   3.242   2.704  10.108 -0.5345 -0.6219  0.1033
  109OSM    C6F11250   3.226   2.902  10.012 -0.2695 -0.5374 -0.0610
  109OSM    H6F11251   3.199   3.007  10.038 -1.0300 -0.1223 -2.2931
  109OSM    H6G11252   3.168   2.872   9.922  1.0684  2.1047 -1.9798
  109OSM    C7F11253   3.374   2.907   9.961 -0.4354 -0.5302 -0.3715
  109OSM    H7F11254   3.408   2.803   9.947 -0.3464 -0.6711  0.8183
  109OSM    H7G11255   3.438   2.953  10.039  0.7582  2.1432 -2.7378
  109OSM    C8F11256   3.394   2.979   9.830 -0.4237 -0.0547  0.0439
  109OSM    H8F11257   3.333   2.937   9.748 -0.2069  2.3020 -1.4207
  109OSM    H8G11258   3.500   2.970   9.799 -0.4167 -0.4032  0.1686
  109OSM    C9F11259   3.362   3.130   9.840  0.6631  0.8475  0.4484
  109OSM    H9F11260   3.428   3.188   9.907 -0.4445 -0.1859  2.5365
  109OSM   C10F11261   3.273   3.199   9.768 -0.5308  0.0297  0.7832
  109OSM   H10F11262   3.280   3.309   9.775  0.3479  0.0291  0.1881
  109OSM   C11F11263   3.176   3.143   9.662 -0.8586  0.4976  0.2728
  109OSM   H11F11264   3.070   3.170   9.683 -1.4344 -0.4945 -1.1723
  109OSM   H11G11265   3.182   3.032   9.666  1.9029  0.5920  2.4442
  109OSM   C12F11266   3.206   3.195   9.518  0.2542 -0.5807 -0.2623
  109OSM   H12F11267   3.314   3.180   9.495  0.5661 -1.8987  1.7540
  109OSM   H12G11268   3.188   3.303   9.532  0.0115 -0.5885 -0.5251
  109OSM   C13F11269   3.109   3.136   9.413  0.4307  0.0663 -0.5768
  109OSM   H13F11270   3.007   3.163   9.449  0.5497 -0.3102  0.0631
  109OSM   H13G11271   3.116   3.025   9.422  0.3593  0.0226 -1.0083
  109OSM   C14F11272   3.118   3.193   9.273  0.3222 -0.2136  0.3231
  109OSM   H14F11273   3.218   3.182   9.225  0.6109  4.3426 -0.6553
  109OSM   H14G11274   3.089   3.301   9.273 -0.3570 -0.3858 -0.3141
  109OSM   C15F11275   3.018   3.118   9.184  0.0541 -0.6802  0.3703
  109OSM   H15F11276   2.920   3.108   9.235 -0.3192 -2.6341 -0.6414
  109OSM   H15G11277   3.047   3.011   9.180  3.5653 -0.0491  3.3555
  109OSM   C16F11278   3.020   3.173   9.037  0.1969  0.1732  0.5720
  109OSM   H16F11279   3.123   3.204   9.008  0.0264  0.4871  0.3101
  109OSM   H16G11280   2.964   3.268   9.045 -1.1203 -0.4655 -0.5644
  109OSM   C17F11281   2.958   3.063   8.943 -0.6855 -0.6553 -0.8114
  109OSM   H17F11282   2.852   3.046   8.972 -0.8752  0.3507 -0.8904
  109OSM   H17G11283   3.005   2.964   8.962 -0.3192 -0.0902  1.6001
  109OSM   C18F11284   2.963   3.110   8.795 -0.5827  0.2060  0.4565
  109OSM   H18F11285   3.057   3.154   8.754 -0.8206 -0.9158 -1.3712
  109OSM   H18G11286   2.873   3.172   8.779 -0.0169  1.6485  2.3683
  109OSM   H18H11287   2.949   3.016   8.738 -0.5882  0.7750 -0.4915
  110OSM      N11288   5.013   5.957  11.120  0.4403 -0.1660 -0.1492
  110OSM    C1511289   4.898   5.922  11.039  0.2116  0.1123  0.2847
  110OSM   H15A11290   4.907   5.967  10.942  5.3982 -0.8381  0.0666
  110OSM   H15B11291   4.811   5.967  11.086 -0.3777 -0.1494 -0.5239
  110OSM   H15C11292   4.880   5.816  11.027 -0.3787  0.1894  0.4148
  110OSM    C1411293   5.024   6.101  11.120  0.0514 -0.3313  0.1693
  110OSM   H14A11294   5.112   6.132  11.175 -1.1489  3.1273  0.3766
  110OSM   H14B11295   4.939   6.148  11.169 -2.4469  1.1610 -4.9271
  110OSM   H14C11296   5.027   6.145  11.022 -0.3562 -1.7798 -0.5252
  110OSM    C1311297   4.989   5.896  11.256 -0.5328  0.0933 -0.7465
  110OSM   H13A11298   4.966   5.793  11.236 -2.7793  0.1546  1.1228
  110OSM   H13B11299   4.900   5.928  11.308 -0.2954  1.8137 -1.3301
  110OSM   H13C11300   5.077   5.911  11.317 -2.7093 -1.5791  3.2051
  110OSM    C1211301   5.137   5.886  11.057  0.5826  0.1402  0.1591
  110OSM   H12A11302   5.122   5.779  11.052  0.8849  0.1367 -1.9358
  110OSM   H12B11303   5.220   5.908  11.122  1.2156  0.5241 -0.7604
  110OSM    C1111304   5.173   5.938  10.913  0.3805  0.1291 -0.4965
  110OSM   H11A11305   5.197   6.046  10.916 -0.4924  0.3064  0.1729
  110OSM   H11B11306   5.087   5.930  10.844  0.9140  0.4363 -1.2174
  110OSM      P11307   5.248   5.719  10.819  0.0195  0.3346  0.8023
  110OSM    O1311308   5.375   5.651  10.840 -0.3882 -0.0438 -0.1495
  110OSM    O1411309   5.123   5.668  10.883  0.3749  0.9096  0.0548
  110OSM    O1111310   5.221   5.729  10.666 -0.3179  0.2191  0.1063
  110OSM    O1211311   5.280   5.868  10.872 -0.0564  0.4348  0.6924
  110OSM    C1S11312   5.289   5.819  10.573  0.2708  0.0309  0.0383
  110OSM    H1S11313   5.390   5.847  10.611 -0.6180  0.6342  2.0615
  110OSM    H1T11314   5.226   5.910  10.573  0.5455  0.2566  1.8375
  110OSM     NF11315   5.371   5.848  10.342  0.5096 -0.5527  0.0525
  110OSM    HNF11316   5.309   5.903  10.286  2.1315  1.3029 -0.0568
  110OSM    C2S11317   5.304   5.757  10.435 -0.9553  0.0793 -0.9689
  110OSM    H2S11318   5.365   5.666  10.456 -3.0629 -1.5007 -1.3861
  110OSM    C3S11319   5.168   5.716  10.376  0.0146 -0.2283  0.5276
  110OSM    H3S11320   5.115   5.810  10.353  1.8584  0.6665 -0.2768
  110OSM     O311321   5.081   5.637  10.458  0.5874 -0.5209 -0.1850
  110OSM    HO311322   5.121   5.643  10.545 -0.2562  1.2778  0.1262
  110OSM    C4S11323   5.172   5.640  10.244  0.5488 -0.3446  0.7283
  110OSM    H4S11324   5.208   5.536  10.251 -1.2801 -1.2360 -1.7675
  110OSM    C5S11325   5.114   5.680  10.132 -0.1324 -0.3841 -0.8172
  110OSM    H5S11326   5.055   5.773  10.133 -0.3437 -0.4737 -2.3718
  110OSM    C6S11327   5.110   5.596  10.005 -0.1466 -0.4203  0.2711
  110OSM    H6S11328   5.004   5.564   9.991  0.0556 -1.4370  0.9725
  110OSM    H6T11329   5.172   5.504  10.004 -3.2402 -2.6627  0.6444
  110OSM    C7S11330   5.143   5.677   9.878  0.3414 -0.1564 -0.1484
  110OSM    H7S11331   5.254   5.684   9.869  0.4213 -0.6383  0.4414
  110OSM    H7T11332   5.090   5.775   9.883 -0.5165 -0.5496 -1.1529
  110OSM    C8S11333   5.089   5.611   9.752  0.3124 -0.3972  0.2162
  110OSM    H8S11334   4.978   5.618   9.760  0.4183  0.1985  1.5265
  110OSM    H8T11335   5.121   5.505   9.755  0.4134 -0.4558 -1.8238
  110OSM    C9S11336   5.152   5.679   9.629 -0.4563  0.5577 -0.3105
  110OSM    H9S11337   5.113   5.620   9.543  1.0554 -0.6107 -0.2294
  110OSM    H9T11338   5.263   5.672   9.629 -0.2719  2.6815 -1.2568
  110OSM   C10S11339   5.113   5.827   9.603  0.2028 -0.3195  0.9263
  110OSM   H10S11340   5.162   5.883   9.686  2.0736 -0.0701 -0.2906
  110OSM   H10T11341   5.003   5.839   9.606  0.0862 -0.0616 -2.1335
  110OSM   C11S11342   5.155   5.885   9.465  0.2515 -0.2123  0.2045
  110OSM   H11S11343   5.105   5.826   9.385 -1.2311  0.2244  0.7564
  110OSM   H11T11344   5.265   5.880   9.454  0.1956 -0.2459 -0.3839
  110OSM   C12S11345   5.112   6.034   9.458 -0.6310 -0.8249 -0.6924
  110OSM   H12S11346   5.168   6.100   9.528 -1.4593 -1.0212  0.1742
  110OSM   H12T11347   5.002   6.041   9.473 -0.2922  0.3519  1.7588
  110OSM   C13S11348   5.140   6.091   9.319  0.2676  0.2182  0.6110
  110OSM   H13S11349   5.250   6.088   9.301  0.2315  0.3212  0.3724
  110OSM   H13T11350   5.107   6.197   9.306  0.6721  0.1176 -1.3968
  110OSM   C14S11351   5.065   6.013   9.208  0.0612  0.3779  0.2130
  110OSM   H14S11352   4.968   5.982   9.252 -0.2024  0.1664 -0.5024
  110OSM   H14T11353   5.114   5.914   9.194 -1.0734  0.0471 -1.7968
  110OSM   C15S11354   5.056   6.093   9.078 -0.4642 -0.3816 -0.1663
  110OSM   H15S11355   5.158   6.119   9.044 -0.6323 -0.0050 -0.3834
  110OSM   H15T11356   4.993   6.184   9.088  0.9271  0.3406  3.2858
  110OSM   C16S11357   4.981   6.001   8.982 -0.2799  0.0613  0.3641
  110OSM   H16S11358   4.877   5.987   9.015  0.1433  0.5464  1.9843
  110OSM   H16T11359   5.030   5.902   8.988 -0.7939 -0.1656  0.8440
  110OSM   C17S11360   4.980   6.036   8.834 -0.5680  0.7226  0.5461
  110OSM   H17S11361   5.082   6.039   8.790 -0.0346 -1.4023  1.4877
  110OSM   H17T11362   4.935   6.136   8.820  0.9998  1.2826 -0.7992
  110OSM   C18S11363   4.894   5.933   8.750 -0.0268  0.0500 -0.8821
  110OSM   H18S11364   4.787   5.958   8.762  0.4727  1.5416  0.8122
  110OSM   H18T11365   4.908   5.828   8.784 -1.5453  0.2997  0.5692
  110OSM   H18U11366   4.913   5.940   8.640 -2.2172 -0.2809 -1.3280
  110OSM    C1F11367   5.500   5.884  10.340  0.2347  0.3304 -0.5655
  110OSM     OF11368   5.581   5.825  10.412 -0.1786 -1.0168  0.1503
  110OSM    C2F11369   5.540   6.008  10.259  0.4145 -0.0731  0.1755
  110OSM    H2F11370   5.544   6.103  10.315  0.6555  1.6702 -2.5958
  110OSM    H2G11371   5.456   6.021  10.188  0.0120 -0.9600  0.4693
  110OSM    C3F11372   5.680   5.982  10.195  0.5273 -0.2131 -0.1121
  110OSM    H3F11373   5.760   5.950  10.264 -0.4266  0.1983  1.2325
  110OSM    H3G11374   5.715   6.081  10.158 -2.4644  0.6846 -0.8236
  110OSM    C4F11375   5.662   5.874  10.086 -0.2839  0.1520 -0.4131
  110OSM    H4F11376   5.623   5.782  10.133  0.2724  0.5799  0.9313
  110OSM    H4G11377   5.765   5.845  10.056  0.1518  0.6702  0.5284
  110OSM    C5F11378   5.567   5.898   9.973  0.0010 -0.7275 -0.1056
  110OSM    H5F11379   5.560   6.003   9.937 -3.0415 -0.6774  0.3657
  110OSM    H5G11380   5.464   5.873  10.006  0.8793 -1.6602  2.1569
  110OSM    C6F11381   5.612   5.815   9.856 -0.0429 -0.1497 -0.1218
  110OSM    H6F11382   5.620   5.710   9.891 -3.7590 -0.1043  1.2906
  110OSM    H6G11383   5.712   5.852   9.822 -0.2879 -0.6764 -1.4742
  110OSM    C7F11384   5.500   5.823   9.745  0.5443  0.7384  0.7505
  110OSM    H7F11385   5.407   5.864   9.790 -1.2052  0.2382 -2.2062
  110OSM    H7G11386   5.474   5.719   9.719  1.6782  0.3886  0.9264
  110OSM    C8F11387   5.537   5.905   9.616  0.3949 -0.0985 -0.1627
  110OSM    H8F11388   5.585   5.999   9.650  1.4467 -0.2849 -1.0713
  110OSM    H8G11389   5.444   5.941   9.567  0.8139  0.2359 -0.7239
  110OSM    C9F11390   5.633   5.839   9.521  0.4620 -0.4226  0.4955
  110OSM    H9F11391   5.712   5.780   9.569  0.4379 -1.4791 -0.6914
  110OSM   C10F11392   5.630   5.846   9.383 -0.9634  0.1910  0.3766
  110OSM   H10F11393   5.695   5.783   9.320 -0.9062 -0.7949  1.3770
  110OSM   C11F11394   5.535   5.936   9.306 -0.2585 -0.1201  0.3316
  110OSM   H11F11395   5.567   6.036   9.343  0.9296 -0.0903 -0.7215
  110OSM   H11G11396   5.432   5.924   9.347 -1.7011 -0.0356 -2.8945
  110OSM   C12F11397   5.524   5.924   9.150  0.1482 -0.5774  0.0248
  110OSM   H12F11398   5.626   5.944   9.111  0.4109  3.4707  2.2102
  110OSM   H12G11399   5.453   5.999   9.109  1.1965 -0.7888 -2.3001
  110OSM   C13F11400   5.499   5.777   9.107 -0.9233  0.1534 -0.4668
  110OSM   H13F11401   5.405   5.751   9.160 -0.1468  2.0994  2.0590
  110OSM   H13G11402   5.573   5.708   9.153 -0.6647  1.5112  1.2632
  110OSM   C14F11403   5.497   5.748   8.954 -0.4366 -0.7257  0.0511
  110OSM   H14F11404   5.594   5.783   8.913 -0.6994 -3.7850 -3.7014
  110OSM   H14G11405   5.417   5.804   8.902  0.9710  0.9430 -0.3964
  110OSM   C15F11406   5.482   5.603   8.920  0.5049  0.1845 -0.3043
  110OSM   H15F11407   5.400   5.554   8.978  1.4749 -2.9898 -1.4191
  110OSM   H15G11408   5.571   5.539   8.938  0.0508 -0.7177 -1.1141
  110OSM   C16F11409   5.449   5.595   8.772 -0.0305  0.5139 -0.5850
  110OSM   H16F11410   5.519   5.664   8.719  0.1594  1.6269  1.0543
  110OSM   H16G11411   5.346   5.636   8.766 -0.4857 -0.7744 -3.2053
  110OSM   C17F11412   5.459   5.454   8.719 -0.2257 -0.7512 -0.2302
  110OSM   H17F11413   5.375   5.396   8.763 -0.2329 -0.5997 -0.0458
  110OSM   H17G11414   5.555   5.403   8.742 -0.6645 -1.0761  0.9412
  110OSM   C18F11415   5.442   5.464   8.567 -0.0928 -0.3072 -0.2612
  110OSM   H18F11416   5.449   5.367   8.512  1.6395 -1.4414  1.8078
  110OSM   H18G11417   5.510   5.539   8.522  2.2486 -0.6500  2.4474
  110OSM   H18H11418   5.339   5.500   8.546 -1.4018 -4.2275 -1.6330
  111OSM      N11419   0.617   4.584  10.792 -0.7343 -0.4789 -0.3806
  111OSM    C1511420   0.761   4.600  10.820 -0.3721 -0.5920 -0.8637
  111OSM   H15A11421   0.796   4.555  10.911 -0.6587 -1.8778 -1.3749
  111OSM   H15B11422   0.779   4.706  10.833 -0.3699 -0.0969 -4.0085
  111OSM   H15C11423   0.824   4.573  10.737  1.0942 -1.4526  0.4877
  111OSM    C1411424   0.588   4.440  10.778  0.7313  0.0340  0.2166
  111OSM   H14A11425   0.484   4.427  10.752  0.0074  2.7575  1.4448
  111OSM   H14B11426   0.607   4.382  10.867 -1.0159 -0.3462  0.3792
  111OSM   H14C11427   0.653   4.400  10.702  1.5623  0.8026  0.5093
  111OSM    C1311428   0.540   4.644  10.902  0.2869  0.0153  0.0891
  111OSM   H13A11429   0.565   4.581  10.986 -0.5656 -2.3896 -1.3486
  111OSM   H13B11430   0.433   4.649  10.897  0.3200  0.8550  0.0899
  111OSM   H13C11431   0.580   4.743  10.920  0.6156 -0.2806  1.0218
  111OSM    C1211432   0.583   4.647  10.660 -0.9677  0.3330 -0.0480
  111OSM   H12A11433   0.492   4.603  10.622 -0.8960 -0.0534  0.2269
  111OSM   H12B11434   0.659   4.615  10.591 -1.2527  0.1267 -0.2691
  111OSM    C1111435   0.592   4.800  10.638 -0.2907 -0.0225  0.5157
  111OSM   H11A11436   0.528   4.860  10.706  0.7393  0.7326  0.8568
  111OSM   H11B11437   0.548   4.803  10.536  1.2415 -0.1472 -0.1821
  111OSM      P11438   0.795   4.912  10.519 -0.0518 -0.1995 -0.3855
  111OSM    O1311439   0.939   4.944  10.558 -0.5287 -0.2757 -0.0516
  111OSM    O1411440   0.777   4.826  10.406 -0.1274  1.0005  0.4341
  111OSM    O1111441   0.709   5.048  10.499 -0.0092 -1.1609  0.0019
  111OSM    O1211442   0.730   4.839  10.651 -0.1963  0.1621 -0.3492
  111OSM    C1S11443   0.696   5.103  10.371  0.1372 -0.6735  0.2123
  111OSM    H1S11444   0.763   5.054  10.296  2.3941  1.0307  0.9824
  111OSM    H1T11445   0.746   5.202  10.365 -0.9858 -0.1024  0.0479
  111OSM     NF11446   0.565   5.175  10.189 -0.6711  0.1028  0.3004
  111OSM    HNF11447   0.567   5.275  10.189  0.9287  0.1270  1.7664
  111OSM    C2S11448   0.554   5.113  10.321 -0.4893  0.7430  0.2021
  111OSM    H2S11449   0.510   5.011  10.316 -0.3458  0.7111 -0.5791
  111OSM    C3S11450   0.462   5.193  10.413 -0.4652 -0.1346 -0.4240
  111OSM    H3S11451   0.517   5.280  10.453  0.3057 -1.8705  2.5530
  111OSM     O311452   0.448   5.131  10.537 -0.0287  0.2315 -0.7708
  111OSM    HO311453   0.529   5.079  10.535  0.5955  0.9994  1.4858
  111OSM    C4S11454   0.331   5.224  10.340  0.0473  0.8218 -0.0546
  111OSM    H4S11455   0.266   5.136  10.327  1.4244 -0.7305  2.5628
  111OSM    C5S11456   0.307   5.347  10.296  0.0396  0.3165  0.5346
  111OSM    H5S11457   0.373   5.431  10.323  1.3414 -0.6417  0.3675
  111OSM    C6S11458   0.175   5.390  10.231 -0.0299  1.0530  0.3866
  111OSM    H6S11459   0.153   5.497  10.253  0.1855  1.4844 -1.3496
  111OSM    H6T11460   0.088   5.327  10.260 -1.2920  2.5430 -0.0493
  111OSM    C7S11461   0.195   5.371  10.080 -0.2435 -0.8131  0.8746
  111OSM    H7S11462   0.101   5.388  10.024 -0.5088 -2.9328  0.5866
  111OSM    H7T11463   0.238   5.269  10.063  0.6714 -0.5177  1.3402
  111OSM    C8S11464   0.302   5.469  10.024 -0.3095  0.6903 -0.2326
  111OSM    H8S11465   0.401   5.452  10.071  0.5170  2.2094 -1.3184
  111OSM    H8T11466   0.281   5.571  10.063 -0.4311  0.6070 -0.0821
  111OSM    C9S11467   0.309   5.474   9.877 -0.0288 -0.0555 -0.0281
  111OSM    H9S11468   0.204   5.477   9.841 -0.6570  3.4450  1.7082
  111OSM    H9T11469   0.369   5.386   9.845 -1.5162 -1.3690  0.6894
  111OSM   C10S11470   0.376   5.599   9.820  0.0709 -0.0561 -1.0712
  111OSM   H10S11471   0.483   5.581   9.843 -0.2954 -0.8155  0.1161
  111OSM   H10T11472   0.339   5.687   9.876 -1.2430  1.5315 -4.1866
  111OSM   C11S11473   0.360   5.612   9.669  0.0611  0.4092 -0.4982
  111OSM   H11S11474   0.254   5.618   9.635  0.5659  2.0069 -1.8900
  111OSM   H11T11475   0.389   5.521   9.613 -1.6341 -1.0379  0.8250
  111OSM   C12S11476   0.432   5.736   9.621 -0.0141 -0.6916 -0.3457
  111OSM   H12S11477   0.533   5.732   9.667 -0.1785 -2.0350 -0.0487
  111OSM   H12T11478   0.370   5.821   9.656 -0.1594  0.0368 -2.2396
  111OSM   C13S11479   0.434   5.760   9.472  0.7981  0.3175 -0.0364
  111OSM   H13S11480   0.460   5.664   9.421  1.6388  0.2017  0.5777
  111OSM   H13T11481   0.513   5.834   9.448 -0.1758  1.2525 -0.4308
  111OSM   C14S11482   0.305   5.816   9.416  0.1353 -0.6538  0.6270
  111OSM   H14S11483   0.295   5.922   9.448  2.0739  0.0421 -0.8307
  111OSM   H14T11484   0.215   5.771   9.463 -1.4105  0.6123 -0.9898
  111OSM   C15S11485   0.268   5.808   9.269  0.5028 -0.5501 -0.2249
  111OSM   H15S11486   0.252   5.701   9.241  0.3017 -1.3602  2.6437
  111OSM   H15T11487   0.346   5.856   9.206 -0.1306  1.6148  0.5503
  111OSM   C16S11488   0.147   5.885   9.235 -0.0144  0.7811  0.3112
  111OSM   H16S11489   0.163   5.983   9.285 -0.4127  0.4441  1.1242
  111OSM   H16T11490   0.053   5.840   9.274 -0.8296  1.2485 -1.0536
  111OSM   C17S11491   0.115   5.911   9.088  0.6632 -0.0475 -0.3670
  111OSM   H17S11492   0.085   5.815   9.040 -2.5464  0.8674 -0.4124
  111OSM   H17T11493   0.198   5.961   9.033 -1.1126  2.2809 -1.1031
  111OSM   C18S11494  -0.002   6.012   9.079 -0.1483 -0.5388  0.5859
  111OSM   H18S11495  -0.025   6.036   8.973 -1.1099 -1.3656  0.5928
  111OSM   H18T11496   0.037   6.103   9.128 -3.3082  0.3594  1.7059
  111OSM   H18U11497  -0.094   5.977   9.131 -1.3335  2.9437  1.1110
  111OSM    C1F11498   0.603   5.115  10.077 -0.2978 -0.1308  0.3217
  111OSM     OF11499   0.623   4.994  10.072  0.0502 -0.1441 -0.4357
  111OSM    C2F11500   0.632   5.195   9.960  0.3340 -0.4477 -0.0035
  111OSM    H2F11501   0.609   5.303   9.975  0.6238 -0.3658 -0.1535
  111OSM    H2G11502   0.555   5.153   9.893  0.3104 -1.7677  0.8201
  111OSM    C3F11503   0.771   5.195   9.893 -0.0352  0.0155  0.3531
  111OSM    H3F11504   0.793   5.090   9.865  1.1273  0.4879 -0.5936
  111OSM    H3G11505   0.840   5.242   9.966 -1.2844  1.2584  0.7685
  111OSM    C4F11506   0.776   5.288   9.775 -0.5770 -0.1608  0.0671
  111OSM    H4F11507   0.884   5.297   9.747 -0.8516  0.8614 -0.7544
  111OSM    H4G11508   0.734   5.379   9.822  0.2261 -0.1923  0.8717
  111OSM    C5F11509   0.681   5.253   9.656  0.1438 -0.4191  0.0142
  111OSM    H5F11510   0.574   5.253   9.685  0.1752 -2.2862  0.3090
  111OSM    H5G11511   0.703   5.150   9.620 -2.7637 -1.0502 -0.1922
  111OSM    C6F11512   0.692   5.345   9.530  0.4419 -0.8387  0.2012
  111OSM    H6F11513   0.803   5.348   9.522  0.3027  0.1477 -2.3160
  111OSM    H6G11514   0.658   5.449   9.551  0.9905 -0.0126 -2.6462
  111OSM    C7F11515   0.626   5.282   9.404  0.3844  0.3786 -0.1254
  111OSM    H7F11516   0.640   5.172   9.403  1.0504  0.4520 -1.2438
  111OSM    H7G11517   0.688   5.324   9.322  1.3459 -0.5045  0.1235
  111OSM    C8F11518   0.483   5.323   9.384 -0.4460 -0.2477  0.0490
  111OSM    H8F11519   0.473   5.433   9.367 -0.1701  0.1212  1.9769
  111OSM    H8G11520   0.425   5.316   9.478 -0.4124  0.8688  0.1736
  111OSM    C9F11521   0.420   5.257   9.261  0.1365 -0.2997  0.0704
  111OSM    H9F11522   0.372   5.160   9.280 -1.7185  0.2631 -1.4985
  111OSM   C10F11523   0.421   5.303   9.136 -0.7620 -0.1571 -0.2463
  111OSM   H10F11524   0.373   5.241   9.060 -0.1736 -0.2054 -0.5865
  111OSM   C11F11525   0.487   5.428   9.080 -0.3203  0.6236  0.5071
  111OSM   H11F11526   0.563   5.410   9.000 -0.3163  0.5651  0.5244
  111OSM   H11G11527   0.542   5.482   9.160  0.3257 -2.0459  1.9876
  111OSM   C12F11528   0.382   5.522   9.022 -0.4585  0.0459 -0.3870
  111OSM   H12F11529   0.404   5.630   9.016 -0.9452  0.2543  1.1347
  111OSM   H12G11530   0.296   5.520   9.092 -0.7618 -2.1910 -0.7353
  111OSM   C13F11531   0.335   5.476   8.885 -0.0141 -0.0251 -0.1935
  111OSM   H13F11532   0.281   5.379   8.893 -1.0370  0.4466 -1.1128
  111OSM   H13G11533   0.420   5.472   8.814  0.4571 -0.1218  0.3715
  111OSM   C14F11534   0.232   5.579   8.844  0.1893 -0.0080 -0.2721
  111OSM   H14F11535   0.285   5.676   8.828 -1.0160  0.6200 -0.5822
  111OSM   H14G11536   0.151   5.589   8.919  1.9188  0.1658  1.6462
  111OSM   C15F11537   0.174   5.532   8.707 -1.1351 -0.3694 -0.2525
  111OSM   H15F11538   0.121   5.436   8.723 -0.0215 -1.1426 -1.1186
  111OSM   H15G11539   0.261   5.522   8.640 -0.6426 -1.0901  0.4791
  111OSM   C16F11540   0.070   5.635   8.663 -0.6778 -0.0534  0.1016
  111OSM   H16F11541   0.119   5.734   8.665 -0.5821 -0.1055  0.3529
  111OSM   H16G11542  -0.013   5.644   8.736 -0.9335  1.2530 -0.3400
  111OSM   C17F11543   0.012   5.599   8.523 -0.4324  0.2629 -0.4871
  111OSM   H17F11544   0.094   5.588   8.449 -1.2598  3.8639 -2.1418
  111OSM   H17G11545  -0.037   5.689   8.481 -0.5674 -0.8687 -2.9154
  111OSM   C18F11546  -0.088   5.478   8.509 -0.0142  0.4404 -0.3064
  111OSM   H18F11547  -0.036   5.384   8.538  1.0018  0.8116 -0.8748
  111OSM   H18G11548  -0.128   5.461   8.407  1.5764  1.0628 -1.0645
  111OSM   H18H11549  -0.177   5.488   8.576 -1.3976 -1.7507 -1.6553
  112OSM      N11550   4.150   0.197  11.101 -0.6177 -0.6412  0.1914
  112OSM    C1511551   4.091   0.060  11.098  0.6426 -0.2652  0.4719
  112OSM   H15A11552   4.052   0.045  10.998  1.0295 -2.8498  0.6290
  112OSM   H15B11553   4.011   0.039  11.167 -1.3458  1.7043 -1.0920
  112OSM   H15C11554   4.163  -0.019  11.112  2.2795  1.2020  0.6719
  112OSM    C1411555   4.038   0.299  11.119  0.2433  0.5707 -0.7917
  112OSM   H14A11556   3.967   0.302  11.038 -0.0025 -1.3127 -0.6788
  112OSM   H14B11557   4.071   0.399  11.142  0.8409 -0.0724  1.3816
  112OSM   H14C11558   3.987   0.252  11.201  1.1248 -2.3889 -1.8161
  112OSM    C1311559   4.248   0.209  11.216  0.5011 -0.1148  0.1431
  112OSM   H13A11560   4.191   0.202  11.308 -1.4467 -2.2628 -1.0930
  112OSM   H13B11561   4.300   0.302  11.199  2.1692 -1.4641 -2.8178
  112OSM   H13C11562   4.319   0.128  11.210  1.1895  0.4920 -0.0383
  112OSM    C1211563   4.229   0.226  10.972 -0.1798 -0.4001 -0.0653
  112OSM   H12A11564   4.261   0.329  10.978 -0.9822 -0.1423 -0.1058
  112OSM   H12B11565   4.166   0.227  10.885  0.6509  0.6174 -0.6761
  112OSM    C1111566   4.341   0.128  10.929  0.2250  0.3631 -0.2736
  112OSM   H11A11567   4.418   0.119  11.009 -0.2178  1.2484  0.2673
  112OSM   H11B11568   4.393   0.178  10.845 -0.8073 -0.2301 -1.2907
  112OSM      P11569   4.209  -0.023  10.752  0.1264 -0.1183  0.5293
  112OSM    O1311570   4.301  -0.032  10.637 -0.2789  0.1395  0.3404
  112OSM    O1411571   4.110  -0.125  10.773  0.1034  0.9766 -0.0645
  112OSM    O1111572   4.131   0.118  10.738 -0.3614 -0.0744 -0.0248
  112OSM    O1211573   4.289  -0.002  10.889 -0.5407 -0.2667  0.0843
  112OSM    C1S11574   4.112   0.178  10.615 -0.3009 -0.5488  0.2228
  112OSM    H1S11575   4.118   0.103  10.533  1.0570  0.2826 -0.4842
  112OSM    H1T11576   4.192   0.251  10.589  0.1272 -0.9306  0.4364
  112OSM     NF11577   3.982   0.306  10.449  0.1249 -0.3190  0.0142
  112OSM    HNF11578   4.024   0.396  10.448 -2.6150  1.2341  3.2039
  112OSM    C2S11579   3.974   0.251  10.588 -0.0073 -0.4556 -0.2580
  112OSM    H2S11580   3.897   0.173  10.604  0.6329 -0.9091  0.7001
  112OSM    C3S11581   3.942   0.363  10.686  0.1980  0.2471  0.0349
  112OSM    H3S11582   4.029   0.431  10.684  0.6886 -0.3007  1.4925
  112OSM     O311583   3.926   0.314  10.821 -0.6151 -0.4530  0.0540
  112OSM    HO311584   3.949   0.221  10.813  4.3327  0.5825 -1.4279
  112OSM    C4S11585   3.813   0.423  10.640  0.2199 -0.3498  0.5709
  112OSM    H4S11586   3.730   0.352  10.630  0.2930 -0.3297 -0.2955
  112OSM    C5S11587   3.807   0.552  10.610  0.0523  0.2753 -0.2546
  112OSM    H5S11588   3.897   0.613  10.629  1.4701 -1.0233 -2.2853
  112OSM    C6S11589   3.685   0.624  10.559  0.4240  0.4099 -0.7032
  112OSM    H6S11590   3.677   0.713  10.626  0.0928 -1.0511  1.2826
  112OSM    H6T11591   3.588   0.573  10.575  0.2588  1.1067  0.6855
  112OSM    C7S11592   3.702   0.668  10.415 -0.0922 -0.0878 -0.1609
  112OSM    H7S11593   3.729   0.579  10.353 -1.4516  0.0751 -1.0229
  112OSM    H7T11594   3.789   0.733  10.393  1.0185 -1.2359  0.6875
  112OSM    C8S11595   3.576   0.724  10.341 -0.6775 -0.0876  0.3026
  112OSM    H8S11596   3.547   0.821  10.387  0.5143  1.3349 -1.7783
  112OSM    H8T11597   3.500   0.646  10.361  0.1038 -1.1873 -0.8066
  112OSM    C9S11598   3.604   0.743  10.192  0.3897 -0.2060 -0.3676
  112OSM    H9S11599   3.639   0.648  10.147 -1.2844 -0.4368 -1.2627
  112OSM    H9T11600   3.690   0.813  10.191  1.8041 -1.7101  2.3900
  112OSM   C10S11601   3.475   0.790  10.133 -0.6684  0.6404 -0.3375
  112OSM   H10S11602   3.441   0.879  10.189  0.9972 -0.4989  2.7101
  112OSM   H10T11603   3.401   0.707  10.142 -2.1975  1.7564 -1.9195
  112OSM   C11S11604   3.493   0.821   9.981  0.7549 -0.2809 -0.1004
  112OSM   H11S11605   3.583   0.885   9.980  0.5071  0.1247  1.2762
  112OSM   H11T11606   3.415   0.895   9.951  0.4624 -0.1060  1.0467
  112OSM   C12S11607   3.477   0.705   9.880  0.6066  0.0869  0.5119
  112OSM   H12S11608   3.374   0.664   9.891  0.5583 -0.2604 -0.9979
  112OSM   H12T11609   3.556   0.633   9.909  0.5385  0.0617  0.6375
  112OSM   C13S11610   3.487   0.737   9.727 -0.0208 -1.0148 -0.1596
  112OSM   H13S11611   3.500   0.642   9.670  0.4986  0.5601 -2.8586
  112OSM   H13T11612   3.584   0.778   9.691 -1.3578  1.1060 -1.6058
  112OSM   C14S11613   3.370   0.810   9.672  0.6673 -0.3669  0.6093
  112OSM   H14S11614   3.381   0.920   9.668 -0.1434 -0.3111 -0.4979
  112OSM   H14T11615   3.284   0.777   9.734 -0.0781 -0.7044 -0.5689
  112OSM   C15S11616   3.342   0.782   9.520  0.3297  0.7639 -0.3740
  112OSM   H15S11617   3.243   0.829   9.502 -0.2728 -0.9336 -1.6753
  112OSM   H15T11618   3.334   0.674   9.496  2.1802  0.4807  0.1116
  112OSM   C16S11619   3.443   0.845   9.428 -0.5149 -0.5076 -0.3810
  112OSM   H16S11620   3.543   0.806   9.457  0.8055  2.7711 -0.1424
  112OSM   H16T11621   3.448   0.955   9.441 -2.2139 -0.7371  3.6544
  112OSM   C17S11622   3.425   0.813   9.278 -0.2772  0.6451 -0.4661
  112OSM   H17S11623   3.326   0.855   9.249 -0.1311  0.7857 -0.7602
  112OSM   H17T11624   3.418   0.703   9.266 -1.4696  0.7348 -0.7337
  112OSM   C18S11625   3.524   0.883   9.184 -0.1628 -0.0037 -0.1974
  112OSM   H18S11626   3.495   0.870   9.078  1.8819  0.0959 -0.8184
  112OSM   H18T11627   3.630   0.854   9.199 -0.2336 -0.0082  0.3201
  112OSM   H18U11628   3.520   0.994   9.190 -0.9365  0.0115 -0.7940
  112OSM    C1F11629   3.971   0.226  10.346 -0.4914  0.6570 -0.7631
  112OSM     OF11630   3.917   0.112  10.361 -0.5315  0.1912  0.3592
  112OSM    C2F11631   4.011   0.279  10.217 -0.7071  0.1514 -0.0297
  112OSM    H2F11632   4.041   0.205  10.139  1.6969  0.3693  0.6366
  112OSM    H2G11633   4.103   0.336  10.238 -0.9692  0.6518 -0.2154
  112OSM    C3F11634   3.906   0.365  10.146 -0.2646 -0.3472 -0.0395
  112OSM    H3F11635   3.887   0.461  10.198 -0.9305 -0.0354 -0.8244
  112OSM    H3G11636   3.815   0.302  10.158 -0.4718  0.1062  0.8358
  112OSM    C4F11637   3.924   0.404  10.001 -0.2833  0.7509  0.1594
  112OSM    H4F11638   3.933   0.302   9.957 -1.2453  1.0069 -0.6661
  112OSM    H4G11639   4.022   0.456   9.993 -0.7160  1.7494  1.1308
  112OSM    C5F11640   3.808   0.479   9.934  0.6480  0.1564 -0.0408
  112OSM    H5F11641   3.786   0.573   9.990 -0.3212  0.2822 -0.6121
  112OSM    H5G11642   3.719   0.413   9.939  0.0295  0.8970 -0.9598
  112OSM    C6F11643   3.836   0.509   9.788  0.3828 -0.5142 -1.1022
  112OSM    H6F11644   3.923   0.578   9.789 -0.2005  0.2359 -0.8103
  112OSM    H6G11645   3.754   0.572   9.747  0.3994 -0.6868 -1.3959
  112OSM    C7F11646   3.854   0.385   9.698 -0.0125  0.3316  0.2319
  112OSM    H7F11647   3.776   0.309   9.718 -0.2329  0.7118  0.8436
  112OSM    H7G11648   3.947   0.331   9.727  0.7856  1.6562  0.2419
  112OSM    C8F11649   3.867   0.415   9.547 -0.0037 -0.3082  0.9487
  112OSM    H8F11650   3.897   0.324   9.489 -1.7718  0.9237 -2.1488
  112OSM    H8G11651   3.948   0.491   9.535 -1.8915  1.3517 -3.2363
  112OSM    C9F11652   3.736   0.467   9.481  0.3018  1.2298  0.0585
  112OSM    H9F11653   3.641   0.413   9.488  2.0158 -2.1381 -0.5570
  112OSM   C10F11654   3.727   0.587   9.414 -0.6820  0.4972  0.1492
  112OSM   H10F11655   3.634   0.624   9.368 -1.4919 -1.0361  0.4894
  112OSM   C11F11656   3.849   0.672   9.394 -0.2730  0.0097 -0.2854
  112OSM   H11F11657   3.898   0.688   9.492  1.4474 -1.2455 -0.9009
  112OSM   H11G11658   3.810   0.768   9.354 -1.1808  0.2666  1.1309
  112OSM   C12F11659   3.965   0.622   9.302 -0.0386 -0.0149 -0.4799
  112OSM   H12F11660   4.003   0.526   9.344  1.0765  1.3160  1.7004
  112OSM   H12G11661   4.047   0.695   9.321  0.6705 -1.3513  1.9911
  112OSM   C13F11662   3.924   0.622   9.150  0.2650 -0.8910 -0.6535
  112OSM   H13F11663   4.010   0.613   9.080  0.0515 -3.8952 -0.6285
  112OSM   H13G11664   3.867   0.715   9.131  1.0771  0.2894  2.1274
  112OSM   C14F11665   3.839   0.498   9.120  0.3974 -0.4397 -0.5927
  112OSM   H14F11666   3.738   0.502   9.166  1.3162  0.1727  1.5178
  112OSM   H14G11667   3.889   0.407   9.158 -2.5203 -1.4567  1.0672
  112OSM   C15F11668   3.816   0.468   8.972 -0.1611  0.3628  0.7445
  112OSM   H15F11669   3.758   0.373   8.962  0.0791  0.1500  1.3462
  112OSM   H15G11670   3.909   0.466   8.912 -1.5614  0.5518 -1.5643
  112OSM   C16F11671   3.740   0.575   8.895  0.9332 -0.8200  0.0900
  112OSM   H16F11672   3.799   0.670   8.900 -0.3378  0.2012 -2.6318
  112OSM   H16G11673   3.646   0.601   8.949 -0.1518  0.6351 -2.3304
  112OSM   C17F11674   3.710   0.536   8.753  0.5346  0.2417  0.6454
  112OSM   H17F11675   3.637   0.452   8.760 -0.5979  1.1999  0.6757
  112OSM   H17G11676   3.802   0.496   8.706  0.0778 -2.0251  1.5244
  112OSM   C18F11677   3.640   0.637   8.669 -0.8617 -0.4154 -0.0565
  112OSM   H18F11678   3.650   0.619   8.560 -0.5209  1.8551 -0.4681
  112OSM   H18G11679   3.668   0.742   8.695 -3.7411  0.3670  0.2365
  112OSM   H18H11680   3.531   0.623   8.687 -0.9704 -1.3339 -1.2931
  113OSM      N11681   4.783   0.374  10.831 -0.2559 -0.0565  0.1919
  113OSM    C1511682   4.912   0.298  10.818  0.3135 -0.0784  0.1280
  113OSM   H15A11683   4.934   0.264  10.718  0.3413  1.2112 -0.3326
  113OSM   H15B11684   4.898   0.211  10.880 -3.6666  0.0122 -0.3507
  113OSM   H15C11685   5.000   0.350  10.853 -0.1527 -0.6274  2.2182
  113OSM    C1411686   4.675   0.288  10.780  0.3523  1.0523 -0.3108
  113OSM   H14A11687   4.676   0.200  10.842 -0.2872 -0.1180 -1.8945
  113OSM   H14B11688   4.690   0.248  10.681  2.2495  0.7748  0.0496
  113OSM   H14C11689   4.577   0.332  10.791 -0.5615 -1.1600  1.0777
  113OSM    C1311690   4.759   0.399  10.976 -0.3978 -0.2639  0.2639
  113OSM   H13A11691   4.671   0.458  10.993  1.1201  2.3586 -0.5334
  113OSM   H13B11692   4.839   0.458  11.017  0.0474 -1.2736  0.9006
  113OSM   H13C11693   4.752   0.303  11.026 -0.4748  0.0005  0.7684
  113OSM    C1211694   4.800   0.507  10.750  0.4419  0.7273 -1.0389
  113OSM   H12A11695   4.819   0.477  10.649 -2.1390 -1.6947 -0.9472
  113OSM   H12B11696   4.878   0.558  10.804 -1.0386  1.2073  0.7806
  113OSM    C1111697   4.670   0.597  10.745 -0.6941  0.1505  0.2606
  113OSM   H11A11698   4.703   0.695  10.706  0.1733 -0.9387 -1.9616
  113OSM   H11B11699   4.633   0.600  10.850  0.7948  0.0288  0.8211
  113OSM      P11700   4.420   0.524  10.682 -0.3457 -0.1470 -0.0377
  113OSM    O1311701   4.369   0.415  10.599  0.2149  0.7901 -0.1936
  113OSM    O1411702   4.403   0.508  10.829  0.2691  0.0223 -0.7167
  113OSM    O1111703   4.350   0.654  10.634 -0.6578 -0.6196 -0.0021
  113OSM    O1211704   4.573   0.535  10.656  0.0850 -0.0598  0.0218
  113OSM    C1S11705   4.402   0.749  10.544 -0.0846  0.0207  0.5764
  113OSM    H1S11706   4.511   0.763  10.560 -0.3338  1.0979  1.4267
  113OSM    H1T11707   4.360   0.844  10.585 -0.7531 -0.4207  0.9344
  113OSM     NF11708   4.389   0.847  10.335  0.2504 -0.3165  0.0747
  113OSM    HNF11709   4.306   0.889  10.298  1.0123  1.1582 -0.0302
  113OSM    C2S11710   4.355   0.726  10.402  0.1029 -0.2346  0.3370
  113OSM    H2S11711   4.414   0.644  10.356 -0.3499 -0.5331  0.2846
  113OSM    C3S11712   4.201   0.686  10.393  0.6647  0.4124  0.5678
  113OSM    H3S11713   4.137   0.754  10.452  0.2066  2.6977 -2.3049
  113OSM     O311714   4.180   0.552  10.429  0.2717 -0.1142  0.0428
  113OSM    HO311715   4.239   0.522  10.497 -0.0594  1.6559  1.1618
  113OSM    C4S11716   4.162   0.692  10.247 -0.5729 -0.1933  0.2509
  113OSM    H4S11717   4.195   0.608  10.184 -3.6848  0.2523 -2.2238
  113OSM    C5S11718   4.089   0.788  10.183 -0.1025 -0.2742 -0.0308
  113OSM    H5S11719   4.060   0.877  10.241 -1.4752 -1.6023  1.4348
  113OSM    C6S11720   4.049   0.770  10.037  0.4540 -0.8712 -0.1179
  113OSM    H6S11721   3.952   0.716  10.028  0.6434 -1.2005 -0.2101
  113OSM    H6T11722   4.118   0.707   9.977 -0.3665 -1.4238 -0.5002
  113OSM    C7S11723   4.027   0.903   9.967  0.5805  0.4516 -0.6326
  113OSM    H7S11724   4.129   0.945   9.954  0.8008  0.1755  0.1617
  113OSM    H7T11725   3.966   0.971  10.030  0.2166 -1.9893  1.8463
  113OSM    C8S11726   3.968   0.885   9.826  0.1084 -0.4700 -0.3910
  113OSM    H8S11727   3.860   0.858   9.833 -0.1374  0.9326  2.7151
  113OSM    H8T11728   4.022   0.809   9.766  1.5123  0.4060 -0.2966
  113OSM    C9S11729   3.978   1.011   9.738  0.6646  0.2949  1.0043
  113OSM    H9S11730   4.085   1.040   9.736  1.3275 -2.0024 -0.2521
  113OSM    H9T11731   3.931   1.105   9.775 -1.9845 -0.6835  0.3225
  113OSM   C10S11732   3.947   0.974   9.587 -0.1873  0.3375 -0.0521
  113OSM   H10S11733   3.840   0.947   9.593 -0.1284  0.3794  2.9746
  113OSM   H10T11734   4.004   0.885   9.551  2.2014  1.4418  0.7264
  113OSM   C11S11735   3.957   1.101   9.497  0.2001 -0.3716  0.5345
  113OSM   H11S11736   4.055   1.150   9.517 -0.4902  1.1449  0.3772
  113OSM   H11T11737   3.877   1.171   9.530 -1.4222 -2.1097  0.4339
  113OSM   C12S11738   3.927   1.079   9.352  0.3553  0.4528 -0.0105
  113OSM   H12S11739   3.903   1.180   9.311  0.0043  1.7249  3.0104
  113OSM   H12T11740   3.829   1.031   9.337 -0.2028  1.4773  0.2415
  113OSM   C13S11741   4.030   1.002   9.271  0.7761 -0.3688 -0.1823
  113OSM   H13S11742   4.052   0.896   9.295 -2.0919 -0.7410  1.2160
  113OSM   H13T11743   4.125   1.059   9.280  2.1810 -2.7974  1.8697
  113OSM   C14S11744   3.990   1.015   9.121  0.3988 -0.1067 -0.2696
  113OSM   H14S11745   3.977   1.123   9.103 -1.1912 -0.1764  0.3107
  113OSM   H14T11746   3.893   0.963   9.110  1.0955 -1.2986 -1.0809
  113OSM   C15S11747   4.105   0.964   9.033 -0.3409 -0.8427 -0.1399
  113OSM   H15S11748   4.128   0.861   9.066  0.0762 -0.6006  0.3411
  113OSM   H15T11749   4.190   1.036   9.028  0.3208 -1.5151  0.9439
  113OSM   C16S11750   4.067   0.954   8.881  0.5736 -0.2843 -0.0319
  113OSM   H16S11751   4.046   1.054   8.840  2.8767 -0.2793 -1.3904
  113OSM   H16T11752   3.977   0.890   8.867 -0.4908  1.4250 -1.4049
  113OSM   C17S11753   4.182   0.907   8.788  0.4376 -0.1628  0.0469
  113OSM   H17S11754   4.220   0.809   8.824  1.5839  0.9386  2.0088
  113OSM   H17T11755   4.268   0.976   8.790  1.0434 -0.9233  1.0572
  113OSM   C18S11756   4.135   0.876   8.645  0.0774 -0.6052 -0.2214
  113OSM   H18S11757   4.214   0.823   8.589 -0.6660 -0.6586 -1.2459
  113OSM   H18T11758   4.116   0.975   8.598 -1.1411 -0.2607  0.9224
  113OSM   H18U11759   4.038   0.823   8.639 -1.2628  1.6244  0.3121
  113OSM    C1F11760   4.511   0.894  10.312 -0.4682 -0.1101  0.4188
  113OSM     OF11761   4.607   0.826  10.347  0.0139  0.1854  0.2223
  113OSM    C2F11762   4.520   1.028  10.257 -0.3401 -0.3689 -0.6345
  113OSM    H2F11763   4.548   1.097  10.339  0.1281 -1.4070  0.0974
  113OSM    H2G11764   4.420   1.060  10.220 -0.6827 -0.1179  0.4794
  113OSM    C3F11765   4.622   1.057  10.143 -0.7713  0.6747  0.3278
  113OSM    H3F11766   4.709   0.993  10.168 -0.3399  1.8372  1.9451
  113OSM    H3G11767   4.662   1.161  10.140  2.9733 -0.6464  0.0158
  113OSM    C4F11768   4.587   1.011  10.001 -0.7435 -0.3050  0.3655
  113OSM    H4F11769   4.563   0.903   9.998  0.1033 -0.4967  0.0087
  113OSM    H4G11770   4.670   1.033   9.930 -0.4740  2.3562  1.4119
  113OSM    C5F11771   4.464   1.084   9.945 -0.7912  0.7644 -0.1476
  113OSM    H5F11772   4.480   1.194   9.939 -1.0854  0.7424 -1.6561
  113OSM    H5G11773   4.372   1.074  10.006 -1.4521  0.6272 -1.1383
  113OSM    C6F11774   4.433   1.051   9.790  0.3153  0.2365 -0.7167
  113OSM    H6F11775   4.526   1.075   9.735  0.9484 -1.8413 -0.6410
  113OSM    H6G11776   4.349   1.115   9.757  1.2062  2.0810  0.4633
  113OSM    C7F11777   4.409   0.906   9.755 -0.2251  0.5973  0.2649
  113OSM    H7F11778   4.338   0.849   9.818  1.2813 -0.6253  0.9037
  113OSM    H7G11779   4.507   0.855   9.768 -1.0239 -1.3828 -0.9786
  113OSM    C8F11780   4.354   0.891   9.616 -0.2824  0.2601 -0.4175
  113OSM    H8F11781   4.429   0.951   9.560  0.0499 -0.3130 -0.5925
  113OSM    H8G11782   4.260   0.949   9.607 -0.3823  0.0869 -0.4873
  113OSM    C9F11783   4.329   0.753   9.553 -0.1906 -0.6265 -0.6494
  113OSM    H9F11784   4.311   0.679   9.633 -1.6046 -0.1205 -0.4665
  113OSM   C10F11785   4.319   0.707   9.430 -0.6943  0.1326  0.4143
  113OSM   H10F11786   4.298   0.602   9.403 -1.2551 -0.1572  1.8662
  113OSM   C11F11787   4.344   0.783   9.301 -0.1966 -0.1348 -0.7980
  113OSM   H11F11788   4.417   0.865   9.320  0.4783 -0.9982  0.4836
  113OSM   H11G11789   4.248   0.832   9.272 -0.5639  0.0257  0.5721
  113OSM   C12F11790   4.413   0.696   9.192  0.7090  0.2592  0.4064
  113OSM   H12F11791   4.336   0.625   9.154  3.4998 -1.9558 -1.6002
  113OSM   H12G11792   4.507   0.640   9.212  1.3475  1.2007  0.1151
  113OSM   C13F11793   4.452   0.787   9.076 -0.1705  1.0789 -0.1125
  113OSM   H13F11794   4.507   0.869   9.125  0.5067 -1.0453  2.9857
  113OSM   H13G11795   4.359   0.829   9.031 -0.9279  0.2734  0.6657
  113OSM   C14F11796   4.554   0.726   8.966 -0.4096  0.0157  0.4833
  113OSM   H14F11797   4.510   0.649   8.898 -1.7932  2.3123 -1.4151
  113OSM   H14G11798   4.635   0.681   9.026  0.1392 -0.3210 -0.4819
  113OSM   C15F11799   4.620   0.822   8.863 -0.1777 -0.1654  0.7187
  113OSM   H15F11800   4.642   0.914   8.921 -1.3629 -0.5196  1.7720
  113OSM   H15G11801   4.545   0.852   8.787  0.5486 -1.5697 -0.5956
  113OSM   C16F11802   4.752   0.779   8.800 -0.7453 -0.2321 -1.0002
  113OSM   H16F11803   4.747   0.695   8.727 -0.1605  0.5836 -2.0031
  113OSM   H16G11804   4.817   0.736   8.879 -0.6233 -2.5210 -2.2769
  113OSM   C17F11805   4.837   0.897   8.747  0.0886  0.4741 -0.6054
  113OSM   H17F11806   4.880   0.951   8.833 -0.4785  0.3235 -0.2251
  113OSM   H17G11807   4.769   0.969   8.696 -0.4591  1.1760  1.0661
  113OSM   C18F11808   4.963   0.857   8.675 -0.6267 -0.4285 -0.6194
  113OSM   H18F11809   4.949   0.774   8.603 -2.7587  1.3690 -2.3904
  113OSM   H18G11810   5.027   0.814   8.756 -0.7668  1.6838  0.7069
  113OSM   H18H11811   5.017   0.941   8.626 -0.0283 -0.9352 -0.8356
  114OSM      N11812   0.845   1.335  11.027 -0.2754  0.3616 -0.4565
  114OSM    C1511813   0.833   1.480  11.019  0.2722 -0.4616 -0.0952
  114OSM   H15A11814   0.897   1.518  10.941  0.8436  0.9485  0.9963
  114OSM   H15B11815   0.864   1.530  11.110 -1.9777  1.8042 -0.4672
  114OSM   H15C11816   0.730   1.504  10.997  0.4651  0.1793 -0.3440
  114OSM    C1411817   0.740   1.297  11.128 -0.7273  0.1052 -0.5681
  114OSM   H14A11818   0.771   1.347  11.219  0.1608  0.5206 -1.0894
  114OSM   H14B11819   0.735   1.190  11.140 -1.9026 -0.0435 -2.0852
  114OSM   H14C11820   0.644   1.331  11.091 -1.2440 -2.0288 -1.3380
  114OSM    C1311821   0.811   1.265  10.901 -0.4456  0.1203 -0.2056
  114OSM   H13A11822   0.720   1.293  10.850  0.5397  0.8320 -1.6313
  114OSM   H13B11823   0.809   1.158  10.908 -0.2181  0.1841  1.0564
  114OSM   H13C11824   0.879   1.284  10.819  0.8748  1.3226  1.1031
  114OSM    C1211825   0.983   1.292  11.072  0.0760  0.5198  0.1444
  114OSM   H12A11826   1.006   1.332  11.169  1.3613 -0.2155  0.1737
  114OSM   H12B11827   1.057   1.333  11.005  1.0745  0.6458  1.2999
  114OSM    C1111828   1.025   1.144  11.069  0.6284  0.2662 -0.0738
  114OSM   H11A11829   1.124   1.138  11.118 -0.1937 -2.5048  1.4734
  114OSM   H11B11830   1.040   1.124  10.961  0.2013  2.7263 -0.6497
  114OSM      P11831   0.872   0.928  11.090  0.0569  0.0029 -0.2627
  114OSM    O1311832   0.963   0.817  11.129  0.3910 -0.1763  0.2289
  114OSM    O1411833   0.730   0.916  11.131  0.2773 -0.0963  0.2373
  114OSM    O1111834   0.881   0.947  10.933  0.2658 -0.0803 -0.3210
  114OSM    O1211835   0.934   1.062  11.151  0.5571  0.1620 -0.7619
  114OSM    C1S11836   0.837   0.832  10.856 -0.5023  0.7594  0.3569
  114OSM    H1S11837   0.726   0.831  10.849 -0.4675 -1.5801 -0.9291
  114OSM    H1T11838   0.873   0.734  10.893  0.9319  1.0469 -0.1954
  114OSM     NF11839   0.826   0.750  10.612  1.0589 -0.6001  0.1295
  114OSM    HNF11840   0.881   0.671  10.585  1.4156  0.2763 -1.9311
  114OSM    C2S11841   0.891   0.840  10.706 -0.0148 -1.0693 -0.3079
  114OSM    H2S11842   0.858   0.940  10.671  1.0959 -0.8121 -0.6799
  114OSM    C3S11843   1.043   0.820  10.710 -0.8872  0.5927 -0.2913
  114OSM    H3S11844   1.049   0.717  10.750 -1.3207  0.7275  0.1296
  114OSM     O311845   1.120   0.901  10.794  0.3165  0.2801 -0.4036
  114OSM    HO311846   1.052   0.922  10.858  3.2014  3.1221  2.1403
  114OSM    C4S11847   1.103   0.816  10.571  0.5397 -1.0174  0.4003
  114OSM    H4S11848   1.136   0.711  10.559  0.3888 -0.8800 -1.3401
  114OSM    C5S11849   1.134   0.913  10.483 -0.3720 -0.0777  0.2027
  114OSM    H5S11850   1.121   1.018  10.514  3.0433  0.3798  0.4319
  114OSM    C6S11851   1.195   0.890  10.342 -0.4312 -0.0880 -0.8919
  114OSM    H6S11852   1.285   0.956  10.337 -0.2504 -0.2352  0.1128
  114OSM    H6T11853   1.136   0.915  10.251 -1.3745 -0.1952 -0.3228
  114OSM    C7S11854   1.254   0.754  10.327  0.4172 -0.2149 -0.4317
  114OSM    H7S11855   1.171   0.681  10.321 -0.2970  0.4635  0.8891
  114OSM    H7T11856   1.322   0.744  10.415  0.2214  3.6881  0.3510
  114OSM    C8S11857   1.347   0.743  10.203 -0.8343  0.4057 -0.5096
  114OSM    H8S11858   1.410   0.652  10.212  0.2715  0.9868 -2.0792
  114OSM    H8T11859   1.414   0.831  10.200  0.8316 -0.5514  2.9757
  114OSM    C9S11860   1.264   0.745  10.071 -0.4073 -0.1391 -0.0705
  114OSM    H9S11861   1.247   0.855  10.074  2.4765  0.3498  1.6986
  114OSM    H9T11862   1.171   0.684  10.073 -1.3800  1.1145 -2.2913
  114OSM   C10S11863   1.331   0.710   9.939  0.4651 -0.0976 -0.8870
  114OSM   H10S11864   1.365   0.605   9.956  2.0856  0.2326 -1.8544
  114OSM   H10T11865   1.411   0.787   9.930  0.5331 -0.0546  0.0055
  114OSM   C11S11866   1.244   0.723   9.814 -0.4172 -0.1218 -0.0295
  114OSM   H11S11867   1.202   0.826   9.813  1.7398  0.8199  0.9246
  114OSM   H11T11868   1.154   0.658   9.820  1.0927 -2.3885 -0.8563
  114OSM   C12S11869   1.322   0.711   9.688  0.3500  0.2906 -0.2436
  114OSM   H12S11870   1.359   0.607   9.675  1.3787  0.6287 -0.0974
  114OSM   H12T11871   1.414   0.772   9.699  0.1666  0.3296  1.2272
  114OSM   C13S11872   1.260   0.760   9.550 -0.6214 -0.4032 -0.1788
  114OSM   H13S11873   1.225   0.865   9.568 -1.0933 -0.5753 -0.0658
  114OSM   H13T11874   1.165   0.708   9.526 -1.6521  0.9784  0.6906
  114OSM   C14S11875   1.353   0.748   9.431  0.0042 -0.4458  0.1374
  114OSM   H14S11876   1.380   0.640   9.427 -0.3962 -0.5242 -0.3966
  114OSM   H14T11877   1.446   0.805   9.454 -0.3193  0.4427 -0.7117
  114OSM   C15S11878   1.299   0.788   9.297  0.1172  0.4441  0.0666
  114OSM   H15S11879   1.317   0.896   9.278 -2.6687  0.7604 -1.2609
  114OSM   H15T11880   1.190   0.772   9.314  0.3510 -0.6398  0.6706
  114OSM   C16S11881   1.353   0.705   9.176  0.0630  0.0209  0.5012
  114OSM   H16S11882   1.343   0.595   9.189 -0.2593 -0.1001 -0.6563
  114OSM   H16T11883   1.462   0.729   9.169 -0.1504  1.1497  0.9201
  114OSM   C17S11884   1.271   0.747   9.052  1.1657  0.1648 -0.1888
  114OSM   H17S11885   1.164   0.742   9.081  1.3935 -1.8432  0.4252
  114OSM   H17T11886   1.288   0.677   8.967 -1.5396  0.4004 -1.0143
  114OSM   C18S11887   1.289   0.897   8.998  0.3519  0.4628 -0.1546
  114OSM   H18S11888   1.396   0.925   8.994 -0.0602  1.9355 -2.9091
  114OSM   H18T11889   1.252   0.962   9.080 -1.4222 -1.4580  0.6645
  114OSM   H18U11890   1.237   0.913   8.901 -0.0255  0.7276  0.0882
  114OSM    C1F11891   0.698   0.772  10.578 -0.3452 -0.1912  0.4209
  114OSM     OF11892   0.617   0.854  10.627 -0.2358 -0.0435  0.4326
  114OSM    C2F11893   0.651   0.667  10.478  0.3225  0.6973  0.0968
  114OSM    H2F11894   0.546   0.635  10.496  0.4992 -0.5378 -0.9904
  114OSM    H2G11895   0.702   0.570  10.490 -0.4065  0.2920 -0.0296
  114OSM    C3F11896   0.661   0.717  10.329  0.4581 -0.1039  0.3287
  114OSM    H3F11897   0.590   0.800  10.310  1.3695 -0.0029 -3.4222
  114OSM    H3G11898   0.631   0.628  10.270 -1.5424 -0.1919  1.4201
  114OSM    C4F11899   0.799   0.771  10.290 -0.8077 -0.6277  0.8341
  114OSM    H4F11900   0.867   0.683  10.288 -0.9588 -0.7501 -1.8980
  114OSM    H4G11901   0.837   0.842  10.367 -2.0218 -0.5209  1.3559
  114OSM    C5F11902   0.797   0.843  10.157 -0.2401 -0.4463  0.1151
  114OSM    H5F11903   0.896   0.889  10.140  0.9494 -2.8948  0.0372
  114OSM    H5G11904   0.730   0.931  10.164  1.2622  0.8716 -1.2554
  114OSM    C6F11905   0.767   0.750  10.040  0.6274  0.0304  0.3816
  114OSM    H6F11906   0.673   0.695  10.063  2.1751 -2.9204 -0.0214
  114OSM    H6G11907   0.852   0.680  10.028 -0.1233 -0.5515 -2.3977
  114OSM    C7F11908   0.748   0.829   9.912  0.3182 -0.9340  1.2538
  114OSM    H7F11909   0.834   0.896   9.892 -0.5161 -0.1734  0.1030
  114OSM    H7G11910   0.661   0.896   9.932  0.8018  0.4677 -0.9945
  114OSM    C8F11911   0.718   0.753   9.783 -0.1856  0.5728  0.2269
  114OSM    H8F11912   0.695   0.832   9.708 -1.5725  0.6725  0.7294
  114OSM    H8G11913   0.634   0.681   9.793  0.2228 -0.2873 -1.8099
  114OSM    C9F11914   0.830   0.657   9.748  0.2460 -0.6625  0.1316
  114OSM    H9F11915   0.849   0.594   9.836  0.0223 -0.1405  0.5596
  114OSM   C10F11916   0.903   0.664   9.638 -0.8740  0.2607 -0.6394
  114OSM   H10F11917   0.986   0.593   9.632 -0.3757  0.7312  0.5215
  114OSM   C11F11918   0.894   0.755   9.521  0.2194 -0.7184  0.7263
  114OSM   H11F11919   0.987   0.816   9.526 -1.3270  1.8464 -0.1176
  114OSM   H11G11920   0.815   0.831   9.536  0.1586 -0.9783  1.8194
  114OSM   C12F11921   0.891   0.684   9.388 -0.2803  0.7268  0.7644
  114OSM   H12F11922   0.811   0.607   9.394  0.9094 -0.6216 -0.0528
  114OSM   H12G11923   0.980   0.620   9.370  0.1188  1.6847 -0.8860
  114OSM   C13F11924   0.875   0.782   9.275  0.1792  0.3382  0.0511
  114OSM   H13F11925   0.967   0.845   9.267  0.1871  1.0764  3.9553
  114OSM   H13G11926   0.796   0.858   9.290 -0.2240 -0.0734  0.0412
  114OSM   C14F11927   0.869   0.719   9.134  0.1346  0.5938 -0.2970
  114OSM   H14F11928   0.775   0.659   9.129 -0.6656  1.5735  1.7163
  114OSM   H14G11929   0.962   0.661   9.120 -0.3871 -0.2480 -0.3320
  114OSM   C15F11930   0.864   0.822   9.019 -0.3595  0.7153 -0.1394
  114OSM   H15F11931   0.953   0.888   9.020  1.0045 -1.0358 -1.1675
  114OSM   H15G11932   0.782   0.894   9.039 -1.4540  0.6032 -3.5759
  114OSM   C16F11933   0.855   0.774   8.877  0.0188  0.6615 -0.2756
  114OSM   H16F11934   0.937   0.699   8.869 -0.6969 -0.3642  1.3794
  114OSM   H16G11935   0.870   0.860   8.809 -1.7287  2.0178  0.9696
  114OSM   C17F11936   0.726   0.700   8.850  0.0927  0.1830 -0.0935
  114OSM   H17F11937   0.645   0.768   8.885  0.8123  1.0446 -0.0707
  114OSM   H17G11938   0.729   0.606   8.909 -0.6813 -0.3082 -0.8048
  114OSM   C18F11939   0.701   0.672   8.699 -0.0380 -0.2694 -0.1490
  114OSM   H18F11940   0.688   0.772   8.652  0.3679  0.4334  1.1913
  114OSM   H18G11941   0.604   0.623   8.676 -0.6648  1.5187 -1.6378
  114OSM   H18H11942   0.781   0.621   8.641  0.9177 -0.1288  1.0044
  115OSM      N11943   6.797   2.482   5.987  0.0358  0.1919  0.2833
  115OSM    C1511944   6.734   2.489   5.854  0.5258 -0.4940 -0.2792
  115OSM   H15A11945   6.807   2.454   5.783 -0.7404 -1.2013 -1.2635
  115OSM   H15B11946   6.712   2.592   5.831  2.7338  0.3520  1.0372
  115OSM   H15C11947   6.645   2.429   5.864  1.0332 -1.0172  1.6245
  115OSM    C1411948   6.824   2.336   6.014  0.4713  0.5818  0.1709
  115OSM   H14A11949   6.740   2.269   6.014  2.0637 -1.7735  3.7625
  115OSM   H14B11950   6.882   2.321   6.104  1.1110 -1.2562 -0.5118
  115OSM   H14C11951   6.886   2.300   5.934 -0.1790 -1.0340  0.3617
  115OSM    C1311952   6.936   2.548   5.980 -0.0419 -0.7771 -0.2677
  115OSM   H13A11953   6.935   2.640   5.924  1.0436 -0.0135  0.9012
  115OSM   H13B11954   7.012   2.486   5.936  1.8579  1.8161 -0.9082
  115OSM   H13C11955   6.983   2.573   6.074  0.6312 -0.2194 -0.7344
  115OSM    C1211956   6.719   2.550   6.094 -0.0571 -0.3420  0.0701
  115OSM   H12A11957   6.618   2.511   6.089  0.3549 -1.2882 -2.1485
  115OSM   H12B11958   6.716   2.653   6.062  1.4838 -0.2394  0.2005
  115OSM    C1111959   6.775   2.548   6.237 -0.4015  0.3511 -0.2601
  115OSM   H11A11960   6.818   2.448   6.260  0.1263  0.8616  1.0747
  115OSM   H11B11961   6.695   2.560   6.313  2.2538  0.1809  2.8063
  115OSM      P11962   6.852   2.777   6.335 -0.2706  0.2188  0.0491
  115OSM    O1311963   6.969   2.868   6.315  0.0232 -0.3881  0.1594
  115OSM    O1411964   6.719   2.832   6.293 -0.2835  0.1265 -0.3746
  115OSM    O1111965   6.847   2.747   6.483  0.3446  0.6463 -0.3680
  115OSM    O1211966   6.879   2.642   6.259 -0.0549 -0.0442 -0.1944
  115OSM    C1S11967   6.942   2.664   6.543 -0.0474  0.9810  0.0247
  115OSM    H1S11968   7.047   2.698   6.530  0.4897  0.0298  1.5647
  115OSM    H1T11969   6.926   2.560   6.507  1.7654  0.9388 -0.7355
  115OSM     NF11970   7.029   2.587   6.759  0.4879  0.0125  0.3944
  115OSM    HNF11971   7.018   2.492   6.786  0.5419  0.4848  2.2992
  115OSM    C2S11972   6.918   2.652   6.692 -0.4227 -0.5010 -0.5818
  115OSM    H2S11973   6.921   2.755   6.732  1.6902 -0.8055  0.1673
  115OSM    C3S11974   6.782   2.594   6.724  0.6505  0.7127  0.2968
  115OSM    H3S11975   6.774   2.488   6.693 -2.9541  1.5567 -2.3194
  115OSM     O311976   6.680   2.656   6.653  0.1356 -0.1819  0.2985
  115OSM    HO311977   6.730   2.686   6.576  0.7514 -1.9535 -0.0467
  115OSM    C4S11978   6.764   2.599   6.871 -0.6102 -0.1969  0.3457
  115OSM    H4S11979   6.771   2.503   6.924 -4.9304 -1.8437 -1.6319
  115OSM    C5S11980   6.736   2.706   6.946 -0.6705 -0.1243  0.3479
  115OSM    H5S11981   6.725   2.797   6.885  0.1510  2.2861  3.5285
  115OSM    C6S11982   6.730   2.718   7.096 -0.6451 -0.0940  0.2173
  115OSM    H6S11983   6.624   2.721   7.129 -0.3599 -1.6164  1.4004
  115OSM    H6T11984   6.783   2.811   7.126  0.8274  0.0523 -2.5815
  115OSM    C7S11985   6.803   2.605   7.175 -0.3218  0.2703 -0.4704
  115OSM    H7S11986   6.858   2.653   7.259  0.3722 -0.2448 -0.6187
  115OSM    H7T11987   6.870   2.545   7.109 -0.8525 -0.4461 -0.3676
  115OSM    C8S11988   6.705   2.511   7.235  0.0995  0.0384 -0.1411
  115OSM    H8S11989   6.759   2.427   7.284 -1.6802  0.1881  2.2614
  115OSM    H8T11990   6.633   2.468   7.163  0.5984 -0.4014 -0.3857
  115OSM    C9S11991   6.627   2.573   7.356  0.0369 -0.4698  1.1424
  115OSM    H9S11992   6.556   2.650   7.317 -0.2718 -0.1335  2.3384
  115OSM    H9T11993   6.707   2.620   7.417  1.0536 -1.3335  0.5044
  115OSM   C10S11994   6.546   2.475   7.439  0.5972  0.3542 -0.1809
  115OSM   H10S11995   6.611   2.394   7.479 -3.1817 -3.0711 -0.4602
  115OSM   H10T11996   6.462   2.429   7.384  0.2542  0.3706  0.3182
  115OSM   C11S11997   6.472   2.551   7.552  0.2330  0.2408 -0.0776
  115OSM   H11S11998   6.375   2.577   7.504  0.3002 -0.3944 -0.5648
  115OSM   H11T11999   6.523   2.649   7.560  0.3645  0.4147 -2.4285
  115OSM   C12S12000   6.450   2.466   7.685  0.3075  0.1926 -0.7739
  115OSM   H12S12001   6.547   2.423   7.714 -0.1391 -1.1198 -1.1712
  115OSM   H12T12002   6.375   2.385   7.672 -0.3893  0.4802  1.1099
  115OSM   C13S12003   6.400   2.558   7.799 -1.3059  0.2129  0.7213
  115OSM   H13S12004   6.299   2.599   7.778 -1.9534 -1.8375 -0.4470
  115OSM   H13T12005   6.481   2.631   7.820  0.0127 -0.6298 -1.1041
  115OSM   C14S12006   6.396   2.468   7.931 -0.5678  0.0975  0.4005
  115OSM   H14S12007   6.503   2.457   7.961  0.3341  2.0600 -1.8036
  115OSM   H14T12008   6.365   2.365   7.902 -0.9096 -0.4077  2.3964
  115OSM   C15S12009   6.301   2.517   8.041  0.0070 -0.1178  0.4465
  115OSM   H15S12010   6.275   2.439   8.116  0.5124 -1.0726 -0.3449
  115OSM   H15T12011   6.204   2.552   7.998  0.2181  2.4437  1.8478
  115OSM   C16S12012   6.354   2.636   8.116  0.2698 -0.6613 -0.8901
  115OSM   H16S12013   6.398   2.711   8.047  0.6051 -0.8176 -0.8505
  115OSM   H16T12014   6.440   2.599   8.176  0.6284 -0.4525 -1.2667
  115OSM   C17S12015   6.255   2.695   8.220  0.4305 -0.2923  0.1885
  115OSM   H17S12016   6.160   2.728   8.174  0.2079  2.4879  2.3681
  115OSM   H17T12017   6.293   2.792   8.258 -3.0532  1.7043 -1.0542
  115OSM   C18S12018   6.232   2.605   8.342  0.6489  0.1519 -0.0311
  115OSM   H18S12019   6.334   2.585   8.382  0.4309  2.4565  1.8479
  115OSM   H18T12020   6.178   2.513   8.311  1.8906 -0.1734 -1.3752
  115OSM   H18U12021   6.191   2.657   8.431  0.3683  0.6163 -0.4257
  115OSM    C1F12022   7.147   2.644   6.781  0.2145 -0.4219  0.3260
  115OSM     OF12023   7.173   2.757   6.745 -0.6427 -0.2361  0.1292
  115OSM    C2F12024   7.246   2.552   6.845  0.5098  0.3874  0.4625
  115OSM    H2F12025   7.339   2.565   6.785  0.5589  1.4329  0.7400
  115OSM    H2G12026   7.210   2.448   6.834  0.6675  0.2950  0.8331
  115OSM    C3F12027   7.287   2.590   6.990 -0.0139  0.3752 -0.1761
  115OSM    H3F12028   7.302   2.699   7.005  0.7365 -0.1190  3.9129
  115OSM    H3G12029   7.380   2.534   7.010 -2.1918 -4.5523 -2.1201
  115OSM    C4F12030   7.191   2.541   7.099 -0.3622 -0.3525 -0.0018
  115OSM    H4F12031   7.142   2.445   7.071  0.5550 -0.5226 -1.0661
  115OSM    H4G12032   7.102   2.607   7.105 -1.3356 -1.6337  0.1638
  115OSM    C5F12033   7.247   2.522   7.237  0.1567  0.4874 -0.3250
  115OSM    H5F12034   7.310   2.606   7.274  2.9403 -1.5843 -0.0595
  115OSM    H5G12035   7.306   2.428   7.234  0.3109  0.5595  0.3472
  115OSM    C6F12036   7.141   2.494   7.342 -0.2995 -0.5262  0.7310
  115OSM    H6F12037   7.090   2.396   7.329  0.5238 -1.3450  3.0658
  115OSM    H6G12038   7.047   2.552   7.337 -1.8812 -2.9597  0.5984
  115OSM    C7F12039   7.205   2.514   7.481  0.2641  0.1371 -0.0370
  115OSM    H7F12040   7.281   2.595   7.492  2.6488 -1.8814 -0.8134
  115OSM    H7G12041   7.260   2.422   7.513  2.9192  0.2960 -3.5576
  115OSM    C8F12042   7.095   2.544   7.585 -1.0150  0.0205 -0.4105
  115OSM    H8F12043   7.046   2.638   7.551 -0.9055  0.0806 -0.4022
  115OSM    H8G12044   7.139   2.570   7.684  1.9340 -0.6456 -1.4402
  115OSM    C9F12045   6.990   2.438   7.601 -0.3371 -0.2121 -0.4096
  115OSM    H9F12046   7.009   2.349   7.539 -1.3137 -0.3834 -0.4798
  115OSM   C10F12047   6.874   2.454   7.666 -0.1519 -0.0665 -0.4237
  115OSM   H10F12048   6.810   2.364   7.664  0.3452 -0.4207 -1.7157
  115OSM   C11F12049   6.824   2.577   7.740 -0.1144 -0.5326  0.2544
  115OSM   H11F12050   6.724   2.597   7.696 -0.7324 -2.3519  0.7536
  115OSM   H11G12051   6.883   2.671   7.738  0.2336 -0.7023  1.6785
  115OSM   C12F12052   6.803   2.543   7.889  0.2563  0.2122 -0.1875
  115OSM   H12F12053   6.897   2.495   7.926  0.9699  1.7677  0.1193
  115OSM   H12G12054   6.722   2.467   7.888  1.1368 -0.8574  1.9503
  115OSM   C13F12055   6.760   2.667   7.966  0.3556 -0.1673  0.8018
  115OSM   H13F12056   6.672   2.708   7.913  2.9318  3.0625 -1.3285
  115OSM   H13G12057   6.841   2.742   7.971 -0.6336  0.9790  0.1343
  115OSM   C14F12058   6.722   2.618   8.107  0.8648 -0.3515 -0.3976
  115OSM   H14F12059   6.813   2.561   8.137 -0.0639 -1.8202 -0.2398
  115OSM   H14G12060   6.636   2.547   8.104 -2.1543  3.0400 -0.2355
  115OSM   C15F12061   6.706   2.731   8.210  0.1321  0.0351  0.2580
  115OSM   H15F12062   6.623   2.793   8.171  1.3258  1.3484 -0.3118
  115OSM   H15G12063   6.793   2.801   8.209  0.0512  0.2264 -2.8867
  115OSM   C16F12064   6.680   2.676   8.351 -0.2622 -0.8292  0.1052
  115OSM   H16F12065   6.721   2.579   8.385  0.7480 -0.2246  0.6649
  115OSM   H16G12066   6.570   2.675   8.365 -0.3901  1.1361 -0.4899
  115OSM   C17F12067   6.723   2.782   8.452  0.8015  0.1193  0.0145
  115OSM   H17F12068   6.832   2.798   8.434  0.3544  0.8616 -2.3521
  115OSM   H17G12069   6.709   2.733   8.551 -2.8469 -0.0684 -0.4519
  115OSM   C18F12070   6.639   2.904   8.452  0.6641 -0.8787 -0.1531
  115OSM   H18F12071   6.630   2.949   8.351  0.7223 -0.4359  0.0352
  115OSM   H18G12072   6.681   2.991   8.506 -1.3184  1.0528 -1.5577
  115OSM   H18H12073   6.538   2.880   8.494  0.8225 -2.2240 -0.5019
  116OSM      N12074   6.849   6.033   6.337  0.0873  0.4169 -0.3876
  116OSM    C1512075   6.935   5.913   6.327  0.3148  0.5355 -0.2345
  116OSM   H15A12076   7.015   5.925   6.256  0.0521  0.0700 -0.6177
  116OSM   H15B12077   6.875   5.826   6.303  0.1095  0.3108  1.0406
  116OSM   H15C12078   6.978   5.904   6.426  3.2277  1.5784 -1.2919
  116OSM    C1412079   6.944   6.145   6.352  0.1149 -0.3097 -0.1996
  116OSM   H14A12080   7.001   6.146   6.444  0.9277  0.7072 -0.6938
  116OSM   H14B12081   6.894   6.240   6.344  2.7999  1.2355  0.3333
  116OSM   H14C12082   7.020   6.139   6.276 -1.1644  0.5258 -1.6246
  116OSM    C1312083   6.764   6.038   6.214  0.2071  0.4605  0.6921
  116OSM   H13A12084   6.708   6.131   6.210 -0.3346  0.3066  3.0287
  116OSM   H13B12085   6.685   5.966   6.231 -0.2015  0.9551  0.9315
  116OSM   H13C12086   6.820   6.009   6.126 -3.6647 -1.2099 -1.5087
  116OSM    C1212087   6.762   6.037   6.468 -0.0574 -0.7281 -0.1706
  116OSM   H12A12088   6.824   6.013   6.553  0.3070  0.0220 -0.2103
  116OSM   H12B12089   6.687   5.960   6.460  0.7724 -1.4753 -0.9674
  116OSM    C1112090   6.689   6.175   6.503 -0.2440 -0.2031 -0.5744
  116OSM   H11A12091   6.751   6.253   6.551 -0.3532  0.0905 -0.9018
  116OSM   H11B12092   6.607   6.159   6.576  0.0223  0.5652 -0.0872
  116OSM      P12093   6.624   6.388   6.350 -0.0145  0.5321  0.1156
  116OSM    O1312094   6.733   6.410   6.255 -0.1896 -0.5407 -0.1735
  116OSM    O1412095   6.488   6.418   6.299  0.5535 -0.4669 -0.3895
  116OSM    O1112096   6.653   6.470   6.484 -0.3362 -0.2935 -0.2820
  116OSM    O1212097   6.626   6.233   6.384 -0.3192  0.4062 -0.4058
  116OSM    C1S12098   6.542   6.471   6.578 -0.0233  0.4783  0.1867
  116OSM    H1S12099   6.467   6.391   6.562  2.0457 -1.2324 -1.6090
  116OSM    H1T12100   6.486   6.565   6.558  2.1130  1.5067 -1.3283
  116OSM     NF12101   6.462   6.467   6.806  0.0822 -0.1764  0.4375
  116OSM    HNF12102   6.423   6.556   6.829 -0.7638  0.3690 -2.6509
  116OSM    C2S12103   6.585   6.472   6.727  0.3019 -0.5388  0.5352
  116OSM    H2S12104   6.645   6.384   6.756 -0.8549 -0.7151  2.6079
  116OSM    C3S12105   6.690   6.583   6.765  0.1270 -0.2930  0.6966
  116OSM    H3S12106   6.646   6.682   6.743  0.5929  0.1300  1.6040
  116OSM     O312107   6.806   6.577   6.686 -0.3467 -0.3320  0.2722
  116OSM    HO312108   6.777   6.532   6.606 -1.3856  1.1955 -0.2406
  116OSM    C4S12109   6.736   6.571   6.902 -0.0501  0.1344 -0.3505
  116OSM    H4S12110   6.817   6.497   6.915  1.6250  1.9302 -0.0954
  116OSM    C5S12111   6.701   6.645   7.007 -0.8255 -0.2472 -1.0101
  116OSM    H5S12112   6.625   6.721   6.985  0.0531  0.9516 -0.0196
  116OSM    C6S12113   6.747   6.615   7.147  0.1420 -0.3300 -0.3271
  116OSM    H6S12114   6.826   6.688   7.174  0.1059 -0.2773 -0.3656
  116OSM    H6T12115   6.796   6.517   7.166 -0.1138 -0.1104  1.6513
  116OSM    C7S12116   6.636   6.614   7.256 -0.3214 -0.3147 -0.4924
  116OSM    H7S12117   6.686   6.573   7.347  0.4317  0.6773 -0.4375
  116OSM    H7T12118   6.547   6.550   7.244 -1.2302  0.0116  3.2803
  116OSM    C8S12119   6.582   6.749   7.284  0.1859 -0.2854 -1.1325
  116OSM    H8S12120   6.537   6.802   7.197  0.3689  2.3921  0.3004
  116OSM    H8T12121   6.660   6.817   7.325 -0.6658 -0.8299  1.5795
  116OSM    C9S12122   6.474   6.749   7.400  0.2630  0.1527  0.3486
  116OSM    H9S12123   6.411   6.659   7.381  0.3166 -0.1559  1.5669
  116OSM    H9T12124   6.412   6.838   7.378  0.4697  0.6017  1.5263
  116OSM   C10S12125   6.529   6.745   7.543  0.2551 -0.6718 -0.5642
  116OSM   H10S12126   6.601   6.828   7.564 -0.8556  0.3417 -0.6444
  116OSM   H10T12127   6.569   6.648   7.580  0.7071  0.2560  1.5244
  116OSM   C11S12128   6.417   6.788   7.642  0.0891 -0.2511 -0.4223
  116OSM   H11S12129   6.330   6.722   7.625 -0.2953 -0.2166  1.2176
  116OSM   H11T12130   6.390   6.895   7.625 -1.5077 -0.6014 -0.1842
  116OSM   C12S12131   6.462   6.780   7.797  0.0632  0.1128  0.0768
  116OSM   H12S12132   6.565   6.820   7.814  0.0049 -0.1181  0.9905
  116OSM   H12T12133   6.470   6.671   7.816 -0.7646  0.4777  3.1404
  116OSM   C13S12134   6.355   6.832   7.891  0.5935 -0.1229 -0.0135
  116OSM   H13S12135   6.256   6.800   7.851  0.6501  1.8062 -1.8602
  116OSM   H13T12136   6.343   6.942   7.893 -0.9985 -0.2335 -1.4135
  116OSM   C14S12137   6.358   6.790   8.039  0.3525 -0.1101 -0.0557
  116OSM   H14S12138   6.278   6.845   8.093 -1.0128 -1.1463 -0.9613
  116OSM   H14T12139   6.461   6.813   8.074 -0.1585  2.4624 -0.0167
  116OSM   C15S12140   6.323   6.643   8.063 -0.2868 -0.2484  0.3203
  116OSM   H15S12141   6.405   6.583   8.017 -0.8225 -1.0251  0.3587
  116OSM   H15T12142   6.229   6.628   8.006  0.4783  2.1290 -1.7237
  116OSM   C16S12143   6.318   6.591   8.206 -0.7181 -0.0004  0.2325
  116OSM   H16S12144   6.385   6.638   8.281 -0.2905 -0.8968  0.4367
  116OSM   H16T12145   6.334   6.481   8.215 -0.5646  0.0388  0.4545
  116OSM   C17S12146   6.178   6.623   8.262  0.2855  0.0087 -1.2861
  116OSM   H17S12147   6.100   6.603   8.186 -2.7939  1.8797  1.1348
  116OSM   H17T12148   6.174   6.727   8.300 -0.2592 -0.3034 -0.4541
  116OSM   C18S12149   6.143   6.540   8.385 -0.1649 -0.2470 -0.5248
  116OSM   H18S12150   6.231   6.534   8.453 -0.9859  2.1626  0.8945
  116OSM   H18T12151   6.115   6.435   8.363  0.8627 -0.4076 -1.1392
  116OSM   H18U12152   6.066   6.591   8.447 -1.1172 -0.2152 -1.6958
  116OSM    C1F12153   6.398   6.347   6.818  0.5558 -0.0916 -0.3354
  116OSM     OF12154   6.438   6.245   6.760  0.0800 -0.4943  0.5979
  116OSM    C2F12155   6.275   6.339   6.903 -0.1871 -0.7202  1.1345
  116OSM    H2F12156   6.199   6.393   6.843  1.4090 -0.8396 -1.1049
  116OSM    H2G12157   6.294   6.385   7.003  0.1807 -2.6963  2.0236
  116OSM    C3F12158   6.235   6.198   6.916  0.4123  0.4397  0.2271
  116OSM    H3F12159   6.304   6.141   6.983 -0.1709  0.1428  0.5829
  116OSM    H3G12160   6.219   6.148   6.819  0.3115  1.3500 -0.2353
  116OSM    C4F12161   6.102   6.190   6.994  0.9965  0.4111 -0.0851
  116OSM    H4F12162   6.020   6.198   6.919 -0.9185  0.9511  1.9606
  116OSM    H4G12163   6.091   6.277   7.062 -0.2197 -2.1105  3.2326
  116OSM    C5F12164   6.086   6.061   7.073  0.2077  0.1373 -0.4639
  116OSM    H5F12165   6.140   5.977   7.026 -2.0284 -1.5730 -0.1329
  116OSM    H5G12166   5.977   6.037   7.074 -0.0796  1.3482 -0.6780
  116OSM    C6F12167   6.136   6.080   7.217 -0.0460  0.3442  0.3652
  116OSM    H6F12168   6.069   6.136   7.286 -1.0326 -0.5399  0.1546
  116OSM    H6G12169   6.238   6.125   7.221  0.0824  0.5982 -3.1307
  116OSM    C7F12170   6.158   5.938   7.279  0.6142 -0.0791 -0.5951
  116OSM    H7F12171   6.221   5.874   7.214  0.6601 -2.4489  1.6553
  116OSM    H7G12172   6.061   5.885   7.281  0.9824 -0.7867 -0.9372
  116OSM    C8F12173   6.212   5.946   7.421 -0.3742  0.4083  0.2887
  116OSM    H8F12174   6.171   6.033   7.477  0.6757  0.4801  0.9859
  116OSM    H8G12175   6.320   5.969   7.409 -0.2959 -0.1096 -0.0270
  116OSM    C9F12176   6.210   5.820   7.498  0.2624  0.1991 -0.4933
  116OSM    H9F12177   6.298   5.755   7.494 -0.6487 -1.0124 -3.6699
  116OSM   C10F12178   6.114   5.799   7.589 -0.6277 -0.9789  1.0746
  116OSM   H10F12179   6.122   5.707   7.648  0.5761 -2.8608 -1.8015
  116OSM   C11F12180   5.994   5.889   7.624  0.6720 -0.0088 -1.0360
  116OSM   H11F12181   5.979   5.967   7.546  0.1911  0.5970 -0.3531
  116OSM   H11G12182   6.009   5.935   7.724 -2.5962  0.5265 -0.6766
  116OSM   C12F12183   5.874   5.799   7.631 -0.2180 -0.0910  0.2027
  116OSM   H12F12184   5.778   5.849   7.659 -1.3478 -1.2957 -1.3061
  116OSM   H12G12185   5.894   5.712   7.697  2.8846 -1.3456 -2.1856
  116OSM   C13F12186   5.838   5.736   7.498 -0.2564 -0.1056 -0.2213
  116OSM   H13F12187   5.756   5.665   7.523  0.5145 -1.1483 -0.5920
  116OSM   H13G12188   5.926   5.682   7.458 -0.5346  0.7403 -2.0348
  116OSM   C14F12189   5.794   5.842   7.400 -0.1101  1.3193  0.5819
  116OSM   H14F12190   5.879   5.907   7.370 -0.1891  1.3683  0.4607
  116OSM   H14G12191   5.719   5.913   7.440 -1.1450 -0.7574  2.5532
  116OSM   C15F12192   5.739   5.771   7.269 -0.5796  0.4067  0.0204
  116OSM   H15F12193   5.661   5.699   7.304 -2.4928  2.5278  0.3877
  116OSM   H15G12194   5.820   5.714   7.221 -1.6710 -1.5083  0.3404
  116OSM   C16F12195   5.661   5.861   7.159 -0.2393 -0.3289 -0.8404
  116OSM   H16F12196   5.712   5.957   7.137  0.2757 -0.4328 -0.1055
  116OSM   H16G12197   5.568   5.885   7.214 -0.0161 -3.1153  0.9190
  116OSM   C17F12198   5.627   5.780   7.039  0.2867  0.2102  0.2689
  116OSM   H17F12199   5.534   5.822   6.997  1.8978  1.1331 -2.6344
  116OSM   H17G12200   5.626   5.671   7.064  0.2367  0.7412  2.8520
  116OSM   C18F12201   5.735   5.797   6.923 -0.2647  0.0629 -0.2612
  116OSM   H18F12202   5.730   5.709   6.856  1.1083  1.6824 -2.6539
  116OSM   H18G12203   5.834   5.811   6.971 -1.5076 -1.8432  3.3104
  116OSM   H18H12204   5.720   5.880   6.850 -4.1099 -0.7060 -0.5849
  117OSM      N12205   3.044   5.209   6.060 -0.0292  0.0646  0.2987
  117OSM    C1512206   2.991   5.132   5.938  0.6501 -0.1757  0.7445
  117OSM   H15A12207   2.905   5.179   5.894  2.4985  1.6674 -1.1125
  117OSM   H15B12208   2.963   5.032   5.966 -0.7906 -1.1164 -3.4365
  117OSM   H15C12209   3.059   5.109   5.858 -0.5158 -1.5596  0.1070
  117OSM    C1412210   3.080   5.345   6.015  0.3023 -0.1525  0.1726
  117OSM   H14A12211   3.005   5.416   5.984  0.4603  0.0340  0.2134
  117OSM   H14B12212   3.167   5.339   5.951  0.9185 -0.3403  1.0050
  117OSM   H14C12213   3.123   5.406   6.093 -1.2550  2.6395 -1.0139
  117OSM    C1312214   2.932   5.208   6.156  0.3506  0.2050  0.7063
  117OSM   H13A12215   2.897   5.109   6.182 -0.8890  0.5378  0.3745
  117OSM   H13B12216   2.849   5.269   6.124  0.3912  1.0259  2.0752
  117OSM   H13C12217   2.959   5.245   6.254 -0.0998  1.6995  0.2854
  117OSM    C1212218   3.163   5.137   6.122  0.3644  0.3774  0.0910
  117OSM   H12A12219   3.249   5.145   6.057  2.1386  1.3812  2.3832
  117OSM   H12B12220   3.142   5.031   6.117  0.1234  0.4829 -2.8881
  117OSM    C1112221   3.204   5.181   6.268 -0.0332 -0.6827  0.0390
  117OSM   H11A12222   3.282   5.104   6.287  0.7381  0.1648  0.3750
  117OSM   H11B12223   3.119   5.160   6.338 -0.2575 -1.7895 -0.5377
  117OSM      P12224   3.401   5.350   6.298 -0.2105  0.0529  0.2444
  117OSM    O1312225   3.475   5.300   6.185  0.3222  0.5360  0.8999
  117OSM    O1412226   3.416   5.493   6.343  0.3616  0.3616 -0.7770
  117OSM    O1112227   3.444   5.249   6.419 -0.6482  0.1988  0.6903
  117OSM    O1212228   3.241   5.323   6.273 -0.0764  0.8674 -0.2308
  117OSM    C1S12229   3.546   5.270   6.514  0.3453 -0.7543  0.5138
  117OSM    H1S12230   3.633   5.325   6.472  1.6014 -1.7051  1.7739
  117OSM    H1T12231   3.591   5.172   6.542  3.3625 -0.2741 -2.1095
  117OSM     NF12232   3.612   5.350   6.734  0.0169  0.1317 -0.3462
  117OSM    HNF12233   3.596   5.321   6.827 -0.8604 -0.5579 -0.6998
  117OSM    C2S12234   3.502   5.344   6.644 -0.1207 -0.5181 -0.1979
  117OSM    H2S12235   3.479   5.451   6.625 -1.4751 -0.8405 -0.4892
  117OSM    C3S12236   3.378   5.275   6.700 -0.3198 -0.1302 -1.0421
  117OSM    H3S12237   3.413   5.176   6.738 -2.4950  0.0441  1.7320
  117OSM     O312238   3.270   5.245   6.613  0.3392 -0.3776  0.2666
  117OSM    HO312239   3.314   5.251   6.528 -1.4729 -1.1951 -0.7811
  117OSM    C4S12240   3.330   5.352   6.822 -0.4767 -0.0752 -0.1303
  117OSM    H4S12241   3.340   5.296   6.916  1.0515  0.0451 -0.1994
  117OSM    C5S12242   3.283   5.477   6.826  0.0452  0.2363  0.2684
  117OSM    H5S12243   3.265   5.540   6.737 -0.4434  1.8988  1.4887
  117OSM    C6S12244   3.245   5.548   6.954  1.1064  0.6477  0.6475
  117OSM    H6S12245   3.219   5.468   7.027 -0.3477 -0.4029 -0.9635
  117OSM    H6T12246   3.153   5.608   6.939  1.7447  1.3185 -0.7399
  117OSM    C7S12247   3.345   5.642   7.022 -0.4961 -0.0729 -0.4656
  117OSM    H7S12248   3.376   5.716   6.945  0.5347 -0.5198 -0.4940
  117OSM    H7T12249   3.432   5.581   7.052 -0.0641  1.6289  2.0966
  117OSM    C8S12250   3.276   5.700   7.150 -0.1049  0.6008  1.2523
  117OSM    H8S12251   3.167   5.718   7.136 -0.4105 -1.2702  0.8364
  117OSM    H8T12252   3.325   5.794   7.182  1.1604  0.5671 -0.4480
  117OSM    C9S12253   3.279   5.595   7.266  0.4718  0.6098 -0.0870
  117OSM    H9S12254   3.385   5.579   7.293  0.6900  1.5158 -0.3480
  117OSM    H9T12255   3.242   5.494   7.242  0.9276  0.6418 -0.9671
  117OSM   C10S12256   3.198   5.647   7.386 -0.1520 -0.3049  0.1616
  117OSM   H10S12257   3.094   5.609   7.376  0.0316 -0.6647 -0.4252
  117OSM   H10T12258   3.182   5.756   7.395 -1.3792 -0.5602  1.4037
  117OSM   C11S12259   3.259   5.610   7.517  0.2942  0.5960 -0.5721
  117OSM   H11S12260   3.356   5.664   7.530  1.2330 -0.3612 -3.1336
  117OSM   H11T12261   3.290   5.504   7.510  0.9441  0.8491 -1.6712
  117OSM   C12S12262   3.163   5.624   7.633 -0.2310  0.3877 -0.1193
  117OSM   H12S12263   3.080   5.550   7.619 -0.2744  0.0720  1.6264
  117OSM   H12T12264   3.127   5.729   7.629  1.1490  0.8592 -1.2069
  117OSM   C13S12265   3.223   5.597   7.771  0.3272 -0.2049 -0.3470
  117OSM   H13S12266   3.297   5.678   7.790  0.3166 -0.0824 -0.8193
  117OSM   H13T12267   3.284   5.504   7.770  0.5792 -0.0651 -2.3372
  117OSM   C14S12268   3.128   5.592   7.888  0.2339 -0.0533  0.4219
  117OSM   H14S12269   3.182   5.556   7.978  0.1369 -1.0620  0.0932
  117OSM   H14T12270   3.040   5.525   7.872 -0.3719  0.6268  0.8378
  117OSM   C15S12271   3.073   5.728   7.924  0.0513  0.5666 -0.6385
  117OSM   H15S12272   3.019   5.759   7.832  0.9859 -2.7961 -2.4592
  117OSM   H15T12273   3.135   5.817   7.946 -2.1112  1.8281  0.8157
  117OSM   C16S12274   2.974   5.714   8.047  0.6993 -0.2358  0.0604
  117OSM   H16S12275   3.021   5.641   8.116 -0.0424 -2.1999 -1.4220
  117OSM   H16T12276   2.879   5.680   7.998  0.1349  1.8953 -0.4117
  117OSM   C17S12277   2.960   5.852   8.121 -0.1515  0.3694 -0.7299
  117OSM   H17S12278   3.062   5.873   8.162 -0.7772  0.0830  1.0652
  117OSM   H17T12279   2.895   5.838   8.210  2.6195 -0.0349  1.4005
  117OSM   C18S12280   2.891   5.960   8.041  0.3250  0.7900  0.1391
  117OSM   H18S12281   2.781   5.947   8.036  0.1288  1.0923  2.3382
  117OSM   H18T12282   2.942   5.982   7.945 -0.5896  1.8872 -0.1139
  117OSM   H18U12283   2.899   6.049   8.107  0.6350 -0.3568  1.7250
  117OSM    C1F12284   3.727   5.406   6.710 -0.4343 -0.1103  0.1061
  117OSM     OF12285   3.749   5.484   6.616  0.2344 -0.1067 -0.3724
  117OSM    C2F12286   3.827   5.381   6.822  0.1054 -0.9987 -0.5058
  117OSM    H2F12287   3.829   5.271   6.839  1.4682 -0.8538  0.3661
  117OSM    H2G12288   3.790   5.425   6.917  2.4806  3.7552 -1.4776
  117OSM    C3F12289   3.969   5.430   6.795  0.5482 -0.3572 -0.5071
  117OSM    H3F12290   3.955   5.540   6.793 -3.2132 -0.6874 -0.7324
  117OSM    H3G12291   4.002   5.393   6.695  1.0840 -0.8186 -0.1630
  117OSM    C4F12292   4.060   5.392   6.915 -0.5867  0.9283  0.5116
  117OSM    H4F12293   4.165   5.420   6.892 -0.6480 -0.0865 -1.1464
  117OSM    H4G12294   4.049   5.282   6.930 -0.2086  0.9192  0.7161
  117OSM    C5F12295   4.021   5.460   7.044 -0.1325 -0.0726  0.3018
  117OSM    H5F12296   3.931   5.414   7.091 -0.9529  0.3531 -0.8102
  117OSM    H5G12297   3.997   5.563   7.009  0.1051 -0.6164 -1.5739
  117OSM    C6F12298   4.129   5.466   7.153 -0.1695  0.0983 -1.1496
  117OSM    H6F12299   4.206   5.542   7.129  0.1891 -0.4266 -1.7026
  117OSM    H6G12300   4.166   5.362   7.165  1.4605  0.5947 -1.5898
  117OSM    C7F12301   4.077   5.490   7.297  0.2629 -0.1689  0.1546
  117OSM    H7F12302   3.990   5.423   7.311 -0.7082  1.0346  0.0824
  117OSM    H7G12303   4.034   5.591   7.314  0.0832 -0.4535  1.5129
  117OSM    C8F12304   4.171   5.471   7.415 -0.0440 -0.6067  0.0466
  117OSM    H8F12305   4.187   5.363   7.430  1.1411 -0.6238 -1.0887
  117OSM    H8G12306   4.120   5.510   7.505  0.2229  2.6524 -1.0760
  117OSM    C9F12307   4.306   5.549   7.396 -0.0201 -0.0047 -0.0849
  117OSM    H9F12308   4.367   5.524   7.308  0.2496  1.5351 -0.3759
  117OSM   C10F12309   4.348   5.654   7.468  0.2273 -0.4927 -0.1383
  117OSM   H10F12310   4.450   5.693   7.456 -0.4277  2.4309  2.3986
  117OSM   C11F12311   4.270   5.724   7.580 -0.0108 -0.1043  0.0407
  117OSM   H11F12312   4.163   5.723   7.548  0.1380  0.8186 -0.5094
  117OSM   H11G12313   4.296   5.831   7.589 -0.8959  0.0620  0.7575
  117OSM   C12F12314   4.282   5.657   7.711 -0.0974  0.1640 -0.5196
  117OSM   H12F12315   4.390   5.649   7.738  0.4996 -0.0965 -2.7815
  117OSM   H12G12316   4.240   5.554   7.709 -3.0665  1.3101 -0.8071
  117OSM   C13F12317   4.205   5.733   7.823  0.5817 -0.3406 -0.7416
  117OSM   H13F12318   4.113   5.777   7.778  0.6606  0.9524  0.3164
  117OSM   H13G12319   4.270   5.820   7.845  0.8159 -0.6153 -0.3546
  117OSM   C14F12320   4.167   5.652   7.949 -0.2035  0.7453 -0.3863
  117OSM   H14F12321   4.248   5.631   8.023  0.2177  0.6657 -0.8663
  117OSM   H14G12322   4.128   5.561   7.898  0.8008  0.4269 -0.6153
  117OSM   C15F12323   4.052   5.707   8.032  0.4966  0.1610  1.3394
  117OSM   H15F12324   3.960   5.704   7.969  1.4185  0.3347 -0.0482
  117OSM   H15G12325   4.073   5.813   8.057 -1.7283  0.6401  1.4374
  117OSM   C16F12326   4.041   5.616   8.162 -0.2488 -0.2010 -0.0487
  117OSM   H16F12327   4.141   5.616   8.212 -0.5887 -2.3426  0.7398
  117OSM   H16G12328   4.016   5.513   8.129 -0.5764 -0.3007  0.4982
  117OSM   C17F12329   3.920   5.662   8.253 -0.5442 -0.1581 -0.5390
  117OSM   H17F12330   3.931   5.766   8.290 -1.0004 -0.7874  1.4965
  117OSM   H17G12331   3.833   5.666   8.184 -0.8646 -0.5318 -0.1604
  117OSM   C18F12332   3.890   5.572   8.376 -0.1914  0.1036 -0.2276
  117OSM   H18F12333   3.947   5.609   8.464 -0.7913  0.9434 -0.1800
  117OSM   H18G12334   3.898   5.464   8.355  1.5749  0.2161 -0.2458
  117OSM   H18H12335   3.786   5.598   8.405 -0.4045 -0.7787 -0.1738
  118OSM      N12336   3.160   2.192   5.973 -0.1536 -0.4387  0.3027
  118OSM    C1512337   3.187   2.255   6.106  0.2137 -0.3862  0.1042
  118OSM   H15A12338   3.162   2.360   6.104  1.0724 -0.1893 -1.5334
  118OSM   H15B12339   3.290   2.236   6.132  0.4623  1.7962  0.9299
  118OSM   H15C12340   3.122   2.200   6.173  0.2421 -0.2059  0.2817
  118OSM    C1412341   3.268   2.225   5.875 -0.6772  0.0423 -0.2368
  118OSM   H14A12342   3.274   2.332   5.860 -1.7721 -0.0575 -1.5969
  118OSM   H14B12343   3.260   2.167   5.785 -1.8136 -0.2930  0.0499
  118OSM   H14C12344   3.359   2.192   5.922 -0.8485 -0.2945 -0.1437
  118OSM    C1312345   3.161   2.044   5.992 -0.9467 -0.0377  0.6832
  118OSM   H13A12346   3.093   2.011   6.070 -0.4351 -2.1810  0.2992
  118OSM   H13B12347   3.261   2.024   6.029  0.7205 -0.5736 -3.5960
  118OSM   H13C12348   3.146   1.988   5.901 -0.2283  0.1245  0.4606
  118OSM    C1212349   3.024   2.235   5.924  0.1300 -0.0555 -1.4639
  118OSM   H12A12350   3.005   2.186   5.830  0.2029 -1.8585 -0.5915
  118OSM   H12B12351   3.030   2.342   5.909  0.5263 -0.0491 -1.2799
  118OSM    C1112352   2.900   2.204   6.014 -0.1490 -0.2925  0.1504
  118OSM   H11A12353   2.809   2.257   5.980 -0.2782 -1.0107 -0.6672
  118OSM   H11B12354   2.926   2.246   6.114 -1.2010 -0.7291  0.6206
  118OSM      P12355   2.773   2.021   6.126  0.5629 -0.2950  0.4157
  118OSM    O1312356   2.648   2.088   6.070  0.3658  0.3243 -0.1126
  118OSM    O1412357   2.779   1.873   6.120  0.1517  0.1908 -0.3833
  118OSM    O1112358   2.807   2.081   6.264  0.3028  0.0316 -0.3052
  118OSM    O1212359   2.878   2.064   6.019 -0.0092  0.1462 -0.5325
  118OSM    C1S12360   2.932   2.044   6.321  0.5531 -0.5653  0.0394
  118OSM    H1S12361   3.010   2.101   6.267 -0.0369  1.3094  1.0709
  118OSM    H1T12362   2.962   1.938   6.311 -0.7180 -0.9095 -0.4156
  118OSM     NF12363   3.080   2.132   6.498  0.0542 -0.5916 -0.5148
  118OSM    HNF12364   3.133   2.062   6.546 -1.0077  0.0232  1.7052
  118OSM    C2S12365   2.938   2.100   6.461 -1.0619 -1.0683 -0.1886
  118OSM    H2S12366   2.878   2.193   6.457 -0.5485 -0.7620 -0.8031
  118OSM    C3S12367   2.860   1.996   6.556 -0.8536 -0.6066  0.6395
  118OSM    H3S12368   2.906   1.896   6.538 -0.4804 -0.8257  2.6600
  118OSM     O312369   2.726   1.979   6.520  0.0932  0.1494  0.3687
  118OSM    HO312370   2.717   2.027   6.437  2.1218 -0.8911 -0.5471
  118OSM    C4S12371   2.870   2.034   6.696 -0.6938 -0.4079 -0.6046
  118OSM    H4S12372   2.812   2.123   6.724  1.0328  0.2318  1.1317
  118OSM    C5S12373   2.917   1.953   6.794  0.2448 -0.6891  0.5837
  118OSM    H5S12374   2.954   1.852   6.774 -1.7314 -1.1582 -1.0846
  118OSM    C6S12375   2.913   1.986   6.942 -0.8822  0.3326  0.6837
  118OSM    H6S12376   2.874   1.897   6.996  0.9243 -1.6483 -1.0964
  118OSM    H6T12377   2.847   2.073   6.964 -0.1774  1.2169 -0.6036
  118OSM    C7S12378   3.050   2.023   7.001 -0.2581 -0.2123  0.4965
  118OSM    H7S12379   3.086   2.117   6.956 -1.8671 -0.2713 -0.9918
  118OSM    H7T12380   3.124   1.945   6.973 -0.0285 -0.2413  1.1608
  118OSM    C8S12381   3.051   2.064   7.147 -0.1776 -0.6108 -0.1700
  118OSM    H8S12382   2.990   1.999   7.215  0.0452  0.9412  1.5901
  118OSM    H8T12383   3.011   2.166   7.164 -1.3720 -1.0544 -0.2021
  118OSM    C9S12384   3.194   2.065   7.203  0.0562 -0.3760 -0.1426
  118OSM    H9S12385   3.266   2.102   7.127  1.9240 -3.1763  0.1489
  118OSM    H9T12386   3.234   1.963   7.218  2.2082  0.6589  1.8915
  118OSM   C10S12387   3.220   2.132   7.346 -0.4508  0.0752 -0.1792
  118OSM   H10S12388   3.197   2.240   7.339 -0.5500  0.0254 -0.6670
  118OSM   H10T12389   3.329   2.125   7.363 -0.4650  1.8638  0.7673
  118OSM   C11S12390   3.138   2.066   7.451 -0.0155  0.0545 -0.2011
  118OSM   H11S12391   3.144   1.955   7.451 -0.2106  0.0413 -0.8490
  118OSM   H11T12392   3.030   2.085   7.436 -0.7056 -3.1569 -0.0651
  118OSM   C12S12393   3.185   2.104   7.594  0.2530 -0.2682 -0.2335
  118OSM   H12S12394   3.171   2.209   7.627 -0.0672 -0.7939  1.4118
  118OSM   H12T12395   3.295   2.089   7.598  0.6635  1.8825 -1.5038
  118OSM   C13S12396   3.098   2.027   7.700 -0.2410 -0.2769  0.0026
  118OSM   H13S12397   3.114   1.918   7.693 -2.8000 -0.6503 -0.7454
  118OSM   H13T12398   2.989   2.031   7.683 -0.2929 -2.2292 -0.3385
  118OSM   C14S12399   3.132   2.079   7.848  0.1674  0.5203 -0.1930
  118OSM   H14S12400   3.069   2.028   7.924  0.1314  1.9000  0.7317
  118OSM   H14T12401   3.092   2.183   7.848  1.0290  0.8638  1.1042
  118OSM   C15S12402   3.282   2.077   7.894  0.7697  0.0187 -0.1383
  118OSM   H15S12403   3.334   2.126   7.809 -0.2372  0.8403 -0.3030
  118OSM   H15T12404   3.323   1.976   7.919 -1.1920 -0.3258  1.9455
  118OSM   C16S12405   3.294   2.165   8.017 -0.2224  0.2694  0.2925
  118OSM   H16S12406   3.235   2.258   7.998  1.7719  1.1436 -2.2070
  118OSM   H16T12407   3.403   2.186   8.013 -0.2980  0.4950 -1.3073
  118OSM   C17S12408   3.258   2.107   8.151  0.4780 -0.2004 -0.2269
  118OSM   H17S12409   3.303   2.006   8.162  1.1176  0.0850 -0.1643
  118OSM   H17T12410   3.148   2.102   8.159  0.5020 -1.3336 -0.4303
  118OSM   C18S12411   3.318   2.191   8.269 -0.8721 -0.1523  0.0203
  118OSM   H18S12412   3.288   2.144   8.365 -2.0363 -1.1271 -0.7882
  118OSM   H18T12413   3.292   2.299   8.273 -0.3383  0.4815 -5.5683
  118OSM   H18U12414   3.429   2.193   8.264 -0.6808  3.4117  1.9808
  118OSM    C1F12415   3.138   2.249   6.457  0.4378  1.1465 -0.0633
  118OSM     OF12416   3.083   2.322   6.377  0.3877 -0.2997  0.0874
  118OSM    C2F12417   3.272   2.285   6.498 -0.4792  0.1769 -0.3593
  118OSM    H2F12418   3.349   2.277   6.418  0.4440  0.4911  0.4860
  118OSM    H2G12419   3.306   2.227   6.586 -0.3390  1.4447  0.4409
  118OSM    C3F12420   3.273   2.429   6.544  0.3994  0.4349  0.0135
  118OSM    H3F12421   3.296   2.487   6.452  1.4903  0.4008  0.2603
  118OSM    H3G12422   3.365   2.447   6.603  1.8821 -2.0060 -1.3993
  118OSM    C4F12423   3.162   2.490   6.633  0.5812  0.0893 -1.0639
  118OSM    H4F12424   3.065   2.498   6.579  0.3417  1.9813 -0.4350
  118OSM    H4G12425   3.183   2.597   6.656 -1.7337  0.2167  0.8720
  118OSM    C5F12426   3.132   2.415   6.770  0.3107  0.3077 -0.3970
  118OSM    H5F12427   3.226   2.401   6.827  0.4647 -1.3019 -0.9929
  118OSM    H5G12428   3.085   2.314   6.764  0.0531  0.2518  1.7763
  118OSM    C6F12429   3.028   2.493   6.858 -0.0399  0.1155  0.2579
  118OSM    H6F12430   2.937   2.519   6.802  0.4840 -1.3777 -1.4015
  118OSM    H6G12431   3.064   2.580   6.917  0.5444 -0.5867  0.9627
  118OSM    C7F12432   2.974   2.386   6.962 -0.3703  0.0977  0.1521
  118OSM    H7F12433   3.064   2.341   7.009  1.6379 -0.9012 -4.1381
  118OSM    H7G12434   2.925   2.302   6.909 -0.2503  0.9481 -1.3643
  118OSM    C8F12435   2.880   2.452   7.068  0.7905 -0.0042 -1.0867
  118OSM    H8F12436   2.807   2.377   7.107  0.8039  0.5271  0.0084
  118OSM    H8G12437   2.814   2.530   7.024  0.5873  1.0361  0.9370
  118OSM    C9F12438   2.954   2.502   7.191 -0.0845 -0.2476 -0.3489
  118OSM    H9F12439   3.018   2.591   7.175 -1.4809  1.2851  1.9078
  118OSM   C10F12440   2.953   2.464   7.322  0.6665 -0.2587  0.2208
  118OSM   H10F12441   3.013   2.510   7.402 -0.4079 -0.2205  1.0238
  118OSM   C11F12442   2.871   2.356   7.382  0.0335  0.5358 -0.0870
  118OSM   H11F12443   2.878   2.265   7.318  1.6064  1.3274 -1.0886
  118OSM   H11G12444   2.764   2.386   7.388  0.0414  0.3080  2.0638
  118OSM   C12F12445   2.915   2.341   7.523 -0.7152  0.1211 -0.7126
  118OSM   H12F12446   3.025   2.330   7.534 -0.9414 -2.5583 -0.6452
  118OSM   H12G12447   2.866   2.251   7.565 -0.9784 -0.5715 -2.4406
  118OSM   C13F12448   2.879   2.460   7.620 -0.1992  1.0417 -0.0626
  118OSM   H13F12449   2.775   2.489   7.593 -0.6283  0.1435  0.5631
  118OSM   H13G12450   2.953   2.540   7.600  0.3068  1.2354  2.2710
  118OSM   C14F12451   2.864   2.407   7.766 -0.3186 -0.6546  0.1188
  118OSM   H14F12452   2.954   2.353   7.804 -0.1804  0.8446  2.0386
  118OSM   H14G12453   2.781   2.333   7.761 -0.6196 -0.3349  0.3393
  118OSM   C15F12454   2.832   2.520   7.866 -0.7715  0.5052 -0.7794
  118OSM   H15F12455   2.745   2.576   7.827 -0.9881 -1.2967 -3.1617
  118OSM   H15G12456   2.914   2.594   7.866  2.2273 -2.5461 -1.2840
  118OSM   C16F12457   2.803   2.467   8.008 -0.3337 -0.0705  0.1824
  118OSM   H16F12458   2.889   2.407   8.044 -1.4128 -1.3315  0.7132
  118OSM   H16G12459   2.718   2.396   8.006  1.9212 -3.0320  1.8468
  118OSM   C17F12460   2.783   2.573   8.119  0.2786  0.4355  0.8393
  118OSM   H17F12461   2.698   2.638   8.089  0.1215 -1.0615 -2.3186
  118OSM   H17G12462   2.869   2.643   8.111 -0.7852  1.6397 -0.5171
  118OSM   C18F12463   2.761   2.522   8.260 -0.4884 -0.1742 -1.2931
  118OSM   H18F12464   2.698   2.433   8.281 -0.4456  0.2525  1.0037
  118OSM   H18G12465   2.726   2.600   8.332 -1.2441 -0.3159 -1.5017
  118OSM   H18H12466   2.856   2.488   8.307 -2.0914  1.2227  3.6243
  119OSM      N12467   4.697   0.767   5.661  0.7268  0.2983 -0.3116
  119OSM    C1512468   4.692   0.628   5.606  0.0843 -0.0548  0.5248
  119OSM   H15A12469   4.780   0.615   5.546 -0.2930 -0.4400  0.0472
  119OSM   H15B12470   4.609   0.609   5.540  1.4023 -1.9472 -0.6776
  119OSM   H15C12471   4.690   0.561   5.691 -3.2563  0.4631  1.0220
  119OSM    C1412472   4.830   0.780   5.734  0.8259 -0.2469 -0.0510
  119OSM   H14A12473   4.917   0.765   5.671  1.2784  0.8043  0.3169
  119OSM   H14B12474   4.834   0.710   5.816 -0.4475  1.4337  1.5383
  119OSM   H14C12475   4.835   0.877   5.780 -1.8473 -1.0730  2.2528
  119OSM    C1312476   4.690   0.856   5.541  0.1596  0.3339  0.6044
  119OSM   H13A12477   4.745   0.822   5.455 -2.1812  1.1213 -1.3224
  119OSM   H13B12478   4.732   0.955   5.555  0.4956  0.1672  0.7825
  119OSM   H13C12479   4.587   0.863   5.511 -0.5284  0.8653  2.8738
  119OSM    C1212480   4.589   0.803   5.757  0.2790  0.0391  0.1545
  119OSM   H12A12481   4.506   0.763   5.701  0.1047 -2.2664  1.9219
  119OSM   H12B12482   4.580   0.910   5.767 -1.3419 -0.1078  0.7265
  119OSM    C1112483   4.584   0.743   5.894  0.1469  0.4268 -0.4604
  119OSM   H11A12484   4.488   0.770   5.942  1.4484  1.2099  1.9042
  119OSM   H11B12485   4.667   0.797   5.945  0.5425  2.0771 -2.6883
  119OSM      P12486   4.698   0.540   6.019  0.0839 -0.2429 -0.2610
  119OSM    O1312487   4.682   0.391   6.011 -0.4920  0.4450  0.0413
  119OSM    O1412488   4.833   0.596   6.023  0.0156 -0.3800  0.4140
  119OSM    O1112489   4.605   0.601   6.140 -0.1315 -0.1214  0.3844
  119OSM    O1212490   4.607   0.607   5.900 -0.1339  0.4427 -0.1976
  119OSM    C1S12491   4.580   0.521   6.251  0.6046 -0.1668 -0.5963
  119OSM    H1S12492   4.670   0.462   6.276  0.6986 -0.5081 -1.7069
  119OSM    H1T12493   4.502   0.444   6.230  0.4322 -0.0039 -0.5533
  119OSM     NF12494   4.536   0.511   6.485  0.1777 -0.4822  0.4053
  119OSM    HNF12495   4.464   0.443   6.496  1.0242 -1.3848  0.4308
  119OSM    C2S12496   4.525   0.601   6.370 -0.2342  0.2152 -0.0122
  119OSM    H2S12497   4.592   0.689   6.382 -0.2670  0.4371 -1.2899
  119OSM    C3S12498   4.385   0.652   6.337  0.0817 -0.0194 -0.2219
  119OSM    H3S12499   4.312   0.571   6.313 -0.9720  1.1044 -0.9448
  119OSM     O312500   4.389   0.734   6.224 -0.4645 -0.3965  0.1954
  119OSM    HO312501   4.452   0.688   6.167 -0.0668  0.4271 -0.0453
  119OSM    C4S12502   4.341   0.734   6.453 -0.5514  0.1416  0.2466
  119OSM    H4S12503   4.366   0.841   6.440  0.5938 -0.1576 -0.1594
  119OSM    C5S12504   4.271   0.688   6.553 -0.6338 -0.2981  0.0761
  119OSM    H5S12505   4.248   0.581   6.553 -1.6760 -0.0784 -0.3893
  119OSM    C6S12506   4.228   0.766   6.672 -0.2709 -0.8130  0.0209
  119OSM    H6S12507   4.118   0.781   6.668 -0.0218  1.0523 -0.8446
  119OSM    H6T12508   4.280   0.864   6.670 -1.8712  0.0469 -0.2386
  119OSM    C7S12509   4.259   0.683   6.801 -0.4032 -0.2019 -0.1377
  119OSM    H7S12510   4.361   0.639   6.796  0.2144  1.2509 -1.1538
  119OSM    H7T12511   4.189   0.599   6.819 -0.0842 -0.3288  0.5389
  119OSM    C8S12512   4.242   0.778   6.927 -0.0334 -0.2879 -0.4296
  119OSM    H8S12513   4.140   0.820   6.925 -0.6622 -1.7399  0.2580
  119OSM    H8T12514   4.314   0.861   6.913  1.7488 -1.4687  1.1452
  119OSM    C9S12515   4.277   0.711   7.057  0.5980  0.2262  0.2584
  119OSM    H9S12516   4.378   0.669   7.043  0.4564 -0.4191  1.1423
  119OSM    H9T12517   4.196   0.640   7.084  0.0476  1.0574  0.8445
  119OSM   C10S12518   4.262   0.794   7.181 -0.3832 -0.0202  0.6265
  119OSM   H10S12519   4.158   0.831   7.194  0.4516  2.5449  0.5213
  119OSM   H10T12520   4.322   0.886   7.168  0.2495 -0.3732  1.0219
  119OSM   C11S12521   4.296   0.712   7.301 -0.2256  0.4142 -0.5050
  119OSM   H11S12522   4.403   0.683   7.297 -0.5595 -0.7698 -1.1984
  119OSM   H11T12523   4.244   0.614   7.304  1.3522 -0.4498 -0.3681
  119OSM   C12S12524   4.263   0.794   7.429  0.5222 -0.3870 -0.5442
  119OSM   H12S12525   4.165   0.845   7.431  0.2898 -0.6580 -2.5732
  119OSM   H12T12526   4.318   0.890   7.425  0.5616 -0.3158  1.1479
  119OSM   C13S12527   4.294   0.719   7.562 -0.3045 -0.5203 -0.0728
  119OSM   H13S12528   4.399   0.684   7.567 -0.3039 -0.3725  1.2900
  119OSM   H13T12529   4.217   0.640   7.553 -0.8585  0.1794 -2.3558
  119OSM   C14S12530   4.269   0.814   7.680 -0.3967 -0.8804  0.5902
  119OSM   H14S12531   4.166   0.853   7.675 -0.6057 -1.4916 -0.0625
  119OSM   H14T12532   4.329   0.907   7.676 -0.5724 -0.7458  1.0793
  119OSM   C15S12533   4.306   0.747   7.818  0.3644  0.0666 -0.3274
  119OSM   H15S12534   4.411   0.711   7.821  1.3962  2.8190 -0.5449
  119OSM   H15T12535   4.236   0.662   7.833 -0.8094  1.2553  1.2871
  119OSM   C16S12536   4.291   0.845   7.932 -0.1101  0.1195  0.4008
  119OSM   H16S12537   4.197   0.902   7.917 -0.1638  0.0662  0.5316
  119OSM   H16T12538   4.376   0.917   7.939  1.0627 -1.2225  0.5240
  119OSM   C17S12539   4.294   0.778   8.069 -0.0703 -0.0618  1.4269
  119OSM   H17S12540   4.397   0.748   8.098 -0.7209 -1.2602  2.6024
  119OSM   H17T12541   4.240   0.683   8.050 -2.0235  1.2965 -0.2456
  119OSM   C18S12542   4.222   0.858   8.178 -0.5596 -0.4917 -0.7463
  119OSM   H18S12543   4.203   0.792   8.266 -0.5633 -1.2850 -1.3275
  119OSM   H18T12544   4.125   0.892   8.135 -0.8457 -1.0799 -0.5848
  119OSM   H18U12545   4.280   0.943   8.220 -0.4917 -1.3002  0.9042
  119OSM    C1F12546   4.653   0.483   6.538  0.2780 -0.1226 -0.3086
  119OSM     OF12547   4.758   0.541   6.508 -0.4033 -0.4126  0.4880
  119OSM    C2F12548   4.647   0.379   6.644 -0.2807  0.6833  0.9297
  119OSM    H2F12549   4.611   0.289   6.590  1.8559  0.5848 -0.4851
  119OSM    H2G12550   4.582   0.406   6.729 -0.5450  0.5430  0.7715
  119OSM    C3F12551   4.787   0.349   6.695 -0.1483 -0.0955  0.3805
  119OSM    H3F12552   4.840   0.440   6.730 -2.5936  1.7424 -0.3774
  119OSM    H3G12553   4.860   0.327   6.615 -0.6304 -1.3182  0.2471
  119OSM    C4F12554   4.787   0.246   6.809 -0.3318  0.6528  0.0639
  119OSM    H4F12555   4.892   0.237   6.843 -0.1900  0.4560 -0.4128
  119OSM    H4G12556   4.747   0.154   6.760  0.6111  1.8026 -3.1307
  119OSM    C5F12557   4.696   0.285   6.925  0.3158  0.0119 -0.0715
  119OSM    H5F12558   4.724   0.215   7.007  2.6583 -0.9209 -1.5974
  119OSM    H5G12559   4.590   0.270   6.895  0.5167 -1.7879  0.0338
  119OSM    C6F12560   4.717   0.429   6.979  0.0879  0.5894 -0.2028
  119OSM    H6F12561   4.723   0.496   6.891  1.8035  0.7269 -0.0076
  119OSM    H6G12562   4.823   0.432   7.010  0.7559  1.2809 -2.3542
  119OSM    C7F12563   4.622   0.467   7.097 -0.0004  0.5611  0.5771
  119OSM    H7F12564   4.518   0.449   7.064 -0.3450  0.1809  1.8084
  119OSM    H7G12565   4.630   0.576   7.119 -1.0240  1.2659 -2.1474
  119OSM    C8F12566   4.647   0.384   7.228  0.4549  0.3389 -0.5431
  119OSM    H8F12567   4.751   0.405   7.263 -0.3754  1.6398  1.3525
  119OSM    H8G12568   4.632   0.277   7.204  0.4834  0.2906 -0.3519
  119OSM    C9F12569   4.560   0.440   7.336 -0.5765  0.4263 -0.0506
  119OSM    H9F12570   4.474   0.486   7.286 -0.5505  0.6237  0.0861
  119OSM   C10F12571   4.589   0.453   7.468  0.3587 -0.5086 -0.0755
  119OSM   H10F12572   4.519   0.498   7.539 -0.0308  1.0865 -1.4034
  119OSM   C11F12573   4.719   0.422   7.534 -0.1819  0.3527  0.9780
  119OSM   H11F12574   4.797   0.495   7.504 -1.4148  1.1413 -0.4923
  119OSM   H11G12575   4.757   0.324   7.496  0.4998  1.1974 -0.6078
  119OSM   C12F12576   4.721   0.419   7.693  0.1612  0.4223 -0.4437
  119OSM   H12F12577   4.714   0.526   7.721  2.0946  0.5579 -0.3439
  119OSM   H12G12578   4.819   0.377   7.723 -0.8414 -0.3755  1.9235
  119OSM   C13F12579   4.597   0.346   7.760 -0.5810  0.2673  0.0694
  119OSM   H13F12580   4.561   0.262   7.697 -3.2019  2.5538 -1.7389
  119OSM   H13G12581   4.511   0.417   7.765 -3.0969 -2.4642 -1.3186
  119OSM   C14F12582   4.629   0.294   7.909  0.0177  0.5067  0.6994
  119OSM   H14F12583   4.706   0.214   7.900 -0.6972 -0.6235  3.5062
  119OSM   H14G12584   4.543   0.242   7.955  0.6725 -0.5463  0.7774
  119OSM   C15F12585   4.686   0.410   8.001 -0.1367  0.5254  0.4198
  119OSM   H15F12586   4.621   0.493   8.036 -1.2326 -0.0463 -0.2320
  119OSM   H15G12587   4.772   0.467   7.959 -0.3615  0.6768  0.1610
  119OSM   C16F12588   4.731   0.332   8.130  0.2506  0.5000 -0.1488
  119OSM   H16F12589   4.815   0.273   8.087 -0.5740  0.0200 -1.1447
  119OSM   H16G12590   4.653   0.262   8.167  3.3477 -1.5548  3.0760
  119OSM   C17F12591   4.785   0.422   8.242 -0.3637  0.3422  0.1485
  119OSM   H17F12592   4.699   0.463   8.299 -0.3237 -0.7537  1.0166
  119OSM   H17G12593   4.841   0.503   8.190  1.5208 -0.4285  0.9177
  119OSM   C18F12594   4.886   0.362   8.334  0.6684 -0.7765 -0.8195
  119OSM   H18F12595   4.844   0.270   8.382  0.4316 -1.0498 -1.5453
  119OSM   H18G12596   4.902   0.433   8.418 -5.8327  2.1556 -1.4140
  119OSM   H18H12597   4.977   0.340   8.275  0.4418 -1.0344 -1.0797
  120OSM      N12598   6.807   6.819   6.272  0.0975  0.3829 -0.3596
  120OSM    C1512599   6.816   6.692   6.353  0.1830 -0.1264 -1.0088
  120OSM   H15A12600   6.778   6.693   6.454  2.4105 -1.2960 -0.0732
  120OSM   H15B12601   6.918   6.657   6.363 -0.6391 -3.2108 -2.2781
  120OSM   H15C12602   6.772   6.608   6.302 -0.9635 -0.1269 -0.0395
  120OSM    C1412603   6.895   6.807   6.147  0.4381  0.5195  0.5834
  120OSM   H14A12604   6.884   6.901   6.095 -1.7329 -0.4891 -0.8766
  120OSM   H14B12605   6.869   6.733   6.074  1.9426  2.0441 -1.6264
  120OSM   H14C12606   6.999   6.800   6.176  1.2302  0.0309 -2.1157
  120OSM    C1312607   6.664   6.842   6.225 -0.5825  0.7032  0.3139
  120OSM   H13A12608   6.614   6.755   6.184 -1.4608  1.1514  0.4084
  120OSM   H13B12609   6.667   6.920   6.150 -0.6887  1.4145  1.0347
  120OSM   H13C12610   6.613   6.865   6.317  0.4391  0.2938  0.9983
  120OSM    C1212611   6.859   6.930   6.360  0.1169 -0.0201 -0.4930
  120OSM   H12A12612   6.854   7.018   6.298 -5.0255 -0.4505 -1.0558
  120OSM   H12B12613   6.960   6.898   6.382  0.5792  1.4770 -0.3050
  120OSM    C1112614   6.768   6.967   6.483  0.2093 -0.1862  0.0628
  120OSM   H11A12615   6.814   7.034   6.558 -2.2557  1.8069 -0.0433
  120OSM   H11B12616   6.735   6.872   6.531  0.0255  0.3350  0.9807
  120OSM      P12617   6.627   7.171   6.387  0.1245 -0.5285  0.1100
  120OSM    O1312618   6.746   7.213   6.319  0.0217  0.0676  0.0500
  120OSM    O1412619   6.493   7.171   6.317 -0.3878 -0.0359  0.3475
  120OSM    O1112620   6.631   7.270   6.512 -0.3201  0.2669  0.3805
  120OSM    O1212621   6.648   7.029   6.446  0.4571 -0.0106 -0.5350
  120OSM    C1S12622   6.590   7.228   6.644 -0.3746  0.2877  0.3277
  120OSM    H1S12623   6.656   7.147   6.683  0.8716  0.6717 -0.9047
  120OSM    H1T12624   6.483   7.200   6.647 -0.6379  1.3145  0.9634
  120OSM     NF12625   6.603   7.314   6.898  0.5923  0.5138  0.5850
  120OSM    HNF12626   6.514   7.325   6.940 -0.4246  0.0776 -1.3697
  120OSM    C2S12627   6.613   7.346   6.750  0.0572 -0.3709  0.3607
  120OSM    H2S12628   6.713   7.388   6.730 -0.4362  0.0475 -1.3310
  120OSM    C3S12629   6.521   7.471   6.711  0.1278  0.9659  0.5743
  120OSM    H3S12630   6.417   7.433   6.717  0.4117 -0.5998 -2.4873
  120OSM     O312631   6.544   7.523   6.583 -0.0459  0.2189 -0.8228
  120OSM    HO312632   6.601   7.457   6.543  2.3263  0.8693  1.2122
  120OSM    C4S12633   6.548   7.585   6.805  0.5423  0.1077 -0.0551
  120OSM    H4S12634   6.646   7.633   6.789  0.5402 -0.1335 -0.8028
  120OSM    C5S12635   6.466   7.644   6.898 -0.5683  0.3512 -0.5045
  120OSM    H5S12636   6.375   7.587   6.919 -0.1008 -0.0230  0.5785
  120OSM    C6S12637   6.485   7.756   6.989  0.4465 -0.2369  0.3954
  120OSM    H6S12638   6.382   7.789   7.018 -1.2341 -2.3284 -2.5784
  120OSM    H6T12639   6.528   7.842   6.934 -2.6749  0.9563 -0.4485
  120OSM    C7S12640   6.569   7.716   7.116 -0.1153  0.7236 -0.5391
  120OSM    H7S12641   6.591   7.811   7.169  3.3881  0.2159 -0.8515
  120OSM    H7T12642   6.665   7.671   7.083 -0.5559  0.3443 -1.3391
  120OSM    C8S12643   6.498   7.626   7.219 -0.3376  0.1662  0.2397
  120OSM    H8S12644   6.536   7.522   7.228  2.1014  0.8677 -1.1790
  120OSM    H8T12645   6.388   7.634   7.204 -0.3910 -2.1996 -1.0597
  120OSM    C9S12646   6.527   7.680   7.361 -0.4006 -0.3698 -0.3998
  120OSM    H9S12647   6.506   7.789   7.363  0.1789 -0.2111  2.9574
  120OSM    H9T12648   6.633   7.663   7.391 -0.2741 -1.1224 -1.2373
  120OSM   C10S12649   6.438   7.613   7.468 -0.9117  0.2599  0.4539
  120OSM   H10S12650   6.461   7.505   7.461 -0.1525  0.4587 -0.4071
  120OSM   H10T12651   6.338   7.641   7.430 -0.4740 -1.2139 -1.9935
  120OSM   C11S12652   6.473   7.659   7.606 -0.3274 -0.5371 -0.0776
  120OSM   H11S12653   6.477   7.770   7.596  0.9384 -0.3703  1.7628
  120OSM   H11T12654   6.579   7.632   7.625  0.6964  2.0062 -1.6325
  120OSM   C12S12655   6.379   7.621   7.724 -0.0173  1.0097  0.2178
  120OSM   H12S12656   6.384   7.510   7.729 -0.2487  1.0327  1.3514
  120OSM   H12T12657   6.273   7.647   7.706 -0.5894  1.2122  3.2638
  120OSM   C13S12658   6.421   7.677   7.861  0.9819  1.8303 -0.1768
  120OSM   H13S12659   6.395   7.784   7.872 -0.1709  1.3573  2.4915
  120OSM   H13T12660   6.527   7.664   7.891  0.3534 -1.1252  1.1753
  120OSM   C14S12661   6.331   7.614   7.962 -0.2490  0.1889  0.2157
  120OSM   H14S12662   6.325   7.504   7.957  1.4148  0.1228 -1.8126
  120OSM   H14T12663   6.229   7.646   7.932 -0.8031 -0.2643  1.5371
  120OSM   C15S12664   6.342   7.673   8.107 -0.9888  0.2240 -0.6733
  120OSM   H15S12665   6.380   7.775   8.083 -1.2722  0.0585 -1.8730
  120OSM   H15T12666   6.422   7.619   8.162 -1.3734 -0.3105 -0.6371
  120OSM   C16S12667   6.208   7.680   8.190  0.1543  0.3509 -0.3818
  120OSM   H16S12668   6.174   7.586   8.238  2.1305  0.1067  0.6554
  120OSM   H16T12669   6.139   7.708   8.108 -1.0573  2.1588  1.1851
  120OSM   C17S12670   6.210   7.791   8.291 -0.1556  0.7612 -0.4152
  120OSM   H17S12671   6.281   7.869   8.255  0.8089 -0.1409 -0.5042
  120OSM   H17T12672   6.260   7.761   8.385  1.1451  1.3241 -0.9031
  120OSM   C18S12673   6.073   7.847   8.315 -0.6061  0.2795 -0.6461
  120OSM   H18S12674   6.021   7.874   8.220  0.1103 -0.3043 -1.2184
  120OSM   H18T12675   6.092   7.938   8.377 -0.0538 -0.7343  0.7145
  120OSM   H18U12676   6.013   7.779   8.379  0.8456 -0.7832 -0.3719
  120OSM    C1F12677   6.698   7.242   6.960 -0.0899  0.0877  0.2367
  120OSM     OF12678   6.797   7.200   6.901 -0.0648 -0.6404  0.1981
  120OSM    C2F12679   6.667   7.198   7.106 -0.2377  0.9947  0.4658
  120OSM    H2F12680   6.604   7.109   7.086 -0.3993  1.2205 -0.0645
  120OSM    H2G12681   6.611   7.281   7.154 -0.1412  2.4580 -1.7761
  120OSM    C3F12682   6.786   7.159   7.196  0.0324 -0.0577  0.4959
  120OSM    H3F12683   6.839   7.249   7.232 -1.8664  0.4762  2.0818
  120OSM    H3G12684   6.845   7.090   7.131 -0.5386  2.1763 -2.6582
  120OSM    C4F12685   6.736   7.092   7.323  0.0504  0.6651  0.8275
  120OSM    H4F12686   6.818   7.031   7.365 -0.2077  0.0110  0.3979
  120OSM    H4G12687   6.654   7.024   7.291  1.4147  0.1944 -1.9921
  120OSM    C5F12688   6.701   7.198   7.438 -0.1052 -0.4882 -0.6037
  120OSM    H5F12689   6.622   7.261   7.392  0.4973 -0.2153 -1.2796
  120OSM    H5G12690   6.789   7.256   7.474  0.8756 -1.2715 -1.6773
  120OSM    C6F12691   6.638   7.130   7.561  0.4919 -0.1276 -0.4524
  120OSM    H6F12692   6.705   7.054   7.608 -1.0811 -0.5228  1.2587
  120OSM    H6G12693   6.552   7.073   7.521 -1.5529  3.1420 -1.0708
  120OSM    C7F12694   6.591   7.220   7.679  0.4720  0.6727  0.0025
  120OSM    H7F12695   6.524   7.163   7.747 -0.3037  3.5273  1.8370
  120OSM    H7G12696   6.520   7.293   7.633 -0.6912  0.2253  1.0136
  120OSM    C8F12697   6.697   7.278   7.773  0.0580 -0.4628 -0.2920
  120OSM    H8F12698   6.770   7.339   7.715 -0.7922  0.9184  0.0371
  120OSM    H8G12699   6.755   7.200   7.827  0.4949  0.2576  0.3000
  120OSM    C9F12700   6.629   7.375   7.861 -0.0560  0.2308 -0.7078
  120OSM    H9F12701   6.626   7.478   7.822  3.1371  1.2561  1.3902
  120OSM   C10F12702   6.574   7.356   7.985 -0.5273  0.0399 -0.1953
  120OSM   H10F12703   6.543   7.443   8.045  1.1550 -0.3445  1.3202
  120OSM   C11F12704   6.559   7.230   8.062  0.2885 -0.1635  0.0173
  120OSM   H11F12705   6.618   7.232   8.157  0.1918 -2.2318  0.1786
  120OSM   H11G12706   6.606   7.144   8.009  1.6687  0.8104 -0.4018
  120OSM   C12F12707   6.417   7.193   8.085  1.3788 -0.0095  0.2034
  120OSM   H12F12708   6.415   7.089   8.124  0.8484  0.5121  1.6547
  120OSM   H12G12709   6.375   7.174   7.984  1.9200  0.3871 -0.0987
  120OSM   C13F12710   6.323   7.293   8.165 -0.5962  0.4037  0.0265
  120OSM   H13F12711   6.368   7.395   8.158 -0.0312  0.0553 -2.5905
  120OSM   H13G12712   6.339   7.262   8.270  3.1804  0.5495 -0.3528
  120OSM   C14F12713   6.186   7.295   8.106  0.5642 -0.7107  1.3676
  120OSM   H14F12714   6.196   7.337   8.004 -1.1533 -1.1142  0.9963
  120OSM   H14G12715   6.121   7.370   8.155 -1.4243 -0.2642 -1.7182
  120OSM   C15F12716   6.114   7.165   8.108  0.9669  0.0736 -1.1861
  120OSM   H15F12717   6.170   7.091   8.048  5.1016  1.6020  0.4519
  120OSM   H15G12718   6.017   7.184   8.057  0.8477  0.7400 -0.7222
  120OSM   C16F12719   6.092   7.108   8.245  0.2146  0.2599 -0.1619
  120OSM   H16F12720   6.060   7.191   8.311 -0.6675  1.1948 -1.7103
  120OSM   H16G12721   6.191   7.084   8.292 -0.0763  2.9324  2.0753
  120OSM   C17F12722   5.984   6.992   8.245  0.4228  0.1218 -0.8035
  120OSM   H17F12723   6.019   6.911   8.178 -1.7034 -0.5724 -1.1685
  120OSM   H17G12724   5.887   7.035   8.210 -1.2362 -2.2839  0.5778
  120OSM   C18F12725   5.974   6.942   8.393  0.6155 -0.1879  0.1365
  120OSM   H18F12726   5.912   6.850   8.401 -1.2686  1.1605  2.2105
  120OSM   H18G12727   5.939   7.022   8.462  2.8665  1.6484 -0.7067
  120OSM   H18H12728   6.073   6.913   8.432  0.2100  0.0027  1.3369
  121OSM      N12729   1.979   1.405   6.071  0.2169 -0.1092  0.6243
  121OSM    C1512730   1.903   1.403   5.938  0.1964  0.2900 -0.7488
  121OSM   H15A12731   1.921   1.323   5.868 -0.4990  0.2447 -0.8769
  121OSM   H15B12732   1.916   1.496   5.885 -0.6944  1.4830  1.0090
  121OSM   H15C12733   1.798   1.393   5.958  0.3447 -2.2684 -0.9246
  121OSM    C1412734   1.947   1.530   6.147 -0.3090  0.0322  0.3833
  121OSM   H14A12735   2.009   1.610   6.110  0.7748 -0.0836  1.8703
  121OSM   H14B12736   1.969   1.524   6.252 -0.3449  1.4747  0.4986
  121OSM   H14C12737   1.841   1.550   6.138 -0.6733 -1.0951  1.8727
  121OSM    C1312738   1.931   1.291   6.154  0.2984  0.1237  0.3141
  121OSM   H13A12739   1.975   1.301   6.252  0.1497 -2.0530  0.6569
  121OSM   H13B12740   1.969   1.194   6.123 -0.1324 -0.7179  2.3003
  121OSM   H13C12741   1.824   1.291   6.139  0.5178  0.1228 -1.4587
  121OSM    C1212742   2.123   1.391   6.054 -0.0830  0.2457 -0.7525
  121OSM   H12A12743   2.159   1.463   5.982  1.5707 -1.0030 -1.2472
  121OSM   H12B12744   2.133   1.294   6.007  1.0132  0.4717 -1.0171
  121OSM    C1112745   2.210   1.400   6.181  0.2071  0.4648 -0.2056
  121OSM   H11A12746   2.168   1.362   6.277 -0.3434  0.4287 -0.4567
  121OSM   H11B12747   2.224   1.511   6.183  2.4618  0.2194  0.1092
  121OSM      P12748   2.463   1.406   6.100 -0.3101  0.0513  0.1188
  121OSM    O1312749   2.556   1.299   6.055 -0.2178  0.5770  0.1210
  121OSM    O1412750   2.429   1.515   6.001 -0.5517 -0.2443  0.0758
  121OSM    O1112751   2.517   1.469   6.232  0.4592 -0.0713 -0.0357
  121OSM    O1212752   2.326   1.338   6.146 -0.3610 -0.1506 -0.1130
  121OSM    C1S12753   2.502   1.613   6.252 -0.4260 -0.2078 -0.6198
  121OSM    H1S12754   2.416   1.655   6.195  1.3954  1.8607 -2.0163
  121OSM    H1T12755   2.587   1.656   6.195  0.4371 -1.8024 -0.5950
  121OSM     NF12756   2.507   1.803   6.412  0.1171  0.4610 -0.6290
  121OSM    HNF12757   2.586   1.851   6.449  0.1496 -0.3542  0.3836
  121OSM    C2S12758   2.522   1.658   6.397  0.4782  0.4675  0.1927
  121OSM    H2S12759   2.451   1.610   6.468  0.8707  0.6436  0.7160
  121OSM    C3S12760   2.659   1.613   6.458 -0.0944 -0.5923 -0.3351
  121OSM    H3S12761   2.746   1.659   6.408 -1.3545  0.3828 -1.7280
  121OSM     O312762   2.683   1.474   6.443 -0.4102 -0.2581 -0.1985
  121OSM    HO312763   2.619   1.454   6.374  1.0860  1.0624 -2.0640
  121OSM    C4S12764   2.672   1.651   6.600 -0.7588  0.3411 -0.1566
  121OSM    H4S12765   2.727   1.744   6.621 -0.9690  0.0745  1.7508
  121OSM    C5S12766   2.618   1.594   6.705 -0.2762  0.1479 -0.5846
  121OSM    H5S12767   2.561   1.501   6.694 -1.8810  0.9622  0.4731
  121OSM    C6S12768   2.649   1.659   6.839 -0.6428  0.1390  0.1377
  121OSM    H6S12769   2.553   1.713   6.856 -0.6139  0.2789 -0.1532
  121OSM    H6T12770   2.727   1.737   6.831  0.0664 -0.3964  1.4225
  121OSM    C7S12771   2.677   1.572   6.967  0.3972  1.7699  0.6807
  121OSM    H7S12772   2.764   1.506   6.944 -1.1059 -0.7195  1.6729
  121OSM    H7T12773   2.601   1.491   6.974  2.3374 -0.1688  0.5149
  121OSM    C8S12774   2.699   1.650   7.098 -0.2623 -0.7071 -0.5120
  121OSM    H8S12775   2.620   1.728   7.106  1.0283  0.8771 -2.3172
  121OSM    H8T12776   2.800   1.695   7.102 -0.4808 -0.3151  1.2119
  121OSM    C9S12777   2.666   1.561   7.218  0.4216 -0.6018 -0.3709
  121OSM    H9S12778   2.728   1.470   7.203  3.1405  0.9628  0.5685
  121OSM    H9T12779   2.562   1.523   7.212  1.0186 -2.1768 -1.5842
  121OSM   C10S12780   2.694   1.620   7.351 -0.0478  0.1763 -0.7996
  121OSM   H10S12781   2.626   1.705   7.370  0.6484  0.8954 -1.4670
  121OSM   H10T12782   2.798   1.658   7.359  0.2488 -0.7614  0.0050
  121OSM   C11S12783   2.689   1.528   7.473  0.4345  0.1441 -0.5595
  121OSM   H11S12784   2.731   1.427   7.454 -0.7180 -0.7664  1.4377
  121OSM   H11T12785   2.584   1.501   7.496  0.2639  1.8117  0.8467
  121OSM   C12S12786   2.737   1.583   7.612 -0.2111  0.9410 -0.4184
  121OSM   H12S12787   2.712   1.691   7.616 -1.4156  0.6379  0.6629
  121OSM   H12T12788   2.846   1.571   7.632 -0.0970  5.0967  2.5327
  121OSM   C13S12789   2.659   1.516   7.716 -0.1298 -0.2002  0.2519
  121OSM   H13S12790   2.665   1.406   7.706 -0.0959 -0.3548  1.7191
  121OSM   H13T12791   2.555   1.554   7.709  0.0182  0.0633 -0.5422
  121OSM   C14S12792   2.719   1.550   7.859  0.9847  0.1853  0.0168
  121OSM   H14S12793   2.716   1.657   7.888 -2.1063 -0.2447  1.6410
  121OSM   H14T12794   2.827   1.521   7.855  0.8923 -0.0283 -1.6750
  121OSM   C15S12795   2.661   1.466   7.976  0.4034 -0.5676 -0.5979
  121OSM   H15S12796   2.677   1.356   7.974  1.6849 -0.4326  0.5712
  121OSM   H15T12797   2.554   1.495   7.973  0.4272 -0.5244 -1.0165
  121OSM   C16S12798   2.732   1.492   8.113  0.7463 -0.6048 -0.1658
  121OSM   H16S12799   2.750   1.601   8.119 -2.2095 -0.0589  0.5518
  121OSM   H16T12800   2.819   1.424   8.121  1.0211 -0.0852  2.2620
  121OSM   C17S12801   2.649   1.455   8.240 -0.1094 -0.0198 -0.3047
  121OSM   H17S12802   2.617   1.349   8.248  3.7888 -1.5636 -2.7755
  121OSM   H17T12803   2.559   1.519   8.224 -0.4816 -0.0153  1.5767
  121OSM   C18S12804   2.724   1.494   8.376  0.2528 -0.6729  0.7931
  121OSM   H18S12805   2.650   1.506   8.457 -0.5510 -1.2265  0.1513
  121OSM   H18T12806   2.776   1.592   8.372  1.0790 -1.1208 -2.8351
  121OSM   H18U12807   2.790   1.412   8.411  1.0464 -0.9173 -1.1424
  121OSM    C1F12808   2.403   1.869   6.376  0.4102  0.5722  0.3845
  121OSM     OF12809   2.293   1.815   6.345  0.5475  0.1862 -1.4068
  121OSM    C2F12810   2.428   2.017   6.376 -0.1794  0.7128 -0.2118
  121OSM    H2F12811   2.492   2.046   6.290  1.6049 -0.6631  0.5961
  121OSM    H2G12812   2.475   2.047   6.472 -0.2473  0.3557 -0.0643
  121OSM    C3F12813   2.302   2.092   6.362  0.4531 -0.2076  0.2563
  121OSM    H3F12814   2.236   2.043   6.287  1.9884 -1.0939 -0.5831
  121OSM    H3G12815   2.323   2.195   6.325  3.4939 -1.2867 -1.4006
  121OSM    C4F12816   2.221   2.083   6.499  0.0814 -0.0486  0.2242
  121OSM    H4F12817   2.227   1.986   6.553  1.8932  0.3832  0.8659
  121OSM    H4G12818   2.111   2.096   6.487  0.2145  0.3443 -0.5803
  121OSM    C5F12819   2.269   2.195   6.602  0.0719  0.7027 -0.7100
  121OSM    H5F12820   2.273   2.296   6.556  0.6845  1.8478  1.6815
  121OSM    H5G12821   2.368   2.169   6.647  0.5646  0.6137 -1.8066
  121OSM    C6F12822   2.171   2.190   6.724 -0.0736  0.4897 -0.1522
  121OSM    H6F12823   2.199   2.105   6.790 -4.1546 -0.6489  0.4185
  121OSM    H6G12824   2.070   2.170   6.681 -0.1053  0.3075  0.0054
  121OSM    C7F12825   2.168   2.323   6.799 -0.2497 -0.2829  0.0581
  121OSM    H7F12826   2.129   2.393   6.722  1.8499  1.4647  0.4875
  121OSM    H7G12827   2.275   2.344   6.818 -0.1140 -2.1027  1.6556
  121OSM    C8F12828   2.080   2.318   6.917  0.1082 -0.1370 -0.4636
  121OSM    H8F12829   2.076   2.216   6.962 -0.3615  0.1941  0.2625
  121OSM    H8G12830   1.974   2.339   6.892 -0.7364 -1.6451  1.5250
  121OSM    C9F12831   2.119   2.411   7.028 -0.0342  0.2017 -0.2620
  121OSM    H9F12832   2.124   2.518   7.000 -0.2633 -0.0082 -1.1455
  121OSM   C10F12833   2.160   2.380   7.152  0.4718 -0.2426 -0.0202
  121OSM   H10F12834   2.209   2.465   7.202 -0.0662  1.0700 -1.6097
  121OSM   C11F12835   2.181   2.238   7.206  0.0049 -0.7861  0.1151
  121OSM   H11F12836   2.227   2.168   7.133  2.4546 -0.4515  1.2165
  121OSM   H11G12837   2.083   2.202   7.244 -1.0283  2.3733  0.7115
  121OSM   C12F12838   2.281   2.234   7.323  0.2428 -0.1092  0.1475
  121OSM   H12F12839   2.377   2.277   7.289  0.8446 -0.2669  1.5952
  121OSM   H12G12840   2.300   2.125   7.330  2.3287  0.2871  1.4970
  121OSM   C13F12841   2.225   2.306   7.451 -0.9251 -0.3549  0.4844
  121OSM   H13F12842   2.126   2.256   7.457 -0.3199 -1.4837  1.3831
  121OSM   H13G12843   2.215   2.413   7.423 -1.7505 -0.5861 -0.1536
  121OSM   C14F12844   2.312   2.285   7.575  0.3360  0.1750  0.1193
  121OSM   H14F12845   2.416   2.300   7.541  0.9799 -1.3679  1.2826
  121OSM   H14G12846   2.302   2.176   7.594 -0.1518 -0.1339 -1.6893
  121OSM   C15F12847   2.278   2.373   7.696 -0.1350  0.6533  0.1033
  121OSM   H15F12848   2.169   2.351   7.705 -0.0414 -1.3946 -2.4101
  121OSM   H15G12849   2.305   2.475   7.661  0.7739  0.8922  1.4411
  121OSM   C16F12850   2.347   2.331   7.822 -0.2458  0.3100  0.0726
  121OSM   H16F12851   2.452   2.310   7.795 -0.6037 -0.1974 -0.9944
  121OSM   H16G12852   2.302   2.232   7.847  2.6442 -0.8218  1.2413
  121OSM   C17F12853   2.333   2.437   7.930 -0.2357 -0.1115  0.6785
  121OSM   H17F12854   2.227   2.468   7.938  0.1277  1.8913 -1.3030
  121OSM   H17G12855   2.386   2.526   7.890  0.8613 -0.5408  1.1199
  121OSM   C18F12856   2.400   2.403   8.060 -0.3375  0.1147 -0.0496
  121OSM   H18F12857   2.383   2.302   8.102  0.0523 -0.8576 -2.0900
  121OSM   H18G12858   2.379   2.477   8.141 -0.4654 -1.7079  1.6544
  121OSM   H18H12859   2.510   2.391   8.047 -0.7236 -3.5680 -0.9933
  122OSM      N12860   2.435   2.605   5.564 -0.5714  0.0330  0.4143
  122OSM    C1512861   2.324   2.659   5.480  0.2431  0.2902  0.1224
  122OSM   H15A12862   2.361   2.707   5.390  0.1363  0.9161  0.4077
  122OSM   H15B12863   2.270   2.738   5.529  0.1269 -0.4553  1.2190
  122OSM   H15C12864   2.258   2.575   5.461  0.9089 -0.4869  1.1578
  122OSM    C1412865   2.497   2.490   5.491 -0.6151  0.4614 -0.0042
  122OSM   H14A12866   2.516   2.506   5.386 -3.0775 -0.2753 -0.6174
  122OSM   H14B12867   2.425   2.410   5.493 -0.5746  0.4334  0.3980
  122OSM   H14C12868   2.589   2.454   5.535 -0.7777 -1.9393 -1.4756
  122OSM    C1312869   2.532   2.720   5.577  0.3570  0.5818 -0.2561
  122OSM   H13A12870   2.489   2.788   5.649 -0.2348  0.2145 -0.2597
  122OSM   H13B12871   2.551   2.767   5.482  0.8430 -0.6814 -0.8024
  122OSM   H13C12872   2.627   2.689   5.619  0.5618  0.4037 -0.8499
  122OSM    C1212873   2.381   2.565   5.699 -0.5445  0.6844 -0.2507
  122OSM   H12A12874   2.460   2.531   5.764 -1.1568 -0.4612 -0.0631
  122OSM   H12B12875   2.328   2.472   5.683  2.1582 -1.1760  0.8181
  122OSM    C1112876   2.285   2.667   5.773  0.1382  0.1489  0.1823
  122OSM   H11A12877   2.259   2.608   5.864  0.5835 -2.1184 -1.0857
  122OSM   H11B12878   2.188   2.668   5.720  0.1739 -2.7555 -0.1087
  122OSM      P12879   2.255   2.909   5.843 -0.3377 -0.7062 -0.1829
  122OSM    O1312880   2.339   3.023   5.879 -0.2527  0.0655 -0.1726
  122OSM    O1412881   2.171   2.931   5.727 -0.2043 -0.1635 -0.0913
  122OSM    O1112882   2.162   2.863   5.963 -0.6514 -0.2937 -0.2041
  122OSM    O1212883   2.347   2.793   5.806 -0.6699  0.1864 -0.1633
  122OSM    C1S12884   2.222   2.808   6.079 -0.1788 -0.2602 -0.2703
  122OSM    H1S12885   2.287   2.884   6.127 -0.7432  0.1475 -0.1410
  122OSM    H1T12886   2.281   2.717   6.054  0.7770  0.5826 -1.2016
  122OSM     NF12887   2.159   2.716   6.308 -0.0428 -0.4623  0.3184
  122OSM    HNF12888   2.139   2.621   6.329 -1.8473 -0.4298 -1.0493
  122OSM    C2S12889   2.107   2.772   6.183  0.3346 -1.0032  0.1255
  122OSM    H2S12890   2.064   2.873   6.204 -2.7417 -2.1754  0.0238
  122OSM    C3S12891   1.996   2.690   6.129 -0.3614  0.4800 -0.7842
  122OSM    H3S12892   2.033   2.588   6.104  0.1095  0.2621  0.7324
  122OSM     O312893   1.942   2.740   6.003  0.7326  0.2390 -0.5664
  122OSM    HO312894   2.011   2.804   5.983  0.8611  0.2027 -0.2518
  122OSM    C4S12895   1.884   2.671   6.224  0.1670 -0.4329  0.4102
  122OSM    H4S12896   1.894   2.583   6.289 -0.8010 -0.1928  0.9053
  122OSM    C5S12897   1.778   2.751   6.246 -0.5259  0.1212  0.3591
  122OSM    H5S12898   1.769   2.831   6.171  2.6570  0.7693  0.5399
  122OSM    C6S12899   1.677   2.731   6.350 -0.0151  0.2436  0.2073
  122OSM    H6S12900   1.685   2.628   6.391  1.0126  0.6722  1.1181
  122OSM    H6T12901   1.587   2.737   6.285  0.0977  2.1383  0.1703
  122OSM    C7S12902   1.676   2.843   6.450 -0.1451 -0.1712  0.4844
  122OSM    H7S12903   1.672   2.930   6.382  3.2097 -1.7149 -1.9939
  122OSM    H7T12904   1.759   2.858   6.522  0.4556 -1.0812  0.0049
  122OSM    C8S12905   1.534   2.854   6.527  0.5709  0.0476 -0.1994
  122OSM    H8S12906   1.485   2.758   6.551 -2.9283  1.8350  0.5120
  122OSM    H8T12907   1.454   2.899   6.464 -1.0659 -0.5849  1.3531
  122OSM    C9S12908   1.540   2.919   6.673  0.2990 -0.0926 -0.0331
  122OSM    H9S12909   1.599   2.845   6.732  1.3580  1.2483  0.6609
  122OSM    H9T12910   1.439   2.934   6.716  1.3597  2.7897  1.7509
  122OSM   C10S12911   1.613   3.054   6.683  0.1664  0.1815  0.4416
  122OSM   H10S12912   1.578   3.111   6.594  1.2512  2.5076  1.4261
  122OSM   H10T12913   1.723   3.041   6.684 -0.0347 -1.8786  0.1859
  122OSM   C11S12914   1.578   3.138   6.806  0.1771 -0.7757  0.0915
  122OSM   H11S12915   1.467   3.146   6.809  0.1241 -0.3404 -1.7989
  122OSM   H11T12916   1.613   3.242   6.791 -2.0334 -0.0750 -0.7533
  122OSM   C12S12917   1.614   3.082   6.945 -0.0434  0.3034  0.1462
  122OSM   H12S12918   1.723   3.066   6.952 -0.4345 -2.6046  0.5963
  122OSM   H12T12919   1.563   2.983   6.948 -0.0105  0.2858  0.1180
  122OSM   C13S12920   1.569   3.174   7.053 -0.0050 -0.4323  0.8064
  122OSM   H13S12921   1.461   3.192   7.037  0.3182 -0.4469 -1.8518
  122OSM   H13T12922   1.617   3.273   7.036  0.2859 -0.5218  1.1155
  122OSM   C14S12923   1.602   3.125   7.192  0.8235 -0.0601  0.2402
  122OSM   H14S12924   1.712   3.112   7.202  1.4912  4.8451  1.8948
  122OSM   H14T12925   1.550   3.029   7.208  0.6227 -0.1738 -1.0018
  122OSM   C15S12926   1.557   3.216   7.311  0.4479  0.0012  0.2067
  122OSM   H15S12927   1.450   3.247   7.311  0.4130 -0.0712  1.3205
  122OSM   H15T12928   1.635   3.295   7.316 -0.6340  1.1730 -0.8352
  122OSM   C16S12929   1.586   3.137   7.439 -0.2141 -0.2352 -0.0827
  122OSM   H16S12930   1.691   3.103   7.427  0.6014  0.1781  4.3975
  122OSM   H16T12931   1.521   3.048   7.455 -0.4430 -0.0732 -0.1095
  122OSM   C17S12932   1.585   3.236   7.548 -0.2030  0.3405 -0.1167
  122OSM   H17S12933   1.491   3.288   7.580 -0.4129 -0.7106  1.0612
  122OSM   H17T12934   1.658   3.314   7.520 -0.1689 -0.3633 -2.1107
  122OSM   C18S12935   1.638   3.174   7.675 -0.0434 -0.0681  0.0280
  122OSM   H18S12936   1.575   3.095   7.721 -1.1688  0.0330 -1.2965
  122OSM   H18T12937   1.648   3.246   7.759  0.2187 -0.6754  0.5269
  122OSM   H18U12938   1.739   3.133   7.653  0.2521  1.4730 -1.7477
  122OSM    C1F12939   2.236   2.775   6.391  0.1931 -0.0461  0.4241
  122OSM     OF12940   2.280   2.886   6.363  0.5253 -0.4042  0.3048
  122OSM    C2F12941   2.272   2.686   6.505 -0.7355 -0.2771 -0.0012
  122OSM    H2F12942   2.353   2.622   6.463  0.9849  0.8560  1.4503
  122OSM    H2G12943   2.183   2.625   6.532 -0.2118 -0.3070  1.7770
  122OSM    C3F12944   2.328   2.758   6.633 -0.0164  0.4999 -0.1873
  122OSM    H3F12945   2.254   2.841   6.641  0.7381  1.1852 -0.1746
  122OSM    H3G12946   2.429   2.796   6.607 -0.3645  1.4292 -0.2274
  122OSM    C4F12947   2.331   2.672   6.757 -0.1810 -0.5162 -1.4005
  122OSM    H4F12948   2.404   2.590   6.745  0.3129 -0.1710 -0.8346
  122OSM    H4G12949   2.232   2.622   6.767 -1.9915  2.9600 -0.0172
  122OSM    C5F12950   2.361   2.759   6.882  0.2669  0.2115  0.2554
  122OSM    H5F12951   2.272   2.822   6.900 -0.4162  0.0849 -2.3000
  122OSM    H5G12952   2.444   2.823   6.844 -0.0958  0.1811 -0.6268
  122OSM    C6F12953   2.409   2.685   7.005  0.1989 -0.1824 -0.3964
  122OSM    H6F12954   2.519   2.689   7.021  0.1465 -2.4969  1.0658
  122OSM    H6G12955   2.377   2.582   6.978 -0.1462  0.1132 -1.1585
  122OSM    C7F12956   2.344   2.732   7.134  0.3935  0.6394  0.4786
  122OSM    H7F12957   2.236   2.720   7.113  1.1928 -0.4644 -4.3313
  122OSM    H7G12958   2.354   2.840   7.156  0.3352  0.5354  1.0346
  122OSM    C8F12959   2.398   2.664   7.255  1.2399  0.3131  0.2465
  122OSM    H8F12960   2.409   2.553   7.251 -0.3512  0.1147  0.4049
  122OSM    H8G12961   2.325   2.686   7.336  0.0164  2.4512 -1.3216
  122OSM    C9F12962   2.534   2.703   7.307  0.0397  0.8738  0.1051
  122OSM    H9F12963   2.613   2.714   7.231 -0.3517 -0.2322 -0.4763
  122OSM   C10F12964   2.568   2.707   7.437  0.0230 -0.2397  0.7806
  122OSM   H10F12965   2.674   2.729   7.457  0.2178 -1.1897  0.8684
  122OSM   C11F12966   2.470   2.689   7.545 -0.4513  0.6239  0.0948
  122OSM   H11F12967   2.521   2.638   7.630 -0.8762  0.8384  0.4826
  122OSM   H11G12968   2.384   2.624   7.519  1.2808 -2.7527  2.0454
  122OSM   C12F12969   2.397   2.823   7.582  0.1923  0.5946  0.3055
  122OSM   H12F12970   2.349   2.878   7.499  0.2615  0.8029  0.4019
  122OSM   H12G12971   2.481   2.890   7.612 -0.5359  1.5926  0.1609
  122OSM   C13F12972   2.305   2.809   7.701  0.3313 -0.1693  0.4806
  122OSM   H13F12973   2.264   2.706   7.699 -0.9375  0.3091  0.4205
  122OSM   H13G12974   2.220   2.880   7.712  1.8459  1.7800  0.2439
  122OSM   C14F12975   2.378   2.822   7.834 -0.3053 -0.2123 -0.4475
  122OSM   H14F12976   2.441   2.913   7.838  1.0065 -1.1183  0.5249
  122OSM   H14G12977   2.450   2.740   7.853  1.7593  1.6979  0.3477
  122OSM   C15F12978   2.271   2.835   7.948  0.0390 -0.6624 -0.0566
  122OSM   H15F12979   2.239   2.733   7.977 -0.1001 -0.7131 -0.3821
  122OSM   H15G12980   2.187   2.893   7.905 -0.9415 -0.0358  2.5792
  122OSM   C16F12981   2.325   2.911   8.077  0.1658 -0.7611  0.2785
  122OSM   H16F12982   2.235   2.930   8.139  0.6779 -0.9833  1.1038
  122OSM   H16G12983   2.376   3.005   8.048  0.6691 -1.2214 -0.3572
  122OSM   C17F12984   2.419   2.815   8.148  0.2828  0.6214 -0.3804
  122OSM   H17F12985   2.504   2.787   8.082 -0.0375 -1.1704 -0.0863
  122OSM   H17G12986   2.371   2.719   8.175  2.0526 -0.1467  0.2263
  122OSM   C18F12987   2.477   2.881   8.271  0.4666  0.4361  1.3000
  122OSM   H18F12988   2.556   2.821   8.320 -0.0104  0.2178  1.8201
  122OSM   H18G12989   2.397   2.900   8.345 -1.3008 -0.9044 -0.1474
  122OSM   H18H12990   2.535   2.973   8.251 -1.8451  1.5935 -0.5656
  123OSM      N12991   5.780   6.755   6.025  0.3476 -0.3826 -0.1769
  123OSM    C1512992   5.773   6.904   6.053  0.1778  0.0999  0.4090
  123OSM   H15A12993   5.690   6.920   6.119 -0.4513  0.6544 -0.4983
  123OSM   H15B12994   5.766   6.962   5.963 -1.2051 -0.8089 -0.0981
  123OSM   H15C12995   5.869   6.930   6.096  1.3696 -1.8024 -0.9090
  123OSM    C1412996   5.654   6.701   5.963  0.4331 -0.5786 -0.1251
  123OSM   H14A12997   5.682   6.601   5.934  4.0085 -0.0081  0.8869
  123OSM   H14B12998   5.633   6.747   5.868  1.2473  2.4226  1.0249
  123OSM   H14C12999   5.562   6.703   6.020 -1.5221  0.4924 -3.0839
  123OSM    C1313000   5.895   6.732   5.930  0.2985 -0.2268 -0.9823
  123OSM   H13A13001   5.862   6.767   5.834 -0.1575  3.0235  0.2390
  123OSM   H13B13002   5.915   6.626   5.938 -2.3233 -0.6383  1.6002
  123OSM   H13C13003   5.978   6.799   5.948  0.7709 -0.1152 -3.3528
  123OSM    C1213004   5.801   6.679   6.163 -0.7926  0.8781 -0.0895
  123OSM   H12A13005   5.736   6.703   6.245  0.1891 -0.0403  0.9916
  123OSM   H12B13006   5.892   6.721   6.203  0.4213 -1.4839 -0.2076
  123OSM    C1113007   5.821   6.528   6.159  0.4241  0.0441  0.0644
  123OSM   H11A13008   5.725   6.476   6.141  1.1372 -1.7700  1.2980
  123OSM   H11B13009   5.835   6.500   6.265 -1.1650  0.2030  0.3358
  123OSM      P13010   5.969   6.331   6.078  0.2862  0.0347 -0.0284
  123OSM    O1313011   5.876   6.258   5.988  0.4107 -0.4542  1.0087
  123OSM    O1413012   6.108   6.314   6.047 -0.4733  0.3972 -0.2073
  123OSM    O1113013   5.926   6.284   6.223  0.0248 -0.0805 -0.6692
  123OSM    O1213014   5.928   6.483   6.069  0.7920  0.1027  0.1611
  123OSM    C1S13015   5.956   6.149   6.263  0.3418  0.6785  0.2692
  123OSM    H1S13016   6.064   6.135   6.285  0.5824 -2.1239 -2.0461
  123OSM    H1T13017   5.928   6.072   6.188 -0.6869  0.1909  1.1267
  123OSM     NF13018   5.927   5.968   6.434  0.1842 -0.5988  0.4501
  123OSM    HNF13019   5.853   5.904   6.420  1.9667 -2.2265 -2.7935
  123OSM    C2S13020   5.898   6.106   6.408  0.5973  0.3484  0.2545
  123OSM    H2S13021   5.946   6.170   6.485  1.1290 -0.0889  0.2904
  123OSM    C3S13022   5.737   6.134   6.408 -0.0322  0.3878  0.0416
  123OSM    H3S13023   5.681   6.068   6.337  0.8236 -1.2385  0.8308
  123OSM     O313024   5.709   6.269   6.367 -0.2438  0.6316 -0.4401
  123OSM    HO313025   5.797   6.301   6.345  0.6134 -0.2983  1.3540
  123OSM    C4S13026   5.674   6.095   6.537  0.0686 -0.3134 -0.5409
  123OSM    H4S13027   5.619   5.999   6.533  0.4645 -0.6291  0.9629
  123OSM    C5S13028   5.664   6.168   6.647  0.1922 -0.1863  0.7005
  123OSM    H5S13029   5.698   6.272   6.642  0.8753 -0.4859 -1.5689
  123OSM    C6S13030   5.587   6.128   6.769 -0.3612  0.1625  0.0438
  123OSM    H6S13031   5.551   6.220   6.819 -0.6051  0.3757 -0.5197
  123OSM    H6T13032   5.663   6.096   6.843 -0.4214  0.2692  0.1512
  123OSM    C7S13033   5.478   6.021   6.766 -0.5483  0.3378 -0.2120
  123OSM    H7S13034   5.522   5.922   6.745 -1.0408 -0.3628  1.8321
  123OSM    H7T13035   5.401   6.038   6.688 -1.0499  0.6334  0.3366
  123OSM    C8S13036   5.403   6.034   6.901  0.0942  0.0703 -0.2455
  123OSM    H8S13037   5.359   6.135   6.911  1.5179  0.6353  0.5774
  123OSM    H8T13038   5.473   6.021   6.986  0.8331 -0.6733 -0.9440
  123OSM    C9S13039   5.271   5.939   6.903  0.1703  0.3956  0.8978
  123OSM    H9S13040   5.314   5.836   6.902  1.0816  0.7453 -1.1261
  123OSM    H9T13041   5.223   5.962   6.806 -1.0245  0.3269  1.4559
  123OSM   C10S13042   5.161   5.973   7.010  0.9156  0.0012  0.1149
  123OSM   H10S13043   5.063   5.925   6.988  1.8021 -1.7051 -0.3176
  123OSM   H10T13044   5.134   6.081   7.009  1.5304  0.1599 -0.0610
  123OSM   C11S13045   5.209   5.946   7.148  0.8501  0.8017  0.4485
  123OSM   H11S13046   5.318   5.968   7.153  1.0093  0.3758 -0.8351
  123OSM   H11T13047   5.194   5.837   7.161 -1.0730  0.6854 -2.1062
  123OSM   C12S13048   5.136   6.031   7.254  1.0617  0.9375 -0.5466
  123OSM   H12S13049   5.027   6.007   7.257  1.2201  0.3054  1.8474
  123OSM   H12T13050   5.139   6.140   7.233 -1.0957  1.0785 -0.3424
  123OSM   C13S13051   5.180   6.012   7.394 -0.0575 -0.3432 -0.3368
  123OSM   H13S13052   5.286   6.043   7.403 -0.4238  1.3733 -1.5687
  123OSM   H13T13053   5.187   5.907   7.431 -0.2111  0.5765  2.5939
  123OSM   C14S13054   5.089   6.080   7.491 -0.4800  0.3168  0.4900
  123OSM   H14S13055   4.982   6.054   7.478 -0.8971  2.3146 -0.4192
  123OSM   H14T13056   5.097   6.190   7.484  1.4921  0.3254  1.8454
  123OSM   C15S13057   5.120   6.050   7.645  0.3339  0.4348 -0.3283
  123OSM   H15S13058   5.066   6.110   7.722  2.5561  0.6611  1.1644
  123OSM   H15T13059   5.224   6.080   7.667  1.5780 -2.1569 -2.1399
  123OSM   C16S13060   5.105   5.899   7.687  0.8665 -0.2163  0.3824
  123OSM   H16S13061   5.183   5.850   7.625 -1.1636 -2.8975 -0.2154
  123OSM   H16T13062   5.010   5.860   7.646 -0.8710  0.1781  3.7016
  123OSM   C17S13063   5.126   5.881   7.838  0.0788  0.6614  0.4777
  123OSM   H17S13064   5.040   5.937   7.878 -1.6612  0.2922 -2.4190
  123OSM   H17T13065   5.219   5.935   7.868 -0.0818  1.7307 -0.8591
  123OSM   C18S13066   5.124   5.743   7.895  0.0261 -0.1247  0.5458
  123OSM   H18S13067   5.158   5.752   8.001 -0.5261 -0.2795  0.7369
  123OSM   H18T13068   5.190   5.674   7.837 -1.0465 -2.0666  1.5374
  123OSM   H18U13069   5.017   5.714   7.902  0.0589 -0.5967 -0.6057
  123OSM    C1F13070   6.051   5.922   6.462 -0.0196 -0.5547 -0.2182
  123OSM     OF13071   6.152   5.989   6.457 -0.0512 -0.0965 -0.1081
  123OSM    C2F13072   6.060   5.776   6.490  0.3633  0.5815 -0.3880
  123OSM    H2F13073   6.115   5.735   6.403 -0.9009  0.2244 -1.0464
  123OSM    H2G13074   5.966   5.717   6.498 -0.0569  1.3951  1.1153
  123OSM    C3F13075   6.146   5.751   6.613 -0.1437  0.3159  0.5502
  123OSM    H3F13076   6.242   5.803   6.589  1.7169 -3.2165 -0.3266
  123OSM    H3G13077   6.173   5.644   6.625  0.4129  0.1937 -1.4479
  123OSM    C4F13078   6.079   5.807   6.744 -0.3200 -0.4903  0.4465
  123OSM    H4F13079   5.970   5.799   6.729  0.0334 -2.8717 -1.3976
  123OSM    H4G13080   6.105   5.915   6.742 -0.5059 -0.4578 -1.1122
  123OSM    C5F13081   6.133   5.728   6.865 -0.8251 -0.3339  0.3360
  123OSM    H5F13082   6.107   5.621   6.850 -0.2011 -0.4380 -0.0688
  123OSM    H5G13083   6.097   5.767   6.962  1.4764  2.1194  0.3106
  123OSM    C6F13084   6.282   5.740   6.887  0.4863 -0.1826  0.1276
  123OSM    H6F13085   6.292   5.813   6.970 -1.0249 -0.1259  0.2746
  123OSM    H6G13086   6.339   5.790   6.805 -1.0156 -0.3440 -1.0533
  123OSM    C7F13087   6.347   5.607   6.912  0.5040 -0.6713 -0.8670
  123OSM    H7F13088   6.376   5.563   6.815  2.3453 -1.1600 -0.1426
  123OSM    H7G13089   6.280   5.527   6.950  0.7431 -0.2728  0.4687
  123OSM    C8F13090   6.466   5.617   7.007 -0.0927  0.0150 -0.4253
  123OSM    H8F13091   6.459   5.705   7.074  2.0288 -0.4086  0.4450
  123OSM    H8G13092   6.554   5.635   6.941  0.1318 -0.8478 -0.3712
  123OSM    C9F13093   6.486   5.489   7.089  0.5007 -0.0147  0.1395
  123OSM    H9F13094   6.499   5.393   7.038 -2.6785 -0.7696  0.5185
  123OSM   C10F13095   6.475   5.472   7.220 -0.4583 -0.5605 -0.5334
  123OSM   H10F13096   6.501   5.379   7.272  0.9312 -0.8333 -1.6499
  123OSM   C11F13097   6.448   5.581   7.313  0.3500 -0.4986 -0.1435
  123OSM   H11F13098   6.392   5.533   7.396  2.6187 -3.2407 -0.0547
  123OSM   H11G13099   6.384   5.662   7.272 -0.5738 -1.7858 -1.3001
  123OSM   C12F13100   6.570   5.648   7.370  0.3758 -0.4129  0.1241
  123OSM   H12F13101   6.527   5.703   7.457  0.3993 -3.1369  1.9674
  123OSM   H12G13102   6.604   5.709   7.284 -1.9780  0.6413 -0.1433
  123OSM   C13F13103   6.686   5.567   7.430 -0.4569 -0.3377  0.6729
  123OSM   H13F13104   6.769   5.637   7.454 -1.9391  1.9758 -0.5351
  123OSM   H13G13105   6.722   5.505   7.345 -1.3096 -0.0513  0.0904
  123OSM   C14F13106   6.667   5.481   7.546 -0.4101  0.4208 -0.1270
  123OSM   H14F13107   6.738   5.396   7.559 -1.3774 -0.6834 -1.7240
  123OSM   H14G13108   6.563   5.442   7.542  0.1121 -1.0486 -0.0288
  123OSM   C15F13109   6.671   5.554   7.678 -0.0821  0.7890 -0.7457
  123OSM   H15F13110   6.607   5.645   7.680 -2.2342 -0.6345 -1.2150
  123OSM   H15G13111   6.775   5.588   7.691 -0.3392  1.8257 -1.2673
  123OSM   C16F13112   6.630   5.460   7.797  0.1392 -0.1062  0.5720
  123OSM   H16F13113   6.677   5.500   7.890 -0.8134  1.9742  0.2182
  123OSM   H16G13114   6.680   5.363   7.779 -2.5174 -1.1639 -1.5981
  123OSM   C17F13115   6.482   5.436   7.811  0.3140  0.5385  0.4892
  123OSM   H17F13116   6.452   5.368   7.894 -0.8772 -1.9171 -1.7988
  123OSM   H17G13117   6.449   5.381   7.720 -0.1512  1.9295 -0.2115
  123OSM   C18F13118   6.400   5.563   7.824  0.0951 -0.2758  0.6043
  123OSM   H18F13119   6.451   5.636   7.889  0.7849  0.0271 -0.2584
  123OSM   H18G13120   6.294   5.554   7.854 -0.3921  0.0379 -0.9189
  123OSM   H18H13121   6.408   5.611   7.724 -0.8276 -2.6412 -0.6920
  124OSM      N13122   0.300   1.221   6.314 -0.4957 -0.0636 -0.1923
  124OSM    C1513123   0.173   1.275   6.248 -0.2318 -0.5498  0.8013
  124OSM   H15A13124   0.097   1.198   6.254 -0.7340 -0.1139  0.2301
  124OSM   H15B13125   0.191   1.289   6.142  1.7309 -0.9324  1.0425
  124OSM   H15C13126   0.136   1.371   6.283  0.4507 -0.9450  2.7010
  124OSM    C1413127   0.263   1.193   6.459 -0.1871 -0.6133 -0.0968
  124OSM   H14A13128   0.209   1.273   6.508 -0.9065 -0.9865 -0.2622
  124OSM   H14B13129   0.351   1.190   6.521 -0.8892  1.8345  1.1756
  124OSM   H14C13130   0.218   1.097   6.480 -0.4363 -0.4700  0.0298
  124OSM    C1313131   0.332   1.084   6.261 -0.5081  0.7597  0.3552
  124OSM   H13A13132   0.244   1.023   6.252 -0.6002  0.9843 -0.3191
  124OSM   H13B13133   0.411   1.038   6.319 -0.6183 -0.7105 -0.6109
  124OSM   H13C13134   0.375   1.093   6.162  3.5324 -0.0577  1.8466
  124OSM    C1213135   0.407   1.323   6.303  0.3714 -0.3273 -0.1062
  124OSM   H12A13136   0.493   1.275   6.347 -1.4271 -2.2559  1.5305
  124OSM   H12B13137   0.383   1.411   6.362  0.3271  0.0163 -0.6248
  124OSM    C1113138   0.440   1.368   6.155  0.6012 -0.4443  0.1872
  124OSM   H11A13139   0.464   1.274   6.102 -2.9670 -1.7295  0.5730
  124OSM   H11B13140   0.532   1.430   6.152 -1.0697  2.2065 -0.5364
  124OSM      P13141   0.307   1.590   6.120 -0.1228 -0.1677  0.0658
  124OSM    O1313142   0.407   1.673   6.047 -0.3613 -0.3020 -0.2650
  124OSM    O1413143   0.166   1.631   6.120  0.0925 -0.0192  0.3327
  124OSM    O1113144   0.363   1.603   6.270 -0.6331  0.2482  0.0640
  124OSM    O1213145   0.328   1.436   6.089 -0.6203 -0.2895 -0.0736
  124OSM    C1S13146   0.277   1.662   6.369 -0.5602  0.4129  0.5778
  124OSM    H1S13147   0.182   1.605   6.385  0.0344 -0.6628  0.3408
  124OSM    H1T13148   0.235   1.762   6.344  0.1745  0.3651 -0.9504
  124OSM     NF13149   0.263   1.713   6.611  0.6603  0.7633 -0.3051
  124OSM    HNF13150   0.264   1.808   6.640 -0.7407  1.1685 -1.4630
  124OSM    C2S13151   0.353   1.663   6.510  0.5441 -0.2317  0.1376
  124OSM    H2S13152   0.369   1.555   6.533 -1.2729 -0.9498 -1.6329
  124OSM    C3S13153   0.485   1.744   6.496  0.1549  0.2213  1.0393
  124OSM    H3S13154   0.467   1.844   6.453 -0.7886 -0.4585 -0.2251
  124OSM     O313155   0.572   1.689   6.407  0.3252  0.2861  0.4844
  124OSM    HO313156   0.525   1.626   6.351  0.8333  0.3336 -0.0156
  124OSM    C4S13157   0.557   1.764   6.628  0.3514  0.0713  0.7359
  124OSM    H4S13158   0.596   1.678   6.684 -1.1264 -1.5257 -0.5552
  124OSM    C5S13159   0.570   1.879   6.692 -0.1763 -0.1985  0.0449
  124OSM    H5S13160   0.536   1.966   6.635  0.5153  0.5044  0.6859
  124OSM    C6S13161   0.636   1.904   6.825 -0.1916  0.0314 -0.1971
  124OSM    H6S13162   0.563   1.952   6.894  0.5413 -1.4516  1.6997
  124OSM    H6T13163   0.724   1.972   6.820 -0.7300  0.7336 -0.3120
  124OSM    C7S13164   0.680   1.777   6.905 -0.4733  0.7391 -0.5439
  124OSM    H7S13165   0.749   1.713   6.846  0.7970 -0.1832  1.7969
  124OSM    H7T13166   0.581   1.728   6.919  0.3011 -0.3850  1.5602
  124OSM    C8S13167   0.750   1.798   7.043 -0.2071 -0.0438  0.6446
  124OSM    H8S13168   0.825   1.877   7.022 -0.7313  0.6053  1.1921
  124OSM    H8T13169   0.796   1.701   7.074  1.5025  0.9515  1.3969
  124OSM    C9S13170   0.656   1.838   7.156  0.1274  0.0485  0.8188
  124OSM    H9S13171   0.565   1.773   7.152 -0.6633  1.1387 -2.2358
  124OSM    H9T13172   0.624   1.943   7.138  2.2789  1.0100  2.2323
  124OSM   C10S13173   0.702   1.823   7.304  0.1511  0.0979  0.7904
  124OSM   H10S13174   0.807   1.853   7.321  0.6896 -2.0679  1.5609
  124OSM   H10T13175   0.687   1.716   7.333 -1.3345 -0.4583 -1.7059
  124OSM   C11S13176   0.610   1.899   7.399  0.0434 -0.2587  0.5736
  124OSM   H11S13177   0.523   1.831   7.404 -2.5215  2.5611 -1.4777
  124OSM   H11T13178   0.559   1.986   7.352 -0.0614  0.6146  2.2502
  124OSM   C12S13179   0.674   1.929   7.530  0.4691 -0.3211 -0.4604
  124OSM   H12S13180   0.769   1.985   7.516  1.2057 -1.3815  0.1635
  124OSM   H12T13181   0.699   1.833   7.580 -0.2923 -0.1609  0.2359
  124OSM   C13S13182   0.586   2.011   7.630 -0.0168  0.1557  0.0036
  124OSM   H13S13183   0.536   2.090   7.571 -0.9844  0.6053  1.3925
  124OSM   H13T13184   0.650   2.055   7.709  1.4907 -0.0943 -1.0236
  124OSM   C14S13185   0.481   1.920   7.701 -0.6085 -0.4758 -0.0189
  124OSM   H14S13186   0.531   1.836   7.754 -0.5151  0.1884  0.9780
  124OSM   H14T13187   0.416   1.880   7.621  1.2100 -0.6580 -1.4811
  124OSM   C15S13188   0.397   2.009   7.804  0.1389  0.2262  0.1411
  124OSM   H15S13189   0.304   1.952   7.822 -0.8815  1.3487 -1.3969
  124OSM   H15T13190   0.372   2.101   7.748  0.3425 -0.3155 -0.8755
  124OSM   C16S13191   0.464   2.029   7.940  0.6233 -0.4966 -0.9196
  124OSM   H16S13192   0.396   2.086   8.007 -1.2992 -2.5266 -1.0163
  124OSM   H16T13193   0.560   2.080   7.919  0.2261  0.9976  0.6140
  124OSM   C17S13194   0.504   1.902   8.010 -0.2435  0.1478  0.8033
  124OSM   H17S13195   0.573   1.841   7.948  0.6538  2.7682 -0.9327
  124OSM   H17T13196   0.417   1.834   8.018 -1.1387  1.2035  0.2230
  124OSM   C18S13197   0.560   1.925   8.148 -0.1255 -0.9308 -0.6594
  124OSM   H18S13198   0.613   1.838   8.192 -0.9016 -1.6475 -1.1292
  124OSM   H18T13199   0.478   1.964   8.212  0.5038 -0.2323 -0.2541
  124OSM   H18U13200   0.640   2.002   8.144 -0.8250 -0.2048 -1.1366
  124OSM    C1F13201   0.157   1.645   6.645  0.2944 -0.5928  0.1368
  124OSM     OF13202   0.136   1.532   6.600 -0.0736 -0.1481 -0.1548
  124OSM    C2F13203   0.050   1.726   6.727 -0.3938 -0.0676  0.3427
  124OSM    H2F13204  -0.040   1.747   6.665  0.2287  0.2694 -0.4696
  124OSM    H2G13205   0.090   1.823   6.761 -0.0368 -0.2815  0.5375
  124OSM    C3F13206  -0.001   1.646   6.848  0.3621  0.2990  0.0147
  124OSM    H3F13207   0.084   1.589   6.892  0.9476  0.7351 -0.5390
  124OSM    H3G13208  -0.080   1.577   6.812 -0.4891 -0.0160  2.2985
  124OSM    C4F13209  -0.047   1.732   6.967 -0.5059  0.5018 -0.0355
  124OSM    H4F13210  -0.144   1.781   6.942 -0.8292  1.6087  2.9527
  124OSM    H4G13211   0.037   1.798   6.996  0.4313  0.0475 -1.5851
  124OSM    C5F13212  -0.073   1.639   7.089  0.1647 -0.3750  0.0918
  124OSM    H5F13213   0.003   1.557   7.096 -0.0670 -0.7634 -1.5395
  124OSM    H5G13214  -0.173   1.592   7.077  1.0806 -2.5679  0.4598
  124OSM    C6F13215  -0.080   1.717   7.217  0.2658  0.0662  0.9911
  124OSM    H6F13216  -0.150   1.803   7.212 -1.1121 -0.9577 -4.2604
  124OSM    H6G13217   0.017   1.768   7.235 -0.3478  1.7910 -0.3403
  124OSM    C7F13218  -0.121   1.637   7.338  0.3324  0.8059  0.2467
  124OSM    H7F13219  -0.114   1.706   7.425 -0.1775 -2.1301  2.7732
  124OSM    H7G13220  -0.046   1.559   7.364  0.6003  1.2697  0.9039
  124OSM    C8F13221  -0.267   1.587   7.320 -0.1026  0.4512 -0.0735
  124OSM    H8F13222  -0.304   1.547   7.417 -2.3856 -0.8317 -1.3674
  124OSM    H8G13223  -0.259   1.498   7.254  0.0269 -0.6938  1.4429
  124OSM    C9F13224  -0.379   1.674   7.266 -0.3936 -0.7295 -0.8611
  124OSM    H9F13225  -0.416   1.645   7.167 -1.0767  0.3746 -0.9493
  124OSM   C10F13226  -0.430   1.778   7.331 -0.0552 -0.0272 -0.0999
  124OSM   H10F13227  -0.509   1.846   7.296  3.2121  3.3835 -1.5066
  124OSM   C11F13228  -0.388   1.821   7.472  0.6258 -0.1200  0.5149
  124OSM   H11F13229  -0.343   1.922   7.459 -0.1838  0.2968  0.8826
  124OSM   H11G13230  -0.316   1.747   7.512  1.5542  0.9394  0.8356
  124OSM   C12F13231  -0.513   1.833   7.563 -0.2942 -0.9209 -0.5158
  124OSM   H12F13232  -0.568   1.737   7.573 -0.5540 -0.7502 -0.3046
  124OSM   H12G13233  -0.588   1.897   7.511  1.6113  1.0265 -1.0070
  124OSM   C13F13234  -0.487   1.906   7.701  0.6316 -0.2203 -0.8765
  124OSM   H13F13235  -0.473   2.014   7.680 -0.9875  0.5376  1.4786
  124OSM   H13G13236  -0.396   1.859   7.744 -0.4364 -1.7705 -0.2223
  124OSM   C14F13237  -0.597   1.879   7.805 -0.2883  0.0934  0.0514
  124OSM   H14F13238  -0.609   1.769   7.818 -2.8961  0.2882 -0.1184
  124OSM   H14G13239  -0.694   1.926   7.777  0.2886  0.4738 -1.3839
  124OSM   C15F13240  -0.560   1.953   7.932 -0.2773  0.7688 -0.1483
  124OSM   H15F13241  -0.548   2.062   7.919  2.4537  0.9782  3.0045
  124OSM   H15G13242  -0.458   1.922   7.964 -0.4670  1.8929  1.6798
  124OSM   C16F13243  -0.649   1.938   8.055  0.6785  0.2374 -0.1912
  124OSM   H16F13244  -0.752   1.950   8.014  1.2246  1.8644 -1.2056
  124OSM   H16G13245  -0.629   2.010   8.137  1.6850 -0.5051  0.2356
  124OSM   C17F13246  -0.636   1.801   8.126 -0.1023  0.3648  0.1528
  124OSM   H17F13247  -0.634   1.715   8.056 -0.2505  1.4538 -1.2339
  124OSM   H17G13248  -0.720   1.790   8.198  0.0945  0.4197  0.3937
  124OSM   C18F13249  -0.503   1.788   8.198 -0.4049 -0.4618 -0.1524
  124OSM   H18F13250  -0.478   1.686   8.234 -2.3763 -1.6888 -2.0512
  124OSM   H18G13251  -0.515   1.862   8.281  1.4501  2.3655 -2.2494
  124OSM   H18H13252  -0.412   1.816   8.142 -0.2133 -1.1466 -0.1821
  125OSM      N13253   4.288   0.287   5.818  0.2757 -0.1833  0.0520
  125OSM    C1513254   4.150   0.249   5.800  0.0773  0.0451  0.6695
  125OSM   H15A13255   4.095   0.312   5.732 -1.2616  0.3645  1.9962
  125OSM   H15B13256   4.103   0.256   5.897  0.8089  1.4873  0.9291
  125OSM   H15C13257   4.151   0.149   5.758 -0.0859  0.5453 -0.5774
  125OSM    C1413258   4.376   0.174   5.861  0.0687  0.0168 -0.3783
  125OSM   H14A13259   4.376   0.094   5.788 -0.1038 -0.7786  0.4686
  125OSM   H14B13260   4.338   0.130   5.952 -1.6710  3.0247  0.5047
  125OSM   H14C13261   4.479   0.199   5.882 -0.4516  1.6046  0.4962
  125OSM    C1313262   4.347   0.338   5.688  0.4668  0.4092  0.6664
  125OSM   H13A13263   4.315   0.441   5.682 -1.3756 -0.1679 -0.5164
  125OSM   H13B13264   4.316   0.280   5.602  1.9032  1.5386 -0.6723
  125OSM   H13C13265   4.455   0.342   5.691  0.5172 -0.6743  0.7934
  125OSM    C1213266   4.304   0.404   5.917  0.5655 -0.4454  0.4516
  125OSM   H12A13267   4.241   0.487   5.887 -1.5176 -1.7330  1.0436
  125OSM   H12B13268   4.406   0.434   5.903 -0.1395  1.4949 -1.0238
  125OSM    C1113269   4.279   0.384   6.062  0.1696 -0.0168  0.1765
  125OSM   H11A13270   4.290   0.478   6.121  1.8524  0.7204 -1.2202
  125OSM   H11B13271   4.362   0.328   6.111  0.6574  0.2332 -0.3499
  125OSM      P13272   4.028   0.414   6.121  0.3627 -0.3478  0.1963
  125OSM    O1313273   4.048   0.554   6.067  0.1643  0.6274 -0.2011
  125OSM    O1413274   3.909   0.336   6.073 -0.1160 -1.1071 -0.1378
  125OSM    O1113275   4.025   0.421   6.276  0.0170  0.0555  0.2583
  125OSM    O1213276   4.154   0.321   6.097 -0.2757  0.1060  0.3250
  125OSM    C1S13277   4.060   0.322   6.371 -0.6519  0.4818  0.6692
  125OSM    H1S13278   4.166   0.289   6.358 -1.1102 -0.3959 -1.3357
  125OSM    H1T13279   4.004   0.227   6.355  0.8988 -0.5620  1.0884
  125OSM     NF13280   4.105   0.281   6.618  0.0654 -0.3467  0.3078
  125OSM    HNF13281   4.047   0.237   6.686  3.0918 -1.2416  2.5074
  125OSM    C2S13282   4.044   0.374   6.518 -1.6294 -0.4796  0.7066
  125OSM    H2S13283   4.096   0.472   6.526 -1.2996 -0.7409  1.9008
  125OSM    C3S13284   3.892   0.403   6.539  0.3075  0.9458 -0.5587
  125OSM    H3S13285   3.841   0.305   6.545  0.5048  0.7934 -1.3022
  125OSM     O313286   3.833   0.476   6.433  0.0190  0.3797 -0.0246
  125OSM    HO313287   3.898   0.467   6.362 -0.5907 -3.1582 -0.3426
  125OSM    C4S13288   3.871   0.470   6.667 -0.4080 -0.0098 -0.7234
  125OSM    H4S13289   3.860   0.407   6.757 -0.5507  0.4225 -0.4359
  125OSM    C5S13290   3.885   0.604   6.688  0.3935  0.1209  0.4773
  125OSM    H5S13291   3.907   0.658   6.595  1.3187  0.1173  0.6913
  125OSM    C6S13292   3.875   0.671   6.822  0.1288  0.1835  0.0449
  125OSM    H6S13293   3.783   0.733   6.819  0.3439  0.4723 -1.1702
  125OSM    H6T13294   3.962   0.740   6.829  0.8988 -0.5533 -1.4976
  125OSM    C7S13295   3.855   0.595   6.953 -0.4263  0.1982  0.1924
  125OSM    H7S13296   3.933   0.518   6.967 -1.6620 -1.6078 -2.1380
  125OSM    H7T13297   3.761   0.535   6.947 -0.3944  0.1043  0.5973
  125OSM    C8S13298   3.870   0.681   7.076  0.0572  0.1424 -0.6222
  125OSM    H8S13299   3.812   0.775   7.066 -0.4868 -0.1460 -0.1680
  125OSM    H8T13300   3.977   0.711   7.084  0.5175 -0.5614 -3.2910
  125OSM    C9S13301   3.841   0.600   7.201  0.1141 -0.2979 -0.0767
  125OSM    H9S13302   3.899   0.505   7.207 -0.6691 -0.7514  0.4563
  125OSM    H9T13303   3.733   0.574   7.204 -0.1922  0.7251 -1.2495
  125OSM   C10S13304   3.878   0.657   7.335 -0.5175 -0.7113 -0.5057
  125OSM   H10S13305   3.833   0.759   7.339 -1.4985 -1.1343 -0.4160
  125OSM   H10T13306   3.984   0.646   7.364 -1.1010 -1.1446  1.6277
  125OSM   C11S13307   3.805   0.573   7.453 -0.8767  0.3569 -0.0394
  125OSM   H11S13308   3.844   0.473   7.482 -2.8053 -0.8708 -1.4193
  125OSM   H11T13309   3.702   0.553   7.419 -0.8201  0.1166 -0.0731
  125OSM   C12S13310   3.787   0.656   7.581 -1.0097 -0.2519  0.7428
  125OSM   H12S13311   3.731   0.581   7.641  2.3504 -0.9465  3.3586
  125OSM   H12T13312   3.735   0.751   7.561  1.4287  0.9335 -0.3676
  125OSM   C13S13313   3.920   0.689   7.655 -0.1576  0.2636 -0.4018
  125OSM   H13S13314   3.970   0.784   7.629  1.8843 -0.8394 -0.6529
  125OSM   H13T13315   3.992   0.614   7.615  1.3302  0.0110  2.5304
  125OSM   C14S13316   3.905   0.681   7.807 -0.7658  0.6024  0.2015
  125OSM   H14S13317   4.003   0.695   7.857 -0.2414 -0.0586 -0.6070
  125OSM   H14T13318   3.874   0.575   7.823 -0.9245  0.8526  1.6540
  125OSM   C15S13319   3.811   0.786   7.858  0.1859 -0.7503  0.4482
  125OSM   H15S13320   3.709   0.750   7.883 -1.2432  2.8377  0.3107
  125OSM   H15T13321   3.790   0.872   7.791 -1.4119 -0.2957  1.4680
  125OSM   C16S13322   3.864   0.844   7.994  1.0800 -0.2254  0.3780
  125OSM   H16S13323   3.966   0.887   7.983  1.2930 -0.5191  1.1441
  125OSM   H16T13324   3.860   0.769   8.076  1.7155 -0.4258  0.2355
  125OSM   C17S13325   3.777   0.955   8.046 -0.2162 -0.4042 -0.2923
  125OSM   H17S13326   3.676   0.910   8.034  0.1017 -1.2662  0.1368
  125OSM   H17T13327   3.794   1.045   7.983 -0.5527  0.0116  0.2166
  125OSM   C18S13328   3.800   0.999   8.197 -0.2055 -0.1615  0.0335
  125OSM   H18S13329   3.779   0.915   8.268 -0.9992 -1.1216 -1.2958
  125OSM   H18T13330   3.737   1.088   8.218  1.2931  0.8294  0.5482
  125OSM   H18U13331   3.904   1.032   8.219 -0.9153  0.9035  2.1158
  125OSM    C1F13332   4.237   0.264   6.623 -1.0053 -0.0120  0.1971
  125OSM     OF13333   4.324   0.328   6.554  0.4253  0.3719 -0.1744
  125OSM    C2F13334   4.280   0.178   6.739  0.5014  0.0953 -0.0185
  125OSM    H2F13335   4.386   0.146   6.734  0.5017 -0.0595  0.8366
  125OSM    H2G13336   4.221   0.085   6.745 -1.7498  1.4763  0.5533
  125OSM    C3F13337   4.246   0.263   6.865  0.0583  0.6514  0.1236
  125OSM    H3F13338   4.138   0.290   6.860 -0.0607  0.1061 -0.3995
  125OSM    H3G13339   4.303   0.358   6.871  0.6491  0.5264 -2.3351
  125OSM    C4F13340   4.277   0.173   6.986 -0.4033  0.0789  0.6113
  125OSM    H4F13341   4.366   0.108   6.975  0.5832  1.0159  2.5081
  125OSM    H4G13342   4.189   0.106   6.995  0.0635 -0.4477  1.3874
  125OSM    C5F13343   4.275   0.245   7.127 -0.4364  0.1959 -0.1923
  125OSM    H5F13344   4.216   0.340   7.130  1.4082  1.4175 -0.7503
  125OSM    H5G13345   4.370   0.303   7.127 -1.2370  1.6438 -2.2065
  125OSM    C6F13346   4.258   0.145   7.237  0.1785 -0.4234 -0.2589
  125OSM    H6F13347   4.308   0.047   7.220  0.9763 -0.3514  1.5148
  125OSM    H6G13348   4.148   0.126   7.244 -0.0714  1.1910  0.6249
  125OSM    C7F13349   4.294   0.190   7.381  0.5442 -0.3275 -0.2321
  125OSM    H7F13350   4.404   0.202   7.385  0.8215 -2.2785 -0.8779
  125OSM    H7G13351   4.268   0.111   7.455 -4.1828  1.5305  0.4330
  125OSM    C8F13352   4.247   0.330   7.424  0.1801  0.2036 -0.9892
  125OSM    H8F13353   4.271   0.406   7.347  3.5221 -1.3397 -1.6249
  125OSM    H8G13354   4.310   0.350   7.513 -1.2343 -2.1568  0.6532
  125OSM    C9F13355   4.095   0.327   7.458 -0.6291  0.9047  0.2113
  125OSM    H9F13356   4.035   0.353   7.369 -1.7077 -1.5292  0.1499
  125OSM   C10F13357   4.035   0.277   7.564  0.6793 -0.3506  0.2623
  125OSM   H10F13358   3.925   0.283   7.570  0.7760  1.6384  0.9607
  125OSM   C11F13359   4.108   0.217   7.680 -0.5449 -0.7189 -0.2269
  125OSM   H11F13360   4.208   0.177   7.653 -0.2235  0.7607 -1.3192
  125OSM   H11G13361   4.043   0.137   7.724 -0.7060  0.7030  2.3592
  125OSM   C12F13362   4.135   0.317   7.794  0.3708  0.3367 -0.0287
  125OSM   H12F13363   4.045   0.378   7.815  1.1591  1.8573 -0.8972
  125OSM   H12G13364   4.205   0.398   7.763 -0.9376  1.2078 -0.7989
  125OSM   C13F13365   4.190   0.244   7.919  0.8655  0.0146  0.1651
  125OSM   H13F13366   4.293   0.204   7.909  1.3681  1.5595 -1.3722
  125OSM   H13G13367   4.113   0.164   7.930 -0.2344  0.9441 -0.4874
  125OSM   C14F13368   4.184   0.336   8.042 -0.0527 -0.0068 -0.5070
  125OSM   H14F13369   4.233   0.433   8.021  3.0809 -1.5882 -1.0217
  125OSM   H14G13370   4.245   0.279   8.115 -0.0846  0.4789 -0.0968
  125OSM   C15F13371   4.043   0.377   8.095 -0.1132  0.4976 -0.2804
  125OSM   H15F13372   3.984   0.288   8.124  0.3927 -0.3062 -1.6549
  125OSM   H15G13373   3.980   0.434   8.023  0.7055  1.3145 -0.3801
  125OSM   C16F13374   4.060   0.462   8.224  0.0514  0.2040 -0.2057
  125OSM   H16F13375   4.100   0.558   8.186 -0.4660  0.6472  0.3348
  125OSM   H16G13376   4.136   0.420   8.294 -0.9829  0.6847  1.2589
  125OSM   C17F13377   3.939   0.479   8.314 -0.0519 -0.1934 -0.0739
  125OSM   H17F13378   3.928   0.389   8.377  0.4993 -0.8129 -0.8554
  125OSM   H17G13379   3.847   0.501   8.255 -1.0531 -2.0256  0.7363
  125OSM   C18F13380   3.954   0.598   8.407 -0.7813  0.2044 -0.7696
  125OSM   H18F13381   3.961   0.698   8.360  0.1708  0.3899 -0.2645
  125OSM   H18G13382   4.046   0.586   8.470 -0.1890 -3.1952 -2.0495
  125OSM   H18H13383   3.871   0.601   8.481  0.1138 -0.6204  0.3184
  126OSM      N13384   0.735   5.995   6.203 -0.2358 -0.1059  0.0975
  126OSM    C1513385   0.608   5.993   6.122  0.4354 -0.2447 -0.0588
  126OSM   H15A13386   0.589   6.090   6.079 -3.0182 -1.5780 -1.8917
  126OSM   H15B13387   0.521   5.958   6.175 -0.2214 -0.4958 -1.2605
  126OSM   H15C13388   0.628   5.937   6.032 -0.9496  1.5122 -1.5093
  126OSM    C1413389   0.744   5.873   6.287 -0.8086  0.6818 -0.1438
  126OSM   H14A13390   0.830   5.876   6.353  0.7705  0.6555 -2.1129
  126OSM   H14B13391   0.773   5.789   6.225  1.6626 -0.4763  2.3069
  126OSM   H14C13392   0.654   5.845   6.340 -1.0189  0.2166 -0.7353
  126OSM    C1313393   0.841   6.000   6.108 -0.1948 -0.0828 -0.0380
  126OSM   H13A13394   0.936   6.007   6.160 -0.4898 -1.9822  0.8229
  126OSM   H13B13395   0.837   6.073   6.029 -1.8749 -1.2166 -1.0619
  126OSM   H13C13396   0.846   5.902   6.064 -0.7343 -0.7385  1.3107
  126OSM    C1213397   0.722   6.124   6.294  0.8339 -0.4351 -0.2100
  126OSM   H12A13398   0.650   6.111   6.373  1.5657  2.3662  1.0375
  126OSM   H12B13399   0.672   6.200   6.236 -0.2846 -1.6121 -0.8323
  126OSM    C1113400   0.851   6.180   6.348 -0.0829 -0.8359  0.7197
  126OSM   H11A13401   0.829   6.268   6.411 -0.3796  1.1877 -2.0339
  126OSM   H11B13402   0.915   6.226   6.270 -1.3839 -1.0562 -0.5121
  126OSM      P13403   1.074   6.059   6.408  0.2288 -0.1525  0.0308
  126OSM    O1313404   1.118   5.948   6.494  0.1089  0.1082  0.5508
  126OSM    O1413405   1.113   6.053   6.265 -0.0479 -0.6845  0.5952
  126OSM    O1113406   1.120   6.199   6.462 -0.6234 -0.0774 -0.5053
  126OSM    O1213407   0.920   6.077   6.428  0.5238  0.4631 -0.1973
  126OSM    C1S13408   1.082   6.247   6.588  0.1680 -0.2446  0.5006
  126OSM    H1S13409   0.974   6.229   6.608  0.0830  1.6573  1.9633
  126OSM    H1T13410   1.109   6.354   6.593 -0.4453 -0.0639  0.0598
  126OSM     NF13411   1.107   6.227   6.838 -0.1559  0.4460 -0.3197
  126OSM    HNF13412   1.138   6.298   6.901 -1.6879  0.4334  0.5173
  126OSM    C2S13413   1.172   6.193   6.710 -0.0297 -0.4966 -0.6031
  126OSM    H2S13414   1.177   6.082   6.705 -0.9255 -0.6344  0.8445
  126OSM    C3S13415   1.317   6.243   6.707  0.3124 -0.1004 -0.2463
  126OSM    H3S13416   1.309   6.348   6.743 -0.2117 -0.8361  1.9491
  126OSM     O313417   1.378   6.246   6.578 -0.2069  0.1841  0.6887
  126OSM    HO313418   1.303   6.235   6.518 -0.3359  2.8133  0.2524
  126OSM    C4S13419   1.413   6.177   6.805  0.0903 -0.0127  0.0606
  126OSM    H4S13420   1.432   6.069   6.790  4.7348  0.7068 -0.8748
  126OSM    C5S13421   1.482   6.236   6.906  0.0437  0.2816  0.0684
  126OSM    H5S13422   1.464   6.343   6.923  0.2122  0.7052 -2.1303
  126OSM    C6S13423   1.578   6.173   7.009  0.4001 -0.3784 -0.5908
  126OSM    H6S13424   1.660   6.245   7.024 -1.1111  1.4815 -0.9029
  126OSM    H6T13425   1.607   6.068   6.985 -1.4585 -0.6964 -1.6894
  126OSM    C7S13426   1.511   6.166   7.147 -0.3634  0.4914  0.1066
  126OSM    H7S13427   1.414   6.112   7.143 -0.2898  0.3115  0.6444
  126OSM    H7T13428   1.480   6.263   7.192  1.3377  0.5196  1.3243
  126OSM    C8S13429   1.613   6.107   7.245 -0.0815  0.9539 -0.3981
  126OSM    H8S13430   1.685   6.187   7.272  0.8983  0.2137 -0.7625
  126OSM    H8T13431   1.674   6.021   7.210 -0.7502 -1.4346  3.6860
  126OSM    C9S13432   1.551   6.056   7.379  0.1577  0.0507 -0.1798
  126OSM    H9S13433   1.491   5.964   7.365  1.1393 -0.8065  1.0838
  126OSM    H9T13434   1.478   6.131   7.419 -2.5071 -2.2284 -0.4854
  126OSM   C10S13435   1.652   6.030   7.484  0.0108 -0.2155  0.5000
  126OSM   H10S13436   1.715   6.122   7.490 -0.7294  0.5747 -2.2571
  126OSM   H10T13437   1.718   5.945   7.455 -1.6822 -1.2832 -0.3546
  126OSM   C11S13438   1.595   5.999   7.617  0.2145 -0.0924  0.4370
  126OSM   H11S13439   1.510   5.928   7.612  0.3055 -0.3193  1.8339
  126OSM   H11T13440   1.547   6.090   7.659 -1.6632 -1.2289  0.8497
  126OSM   C12S13441   1.706   5.944   7.709  0.3121 -0.0049  0.0879
  126OSM   H12S13442   1.794   6.012   7.706  1.1477 -1.0474 -0.1534
  126OSM   H12T13443   1.744   5.848   7.667  0.5306 -0.1386  0.5830
  126OSM   C13S13444   1.654   5.921   7.851  0.3839  0.2199 -0.0652
  126OSM   H13S13445   1.714   5.855   7.917 -0.2294  1.4864  1.8384
  126OSM   H13T13446   1.557   5.869   7.834  0.2990  0.2659  0.2774
  126OSM   C14S13447   1.632   6.053   7.928  0.2404 -0.3750  0.1105
  126OSM   H14S13448   1.594   6.141   7.872  0.3602 -0.4214 -0.0430
  126OSM   H14T13449   1.737   6.074   7.958  0.7844  1.4917 -2.7640
  126OSM   C15S13450   1.539   6.034   8.048  0.2322  0.2755 -0.4652
  126OSM   H15S13451   1.548   5.926   8.073 -0.5414 -0.4947 -3.1982
  126OSM   H15T13452   1.435   6.049   8.015  0.8363  0.8342 -2.2157
  126OSM   C16S13453   1.553   6.129   8.164  0.2531 -0.1011  0.5870
  126OSM   H16S13454   1.508   6.230   8.149  0.0427 -0.1212  1.0719
  126OSM   H16T13455   1.659   6.148   8.189 -0.1463  3.3761  0.1389
  126OSM   C17S13456   1.488   6.068   8.292 -0.1031 -0.6764  0.4404
  126OSM   H17S13457   1.518   5.961   8.297 -2.8084 -1.5360 -0.2446
  126OSM   H17T13458   1.378   6.080   8.291  0.0219  0.7156 -1.0131
  126OSM   C18S13459   1.541   6.131   8.421 -0.3023  0.3762 -0.0136
  126OSM   H18S13460   1.476   6.125   8.510 -0.3177  0.6597 -0.0035
  126OSM   H18T13461   1.571   6.237   8.402  0.9746  0.2214  0.9459
  126OSM   H18U13462   1.631   6.073   8.453 -0.8946 -0.0578  0.9007
  126OSM    C1F13463   0.995   6.169   6.874  0.8549 -0.5496  0.7008
  126OSM     OF13464   0.962   6.066   6.817 -0.6153  0.6948  1.0789
  126OSM    C2F13465   0.920   6.241   6.979 -0.0934  0.2910 -0.8948
  126OSM    H2F13466   0.930   6.350   6.961  0.7251  0.2010 -0.9918
  126OSM    H2G13467   0.969   6.225   7.078 -0.2346  2.1616 -0.4791
  126OSM    C3F13468   0.766   6.215   6.987  0.9430 -0.6071  0.5199
  126OSM    H3F13469   0.757   6.107   7.010  0.4227 -0.8149 -0.6196
  126OSM    H3G13470   0.726   6.233   6.885  2.6249  1.1345  0.1032
  126OSM    C4F13471   0.680   6.291   7.094  0.3468  0.2964  0.0287
  126OSM    H4F13472   0.570   6.283   7.075 -0.3135  0.6159  3.2436
  126OSM    H4G13473   0.693   6.401   7.081  1.7364  0.0941 -0.4921
  126OSM    C5F13474   0.709   6.248   7.240 -1.0334 -0.5007  0.6172
  126OSM    H5F13475   0.818   6.227   7.252 -1.0453 -0.6687  0.4407
  126OSM    H5G13476   0.666   6.152   7.274 -0.5728 -0.3616  1.6255
  126OSM    C6F13477   0.665   6.356   7.347  0.3759  0.3155  1.2339
  126OSM    H6F13478   0.554   6.351   7.350  0.3602  1.0613  2.1758
  126OSM    H6G13479   0.690   6.460   7.316 -2.6666  0.8956  0.4564
  126OSM    C7F13480   0.724   6.336   7.483  0.3231 -0.1501 -0.6245
  126OSM    H7F13481   0.835   6.331   7.483  0.4091  0.5111  1.5914
  126OSM    H7G13482   0.687   6.240   7.526  0.2996 -0.2362 -0.8368
  126OSM    C8F13483   0.689   6.446   7.580 -0.4644  0.2020 -0.4136
  126OSM    H8F13484   0.719   6.540   7.530 -2.2695  0.9645 -0.1635
  126OSM    H8G13485   0.764   6.426   7.660  0.1803  0.6633 -0.8988
  126OSM    C9F13486   0.546   6.457   7.631 -0.7371 -0.6828 -0.4950
  126OSM    H9F13487   0.471   6.424   7.558  0.6180 -1.5529 -1.5451
  126OSM   C10F13488   0.511   6.484   7.759 -0.7688  0.6239 -0.4811
  126OSM   H10F13489   0.403   6.480   7.780 -0.7952 -1.3617 -0.8602
  126OSM   C11F13490   0.611   6.511   7.879  0.8114  0.6448  0.3226
  126OSM   H11F13491   0.704   6.450   7.877  0.5865  0.2815  0.8437
  126OSM   H11G13492   0.562   6.480   7.973  0.7613  3.3047  1.2520
  126OSM   C12F13493   0.661   6.660   7.889 -0.1246  0.3474 -0.0244
  126OSM   H12F13494   0.585   6.724   7.939 -2.8649 -3.3349  0.9784
  126OSM   H12G13495   0.679   6.691   7.784  0.6574 -0.5468 -0.1643
  126OSM   C13F13496   0.795   6.674   7.965 -0.0656  0.0484  0.1472
  126OSM   H13F13497   0.825   6.781   7.961  0.1985  0.0216  1.0827
  126OSM   H13G13498   0.871   6.631   7.897  1.5446  2.9330 -0.0634
  126OSM   C14F13499   0.806   6.618   8.112  0.0965  0.0191 -0.2088
  126OSM   H14F13500   0.914   6.630   8.136  0.2049  1.7004 -1.4102
  126OSM   H14G13501   0.772   6.512   8.120 -1.3203  0.5282  1.0080
  126OSM   C15F13502   0.730   6.706   8.212 -0.3983  0.5279 -0.2695
  126OSM   H15F13503   0.623   6.686   8.192 -0.0372 -0.5333 -1.2175
  126OSM   H15G13504   0.738   6.817   8.209  1.8867  0.3896 -1.6775
  126OSM   C16F13505   0.764   6.664   8.358 -0.2017 -0.1550  0.5863
  126OSM   H16F13506   0.751   6.554   8.362 -0.9523 -0.0692  0.6942
  126OSM   H16G13507   0.686   6.706   8.425 -1.3643 -0.8437 -0.2990
  126OSM   C17F13508   0.905   6.707   8.409 -0.0507 -0.1483  0.1144
  126OSM   H17F13509   0.885   6.816   8.418 -3.0540 -0.7439  2.3049
  126OSM   H17G13510   0.988   6.673   8.344  0.4317 -0.0053  0.6487
  126OSM   C18F13511   0.911   6.642   8.543 -0.3927  0.0120  0.3178
  126OSM   H18F13512   0.892   6.535   8.520  4.0033 -0.9740  0.3830
  126OSM   H18G13513   0.832   6.693   8.603 -1.4389  1.5269 -2.2045
  126OSM   H18H13514   1.011   6.638   8.593  0.2425 -1.1056 -0.9863
  127OSM      N13515   6.384   6.024   6.164 -0.4846 -0.2534  0.1813
  127OSM    C1513516   6.260   5.942   6.134  0.4886  0.4243  0.2829
  127OSM   H15A13517   6.275   5.843   6.175 -0.8132 -0.8113 -2.0127
  127OSM   H15B13518   6.253   5.922   6.029  3.2166 -0.1031  0.1452
  127OSM   H15C13519   6.170   5.982   6.180 -1.6333 -1.6827 -1.7322
  127OSM    C1413520   6.486   5.990   6.054  0.2927 -0.3419 -0.4035
  127OSM   H14A13521   6.511   5.885   6.062  2.1415  0.1841  1.4608
  127OSM   H14B13522   6.571   6.056   6.054 -0.1552  0.2911  1.2016
  127OSM   H14C13523   6.440   5.998   5.957 -0.5984 -2.0645 -0.1821
  127OSM    C1313524   6.346   6.168   6.139  0.6602  0.7925 -1.0186
  127OSM   H13A13525   6.269   6.207   6.203  0.3206 -1.4575  0.0112
  127OSM   H13B13526   6.313   6.175   6.036  2.2751 -0.3888 -1.6548
  127OSM   H13C13527   6.427   6.236   6.163  1.8588 -0.8253 -0.3388
  127OSM    C1213528   6.430   6.001   6.307  0.1250  0.3817  0.0141
  127OSM   H12A13529   6.350   6.040   6.369 -0.6409  1.2202 -1.4562
  127OSM   H12B13530   6.518   6.059   6.331  1.4235 -1.5394  0.0495
  127OSM    C1113531   6.463   5.852   6.346  0.1820 -0.4573  0.5382
  127OSM   H11A13532   6.370   5.798   6.317 -0.9271  1.7501 -0.2829
  127OSM   H11B13533   6.470   5.852   6.457 -0.2643  1.0847  0.6022
  127OSM      P13534   6.620   5.666   6.264  0.0844  0.0528 -0.3233
  127OSM    O1313535   6.527   5.600   6.173 -0.1556 -0.3013  0.8196
  127OSM    O1413536   6.769   5.666   6.231 -0.5231 -0.0543 -0.0957
  127OSM    O1113537   6.588   5.605   6.406  0.5696 -0.1132  0.1860
  127OSM    O1213538   6.580   5.812   6.277 -0.0004 -0.2160 -0.5362
  127OSM    C1S13539   6.691   5.545   6.477 -0.4249 -0.0070 -0.5294
  127OSM    H1S13540   6.755   5.627   6.516 -0.3766 -0.0903 -0.4318
  127OSM    H1T13541   6.755   5.470   6.425 -0.9037 -1.1101  0.4261
  127OSM     NF13542   6.714   5.458   6.720  0.3742 -0.1574  0.3449
  127OSM    HNF13543   6.755   5.367   6.730 -0.7765 -0.6999  0.3815
  127OSM    C2S13544   6.623   5.478   6.603  0.0485 -0.4947 -0.4745
  127OSM    H2S13545   6.546   5.553   6.628 -0.6027 -1.5629  0.8371
  127OSM    C3S13546   6.550   5.355   6.558  1.1444 -0.1369 -0.2328
  127OSM    H3S13547   6.628   5.284   6.525  0.3031 -1.1663 -0.0814
  127OSM     O313548   6.464   5.364   6.440 -0.1868  0.1550  0.0510
  127OSM    HO313549   6.464   5.454   6.408 -1.0733  0.5557  1.1155
  127OSM    C4S13550   6.475   5.296   6.677 -0.8437  0.2902 -0.0874
  127OSM    H4S13551   6.545   5.229   6.728 -0.9013  1.3338  1.4073
  127OSM    C5S13552   6.354   5.315   6.733  0.6754  0.5235 -0.3948
  127OSM    H5S13553   6.284   5.389   6.690 -0.8965 -1.2111 -0.9858
  127OSM    C6S13554   6.315   5.249   6.861 -0.2675  0.2605  0.6600
  127OSM    H6S13555   6.356   5.292   6.955  2.3623 -0.9262  0.1498
  127OSM    H6T13556   6.351   5.144   6.850 -0.1801  0.3853 -0.4061
  127OSM    C7S13557   6.159   5.247   6.876 -0.8814 -0.3556  0.1398
  127OSM    H7S13558   6.109   5.195   6.792 -0.8111 -1.1781  0.5996
  127OSM    H7T13559   6.113   5.348   6.878 -3.8510 -1.5296  3.5013
  127OSM    C8S13560   6.118   5.191   7.014  0.5098  0.4045 -0.6858
  127OSM    H8S13561   6.154   5.086   7.021  0.7959  0.5600  0.3091
  127OSM    H8T13562   6.007   5.187   7.015  0.5059 -0.4325 -2.2815
  127OSM    C9S13563   6.184   5.283   7.121  0.3480 -0.2988 -0.1136
  127OSM    H9S13564   6.168   5.389   7.092  0.9941 -0.0830  0.2850
  127OSM    H9T13565   6.291   5.277   7.150  0.2769  2.2024  0.9499
  127OSM   C10S13566   6.101   5.250   7.245  0.0417  0.0177 -1.2719
  127OSM   H10S13567   6.092   5.141   7.264 -0.8601 -0.2268 -2.8678
  127OSM   H10T13568   5.998   5.288   7.228 -0.6374 -0.5614  1.1490
  127OSM   C11S13569   6.159   5.309   7.374 -0.3066  0.5295 -0.1982
  127OSM   H11S13570   6.167   5.419   7.361  0.9127  0.6736  1.4442
  127OSM   H11T13571   6.264   5.285   7.400  0.4886  2.0596 -1.8068
  127OSM   C12S13572   6.075   5.280   7.497  0.7403 -0.5476  0.3795
  127OSM   H12S13573   6.089   5.176   7.534  1.0842  0.0792  2.1202
  127OSM   H12T13574   5.968   5.280   7.468  0.6693  0.1537  0.6320
  127OSM   C13S13575   6.093   5.389   7.605  0.3112  0.1176 -0.4548
  127OSM   H13S13576   6.054   5.483   7.560 -4.6450 -1.2534  0.3374
  127OSM   H13T13577   6.203   5.400   7.616  0.0710  0.6723  1.9340
  127OSM   C14S13578   6.025   5.360   7.736  0.2530 -0.6341 -0.8233
  127OSM   H14S13579   5.921   5.325   7.725 -0.4011  1.2816 -1.1117
  127OSM   H14T13580   6.013   5.460   7.782 -1.1027 -0.8295 -0.7341
  127OSM   C15S13581   6.109   5.266   7.833 -0.6729  0.1585 -0.1610
  127OSM   H15S13582   6.209   5.310   7.852 -1.6852  2.1331  1.0258
  127OSM   H15T13583   6.115   5.172   7.775 -2.7323  0.4307 -0.9074
  127OSM   C16S13584   6.030   5.225   7.962  0.0950 -0.4258  0.2309
  127OSM   H16S13585   5.937   5.167   7.945 -0.2836  0.3680 -0.4726
  127OSM   H16T13586   6.005   5.319   8.016 -0.2520 -0.6818  0.5225
  127OSM   C17S13587   6.115   5.142   8.060  0.3493 -0.0800  1.1076
  127OSM   H17S13588   6.060   5.133   8.156  1.5674  1.2792  1.9805
  127OSM   H17T13589   6.211   5.196   8.075  0.2210  0.6053 -0.4183
  127OSM   C18S13590   6.122   4.993   8.017 -1.0914  0.1699 -0.5668
  127OSM   H18S13591   6.161   4.931   8.100  1.7154  2.0404 -0.3622
  127OSM   H18T13592   6.182   4.974   7.925 -0.3392 -1.5629  0.2404
  127OSM   H18U13593   6.018   4.960   7.993  0.5032 -5.5901 -1.1272
  127OSM    C1F13594   6.751   5.567   6.794 -0.5741  0.5334  0.9534
  127OSM     OF13595   6.713   5.677   6.765  0.0457  0.1921  0.1427
  127OSM    C2F13596   6.821   5.531   6.921 -0.2217  0.4736 -0.0727
  127OSM    H2F13597   6.777   5.438   6.963  0.1339  0.6081  0.5947
  127OSM    H2G13598   6.811   5.616   6.991  0.9637  1.3344 -0.9091
  127OSM    C3F13599   6.973   5.502   6.895  0.4975  0.1302  0.5082
  127OSM    H3F13600   7.014   5.578   6.825 -0.5887  0.3697  0.1265
  127OSM    H3G13601   6.977   5.402   6.847  0.2353  0.5505 -0.3980
  127OSM    C4F13602   7.061   5.493   7.021 -0.6817 -0.3741  0.0739
  127OSM    H4F13603   7.088   5.590   7.067  0.3476 -0.4689 -0.3093
  127OSM    H4G13604   7.153   5.450   6.978 -2.3775 -0.6622 -3.6257
  127OSM    C5F13605   7.009   5.411   7.136 -0.1155  1.1053 -0.0890
  127OSM    H5F13606   7.009   5.304   7.105 -1.0629  0.8467  0.7452
  127OSM    H5G13607   6.903   5.433   7.162  0.2741  1.5021  1.2113
  127OSM    C6F13608   7.090   5.410   7.270  0.6667  0.3859  1.0372
  127OSM    H6F13609   7.104   5.516   7.299 -0.0027  0.2615  1.8337
  127OSM    H6G13610   7.186   5.357   7.250  0.6191  0.4294  0.6835
  127OSM    C7F13611   7.008   5.327   7.376  0.3925 -0.1957 -0.8442
  127OSM    H7F13612   6.991   5.226   7.333  0.4117  0.4426 -2.4031
  127OSM    H7G13613   6.904   5.366   7.384  1.6703  3.8184 -1.9859
  127OSM    C8F13614   7.073   5.335   7.515  0.6506  0.1179 -0.6213
  127OSM    H8F13615   6.999   5.308   7.593 -0.4090  1.3181 -1.1882
  127OSM    H8G13616   7.093   5.440   7.544 -2.0503  0.3011  0.8533
  127OSM    C9F13617   7.188   5.247   7.517  0.4661  0.8607 -0.4303
  127OSM    H9F13618   7.278   5.295   7.476  1.1358 -0.2541 -0.3048
  127OSM   C10F13619   7.196   5.128   7.581 -0.0278 -0.5986  0.8216
  127OSM   H10F13620   7.291   5.075   7.572  0.6250  0.2340  2.4683
  127OSM   C11F13621   7.092   5.057   7.662 -0.1029  0.2773 -0.3002
  127OSM   H11F13622   7.066   4.961   7.612  0.8884  1.3884 -3.1510
  127OSM   H11G13623   6.995   5.112   7.667 -0.1394  0.2181 -0.3567
  127OSM   C12F13624   7.123   5.027   7.809  0.6408 -0.0488  0.2852
  127OSM   H12F13625   7.131   5.128   7.855  0.0778  0.1129  0.0507
  127OSM   H12G13626   7.223   4.980   7.817  0.2946 -1.1826 -1.3556
  127OSM   C13F13627   7.011   4.949   7.890  0.5330  0.5044 -0.0032
  127OSM   H13F13628   6.969   4.863   7.835 -1.8277  1.4963  0.1269
  127OSM   H13G13629   6.928   5.018   7.919 -1.2524 -1.6599  0.2847
  127OSM   C14F13630   7.084   4.893   8.015 -0.1651 -0.1584 -0.7600
  127OSM   H14F13631   7.145   4.971   8.064 -0.0273  0.4741 -1.8894
  127OSM   H14G13632   7.158   4.824   7.969 -0.6442  0.2422 -2.1835
  127OSM   C15F13633   6.999   4.834   8.127  0.0748  0.1442  0.7753
  127OSM   H15F13634   6.933   4.756   8.083  0.1948 -0.4578  1.6450
  127OSM   H15G13635   6.936   4.910   8.177  0.5782  0.3610  1.0840
  127OSM   C16F13636   7.089   4.766   8.231 -0.2203  0.0265 -0.4879
  127OSM   H16F13637   7.171   4.723   8.169  0.5464  0.1380  0.4200
  127OSM   H16G13638   7.047   4.680   8.288 -0.9725  1.2898  0.9373
  127OSM   C17F13639   7.145   4.851   8.344  0.7061 -0.4414  0.3304
  127OSM   H17F13640   7.061   4.890   8.405  0.0506 -0.2368 -0.6881
  127OSM   H17G13641   7.183   4.950   8.311 -1.3450  1.0058  2.0744
  127OSM   C18F13642   7.253   4.767   8.416 -0.2704  0.3809 -0.1169
  127OSM   H18F13643   7.219   4.691   8.489  2.0604  0.5547  1.2614
  127OSM   H18G13644   7.314   4.828   8.486 -0.3700 -0.5097  0.7679
  127OSM   H18H13645   7.314   4.718   8.338  0.0370 -0.8295  0.8598
  128OSM      N13646   6.857   3.535   5.893  1.0581  0.0115  0.2112
  128OSM    C1513647   6.998   3.490   5.857 -0.3926  0.0917 -1.0719
  128OSM   H15A13648   7.012   3.447   5.758 -0.9913 -0.9814 -0.7048
  128OSM   H15B13649   7.028   3.407   5.918  0.0182  0.6864 -0.4566
  128OSM   H15C13650   7.068   3.570   5.873 -0.1276 -0.3098 -0.1791
  128OSM    C1413651   6.812   3.639   5.794  0.2256 -0.2586  0.1769
  128OSM   H14A13652   6.706   3.647   5.812  0.4991 -0.3416  1.9282
  128OSM   H14B13653   6.832   3.614   5.691 -1.5389  0.4319 -0.3818
  128OSM   H14C13654   6.865   3.731   5.811  1.8654 -0.5574 -2.6236
  128OSM    C1313655   6.760   3.419   5.875 -0.1131 -0.2205  0.2841
  128OSM   H13A13656   6.657   3.454   5.873  0.8187  2.8257 -0.7367
  128OSM   H13B13657   6.757   3.365   5.968 -1.7539 -0.6948 -0.0064
  128OSM   H13C13658   6.782   3.354   5.792  0.8699 -1.9526  1.8402
  128OSM    C1213659   6.837   3.592   6.038  0.7583 -0.4447 -0.3236
  128OSM   H12A13660   6.741   3.641   6.040  1.3147  0.6899  2.1683
  128OSM   H12B13661   6.899   3.678   6.057 -0.7853  0.4290  1.0372
  128OSM    C1113662   6.832   3.494   6.153 -0.5193  0.4499  0.0030
  128OSM   H11A13663   6.850   3.544   6.250  0.2638  1.2411 -0.5248
  128OSM   H11B13664   6.910   3.420   6.126 -0.6252  1.2451 -2.8351
  128OSM      P13665   6.575   3.507   6.210 -0.0872 -0.0537  0.0180
  128OSM    O1313666   6.589   3.655   6.212 -0.4486 -0.3989 -0.3613
  128OSM    O1413667   6.470   3.451   6.130  0.3906 -0.0983  0.8983
  128OSM    O1113668   6.547   3.463   6.363  0.5568 -0.1575  0.5346
  128OSM    O1213669   6.708   3.437   6.160  0.1827 -0.5302  0.1250
  128OSM    C1S13670   6.633   3.359   6.407  0.5157  0.4000 -0.5155
  128OSM    H1S13671   6.736   3.400   6.408 -0.4045  3.2121 -3.4058
  128OSM    H1T13672   6.619   3.266   6.348  1.3124 -0.7997  1.1097
  128OSM     NF13673   6.695   3.225   6.597  0.1925  0.0179 -0.1021
  128OSM    HNF13674   6.655   3.134   6.587 -0.9167  0.4042  0.5268
  128OSM    C2S13675   6.596   3.316   6.552 -0.3933 -0.7804  0.0552
  128OSM    H2S13676   6.597   3.407   6.617 -1.6964  0.1873 -1.2180
  128OSM    C3S13677   6.452   3.257   6.557 -0.3720 -0.4148  0.1990
  128OSM    H3S13678   6.466   3.160   6.505  0.9952 -1.0202  1.6042
  128OSM     O313679   6.356   3.338   6.486  0.3641 -0.1595 -0.2096
  128OSM    HO313680   6.418   3.399   6.444  0.0569 -0.2307 -0.7776
  128OSM    C4S13681   6.419   3.223   6.702 -0.9611 -0.0790 -0.2590
  128OSM    H4S13682   6.448   3.122   6.733 -0.6237  0.3982  1.0414
  128OSM    C5S13683   6.364   3.299   6.798 -0.3195  0.1933  0.0625
  128OSM    H5S13684   6.314   3.395   6.777 -1.3726 -0.5770 -1.1668
  128OSM    C6S13685   6.350   3.253   6.936  0.2819 -0.4755  0.4100
  128OSM    H6S13686   6.374   3.146   6.954 -1.3359 -0.8986  0.2110
  128OSM    H6T13687   6.243   3.269   6.960 -0.5287  0.4852 -3.1494
  128OSM    C7S13688   6.430   3.342   7.027 -0.0826 -0.2631  0.4096
  128OSM    H7S13689   6.389   3.339   7.130  0.7991 -1.1892  0.7504
  128OSM    H7T13690   6.423   3.447   6.989  1.3044 -1.5819 -4.1751
  128OSM    C8S13691   6.588   3.328   7.040 -0.5295  0.3240  0.2145
  128OSM    H8S13692   6.621   3.425   7.082 -0.8258  0.5144  0.0094
  128OSM    H8T13693   6.638   3.315   6.941 -1.5356 -1.6167 -0.0801
  128OSM    C9S13694   6.636   3.210   7.124 -0.0776 -0.1809  0.8534
  128OSM    H9S13695   6.747   3.202   7.124 -0.1081 -0.5823  0.7724
  128OSM    H9T13696   6.594   3.119   7.077 -0.4973  1.4864 -2.2873
  128OSM   C10S13697   6.604   3.212   7.271  0.4006 -1.0908  0.5543
  128OSM   H10S13698   6.496   3.191   7.289  0.1832 -0.2453  0.3137
  128OSM   H10T13699   6.615   3.314   7.315 -1.3637 -1.3186  1.6137
  128OSM   C11S13700   6.687   3.105   7.347  0.5294 -0.3200 -0.5405
  128OSM   H11S13701   6.784   3.148   7.380  0.8690 -1.9821  0.7744
  128OSM   H11T13702   6.707   3.013   7.287 -0.9539 -0.9705 -0.0780
  128OSM   C12S13703   6.613   3.069   7.469  0.0752 -1.0065  0.3325
  128OSM   H12S13704   6.507   3.039   7.451  0.2157 -0.3204 -1.8777
  128OSM   H12T13705   6.606   3.161   7.530  0.2176 -0.5157 -0.3844
  128OSM   C13S13706   6.685   2.964   7.556 -0.0904  0.7803 -0.5581
  128OSM   H13S13707   6.789   2.999   7.566  0.0632  0.4630 -1.0018
  128OSM   H13T13708   6.689   2.864   7.507 -0.5819 -0.0360  0.9924
  128OSM   C14S13709   6.620   2.940   7.698 -0.9560 -0.0855 -0.4603
  128OSM   H14S13710   6.687   2.870   7.752  0.0069 -0.6432 -2.2755
  128OSM   H14T13711   6.522   2.887   7.689  0.1753 -2.8319  1.8236
  128OSM   C15S13712   6.600   3.069   7.784  0.1164  0.7912  0.3963
  128OSM   H15S13713   6.509   3.121   7.747 -1.7930 -0.5155  2.9131
  128OSM   H15T13714   6.685   3.139   7.792 -0.9809  1.9601  2.5036
  128OSM   C16S13715   6.571   3.023   7.931  0.3250 -0.6035 -0.0481
  128OSM   H16S13716   6.661   2.999   7.991  0.0765  0.1535  0.6410
  128OSM   H16T13717   6.521   2.924   7.933  0.1315 -0.5004  2.1662
  128OSM   C17S13718   6.486   3.129   8.004  0.2499  0.1039  0.0567
  128OSM   H17S13719   6.385   3.127   7.957 -0.2820  0.8906  1.1168
  128OSM   H17T13720   6.519   3.234   7.984  3.5626 -0.6282  1.0887
  128OSM   C18S13721   6.481   3.089   8.153  0.1746  0.2580  0.0989
  128OSM   H18S13722   6.425   2.994   8.163  0.0572  0.5267  2.4911
  128OSM   H18T13723   6.428   3.158   8.223 -1.1412 -0.5038 -0.1103
  128OSM   H18U13724   6.581   3.071   8.197  0.8834  0.7237 -1.2590
  128OSM    C1F13725   6.823   3.259   6.623  0.6797 -0.1081 -0.2326
  128OSM     OF13726   6.854   3.374   6.633 -0.0121 -0.1445 -0.6070
  128OSM    C2F13727   6.922   3.148   6.632 -0.0000  0.2080 -0.0900
  128OSM    H2F13728   7.014   3.175   6.575  2.0393 -2.1975  1.8100
  128OSM    H2G13729   6.881   3.055   6.588 -0.1860  0.3501 -0.2190
  128OSM    C3F13730   6.988   3.116   6.769 -0.0995  0.3213  0.8778
  128OSM    H3F13731   7.041   3.210   6.796  2.4479 -0.4821 -0.9998
  128OSM    H3G13732   7.063   3.039   6.742 -2.6619 -2.0049 -0.0667
  128OSM    C4F13733   6.896   3.055   6.872  0.0265 -0.0581  0.1742
  128OSM    H4F13734   6.825   2.985   6.822  0.3963 -1.6554  1.7598
  128OSM    H4G13735   6.831   3.130   6.921 -1.4742 -0.3570 -1.2670
  128OSM    C5F13736   6.978   2.960   6.969  0.9040 -0.3865  0.2548
  128OSM    H5F13737   7.077   2.942   6.920 -0.0151 -1.1387 -1.4107
  128OSM    H5G13738   6.942   2.855   6.965 -2.2751  0.5952  0.5264
  128OSM    C6F13739   6.989   3.022   7.107 -0.0665 -0.0035 -0.1314
  128OSM    H6F13740   6.883   3.025   7.140 -0.5736  1.1438 -1.7066
  128OSM    H6G13741   7.007   3.131   7.097 -1.8999  0.3400 -0.0479
  128OSM    C7F13742   7.080   2.938   7.195 -0.6363 -0.1738 -0.3459
  128OSM    H7F13743   7.182   2.922   7.155 -1.3302  0.6925 -2.6585
  128OSM    H7G13744   7.033   2.838   7.198  0.0179 -0.4614  1.5630
  128OSM    C8F13745   7.077   2.995   7.332  0.3503  0.2340 -0.0553
  128OSM    H8F13746   6.968   3.006   7.353 -0.0564 -1.6206 -0.9706
  128OSM    H8G13747   7.140   3.086   7.336  1.7933 -0.6798 -1.1240
  128OSM    C9F13748   7.138   2.887   7.423 -0.1520 -0.2991 -0.2221
  128OSM    H9F13749   7.152   2.786   7.382  0.8522 -0.4668  0.5045
  128OSM   C10F13750   7.176   2.910   7.549  0.0735  0.8227  0.0724
  128OSM   H10F13751   7.239   2.833   7.596  1.7861  1.3183 -1.3149
  128OSM   C11F13752   7.154   3.039   7.621  0.0160  0.2110  0.2654
  128OSM   H11F13753   7.098   3.120   7.570  0.1617 -0.0081 -0.2564
  128OSM   H11G13754   7.257   3.074   7.643  1.1909 -1.1099 -2.5497
  128OSM   C12F13755   7.078   3.011   7.745 -0.1716  0.2889 -0.5430
  128OSM   H12F13756   6.982   2.959   7.726  0.5191 -1.2305  0.0162
  128OSM   H12G13757   7.061   3.112   7.788  0.6883 -0.3419  1.3519
  128OSM   C13F13758   7.147   2.921   7.850 -0.0214 -0.9046  0.2909
  128OSM   H13F13759   7.251   2.960   7.855 -0.4068  1.0472 -3.4134
  128OSM   H13G13760   7.155   2.818   7.809  1.1394  0.9419 -4.8270
  128OSM   C14F13761   7.077   2.915   7.987 -0.6243 -0.6621  0.9446
  128OSM   H14F13762   7.111   2.828   8.047 -1.0063 -1.3755  0.1474
  128OSM   H14G13763   6.967   2.911   7.973 -0.7334  3.3092 -0.6310
  128OSM   C15F13764   7.091   3.046   8.067 -0.3542 -0.1179 -0.3059
  128OSM   H15F13765   7.064   3.137   8.008 -0.9230 -0.9570 -1.3665
  128OSM   H15G13766   7.201   3.061   8.076 -0.2484 -1.4029  0.7189
  128OSM   C16F13767   7.030   3.041   8.206 -0.2251 -0.0219 -0.5748
  128OSM   H16F13768   6.981   2.942   8.215 -0.2495 -0.3736 -3.6077
  128OSM   H16G13769   6.951   3.120   8.207  1.1652  1.4341 -0.8179
  128OSM   C17F13770   7.129   3.081   8.316  0.1987 -0.5691 -0.6839
  128OSM   H17F13771   7.154   3.188   8.301  1.1742 -0.5442  0.8490
  128OSM   H17G13772   7.221   3.018   8.320 -0.0312 -0.8496  0.7508
  128OSM   C18F13773   7.063   3.083   8.457  0.0509  0.4245 -0.1021
  128OSM   H18F13774   7.008   3.179   8.470 -0.3240  0.1959 -0.0092
  128OSM   H18G13775   7.146   3.093   8.531  0.2359  0.0798 -0.2611
  128OSM   H18H13776   7.002   2.993   8.479  0.7223 -0.1674 -0.6096
  129OSM      N13777   4.366   2.528   5.823 -0.2603  0.1124  1.2775
  129OSM    C1513778   4.341   2.395   5.870  0.2734 -0.0336  0.0842
  129OSM   H15A13779   4.242   2.383   5.911  0.2270  0.4337  0.1176
  129OSM   H15B13780   4.413   2.355   5.940 -0.0301  1.1629  1.1203
  129OSM   H15C13781   4.341   2.320   5.792 -2.0569 -1.5337  1.4171
  129OSM    C1413782   4.495   2.526   5.754 -0.1270  0.6070 -0.0643
  129OSM   H14A13783   4.504   2.616   5.695  1.4155  2.6551  3.0257
  129OSM   H14B13784   4.503   2.441   5.687 -0.4069 -0.6943  1.4997
  129OSM   H14C13785   4.576   2.525   5.825 -0.1843  0.8946  0.0041
  129OSM    C1313786   4.268   2.554   5.711 -0.2655  0.1868  0.2483
  129OSM   H13A13787   4.182   2.588   5.766 -0.5998  2.6788 -1.6353
  129OSM   H13B13788   4.234   2.464   5.663 -2.9518  0.5444  1.3227
  129OSM   H13C13789   4.306   2.627   5.642 -1.7196 -1.4344 -2.4419
  129OSM    C1213790   4.361   2.637   5.931  0.7402  0.0940  0.5564
  129OSM   H12A13791   4.361   2.731   5.878  1.4852  1.3798  2.6959
  129OSM   H12B13792   4.445   2.629   5.998  0.6365  0.1344  0.6903
  129OSM    C1113793   4.240   2.640   6.026  0.7307  0.2733  0.3732
  129OSM   H11A13794   4.252   2.729   6.093 -1.6721  0.4661  0.6434
  129OSM   H11B13795   4.246   2.547   6.086 -2.0899  1.0387  2.0728
  129OSM      P13796   4.003   2.741   5.993  0.1762 -0.1818 -0.0267
  129OSM    O1313797   4.009   2.849   5.889 -0.5923 -0.1442  0.8393
  129OSM    O1413798   3.880   2.664   5.993 -0.6963  0.0086  0.1953
  129OSM    O1113799   4.026   2.792   6.140 -1.0943 -0.0152 -0.0098
  129OSM    O1213800   4.118   2.650   5.954  0.3752  0.6588 -0.6557
  129OSM    C1S13801   3.965   2.912   6.183 -0.0247 -0.3375  0.3823
  129OSM    H1S13802   3.867   2.935   6.137 -0.4357 -0.0314  1.3979
  129OSM    H1T13803   4.024   3.003   6.159 -0.7123  0.0556  0.1561
  129OSM     NF13804   3.912   3.051   6.380  0.7698 -0.3572 -0.4995
  129OSM    HNF13805   3.980   3.102   6.434 -0.5046 -0.1594  0.9879
  129OSM    C2S13806   3.962   2.917   6.341 -0.0246 -0.1662  0.2887
  129OSM    H2S13807   3.885   2.841   6.365  1.2284 -1.8045 -0.6455
  129OSM    C3S13808   4.099   2.875   6.404 -0.1619 -0.2501  0.3571
  129OSM    H3S13809   4.175   2.943   6.360 -0.8672 -0.7060 -1.7077
  129OSM     O313810   4.145   2.741   6.382  0.1536  0.1045  0.5171
  129OSM    HO313811   4.085   2.724   6.310 -1.9035  0.4809  2.0569
  129OSM    C4S13812   4.083   2.912   6.556  0.5087 -0.0559  0.0202
  129OSM    H4S13813   4.088   3.018   6.584 -0.9892  0.1906 -0.5662
  129OSM    C5S13814   4.052   2.823   6.656  0.2056 -1.1043 -0.2246
  129OSM    H5S13815   4.029   2.718   6.632 -0.6516 -0.6688 -1.3519
  129OSM    C6S13816   4.049   2.856   6.804  0.0077 -0.0361  0.2730
  129OSM    H6S13817   4.029   2.964   6.821  0.4592 -0.0358  0.8074
  129OSM    H6T13818   4.140   2.817   6.853 -1.4127 -3.5994  0.3937
  129OSM    C7S13819   3.921   2.776   6.860 -0.5096 -0.0320  0.3540
  129OSM    H7S13820   3.947   2.668   6.851 -0.5078  0.0700 -1.3604
  129OSM    H7T13821   3.834   2.806   6.797  0.7397  1.7873 -0.6095
  129OSM    C8S13822   3.892   2.798   7.005  0.4234  0.0041 -0.1275
  129OSM    H8S13823   3.986   2.768   7.057  1.0052 -0.2746 -1.3128
  129OSM    H8T13824   3.811   2.728   7.036  2.7804 -2.1409  1.6411
  129OSM    C9S13825   3.873   2.940   7.045  0.5540  0.0041 -0.5300
  129OSM    H9S13826   3.798   2.989   6.979 -2.1369 -1.1203  1.4873
  129OSM    H9T13827   3.968   2.997   7.054  1.2445 -1.3044  1.1309
  129OSM   C10S13828   3.801   2.945   7.180  0.1014  0.1256 -0.6581
  129OSM   H10S13829   3.702   2.898   7.164  0.2845 -0.3867 -0.3314
  129OSM   H10T13830   3.778   3.051   7.204 -0.1099 -0.3117  1.2075
  129OSM   C11S13831   3.870   2.897   7.308 -0.4124  0.2066  0.2301
  129OSM   H11S13832   3.963   2.958   7.313 -0.1975 -0.1106  0.1649
  129OSM   H11T13833   3.886   2.789   7.288  2.7349  0.8198 -1.2008
  129OSM   C12S13834   3.788   2.907   7.435 -0.1414  0.4411  0.4703
  129OSM   H12S13835   3.696   2.848   7.416 -0.8598  1.6822 -0.0124
  129OSM   H12T13836   3.751   3.010   7.451 -0.2135  0.5965 -0.6036
  129OSM   C13S13837   3.865   2.850   7.562  0.3686  1.2313 -0.4027
  129OSM   H13S13838   3.974   2.872   7.573  0.6160  0.1590 -0.5535
  129OSM   H13T13839   3.867   2.741   7.540 -0.8882  1.6682 -3.0260
  129OSM   C14S13840   3.793   2.880   7.691  0.1884  0.2981  0.4825
  129OSM   H14S13841   3.700   2.820   7.681  0.7226 -0.4538 -0.1629
  129OSM   H14T13842   3.760   2.984   7.711 -1.0840  0.1993 -0.9169
  129OSM   C15S13843   3.857   2.826   7.822 -0.0884  0.1874 -0.0018
  129OSM   H15S13844   3.954   2.880   7.822 -0.4058  1.1034 -3.8741
  129OSM   H15T13845   3.875   2.718   7.806  1.2873  0.1858  1.3879
  129OSM   C16S13846   3.774   2.852   7.957  0.7662  0.2984 -1.3130
  129OSM   H16S13847   3.672   2.809   7.950 -0.6267  3.0103  0.5491
  129OSM   H16T13848   3.762   2.962   7.966  2.6314  0.4731 -0.5562
  129OSM   C17S13849   3.848   2.801   8.075  0.5067 -0.6104  0.3369
  129OSM   H17S13850   3.946   2.853   8.079 -0.4852  1.2795  1.2100
  129OSM   H17T13851   3.869   2.692   8.064  1.3863 -0.4888  0.7772
  129OSM   C18S13852   3.788   2.805   8.214  0.5795  0.1305 -0.0879
  129OSM   H18S13853   3.681   2.773   8.209  0.5054  0.2136  0.7988
  129OSM   H18T13854   3.798   2.904   8.263  0.1849  0.2930 -0.3341
  129OSM   H18U13855   3.838   2.741   8.290 -2.1852 -1.6534  0.3809
  129OSM    C1F13856   3.790   3.091   6.362  0.8279  0.0654  0.4032
  129OSM     OF13857   3.713   3.011   6.314 -0.1426  0.3601  0.8103
  129OSM    C2F13858   3.747   3.230   6.405 -0.3997 -0.1440 -0.1348
  129OSM    H2F13859   3.731   3.287   6.311  0.2143 -0.0662 -0.1925
  129OSM    H2G13860   3.835   3.277   6.455 -0.7997 -1.1292  1.5874
  129OSM    C3F13861   3.624   3.231   6.501  0.5284  0.0127  0.1838
  129OSM    H3F13862   3.534   3.189   6.451  0.0489  0.1416  0.9311
  129OSM    H3G13863   3.605   3.338   6.519  0.0995  0.1189 -0.8187
  129OSM    C4F13864   3.639   3.163   6.631  0.2241  0.5328  0.0980
  129OSM    H4F13865   3.733   3.205   6.672  0.4767  0.0376  0.0317
  129OSM    H4G13866   3.657   3.054   6.616  0.2106  0.3349  1.3702
  129OSM    C5F13867   3.521   3.184   6.724 -0.4178 -0.2818  0.1164
  129OSM    H5F13868   3.420   3.170   6.680  0.8637 -1.9123 -2.5493
  129OSM    H5G13869   3.527   3.292   6.749 -1.0806  0.2964 -2.0131
  129OSM    C6F13870   3.540   3.112   6.861 -0.7869  0.6844  0.0826
  129OSM    H6F13871   3.637   3.132   6.913 -0.2350 -4.4902  1.5976
  129OSM    H6G13872   3.534   3.001   6.855 -2.4939  0.7456  0.2651
  129OSM    C7F13873   3.422   3.159   6.950  0.4489  0.0213  0.1309
  129OSM    H7F13874   3.325   3.156   6.896 -0.9324  0.5917  2.4439
  129OSM    H7G13875   3.444   3.267   6.969  0.2403 -0.0996  1.1089
  129OSM    C8F13876   3.413   3.088   7.093 -0.0793  0.6698 -0.8648
  129OSM    H8F13877   3.517   3.077   7.128 -0.7256 -1.4758  0.5891
  129OSM    H8G13878   3.361   2.990   7.081 -0.3605  0.6036  0.7265
  129OSM    C9F13879   3.325   3.167   7.191  0.3989 -0.6872 -0.2004
  129OSM    H9F13880   3.229   3.200   7.148 -0.1026 -1.3473  0.3940
  129OSM   C10F13881   3.359   3.219   7.314 -0.2500 -1.0377 -0.3855
  129OSM   H10F13882   3.272   3.265   7.364  0.3908 -0.1672 -0.0464
  129OSM   C11F13883   3.489   3.201   7.387  0.2515 -0.6730 -0.0064
  129OSM   H11F13884   3.540   3.298   7.404 -2.1400  0.5174  0.7726
  129OSM   H11G13885   3.567   3.155   7.323  1.8699  2.5131 -0.5095
  129OSM   C12F13886   3.468   3.109   7.511 -0.3202 -0.0527  0.8850
  129OSM   H12F13887   3.572   3.092   7.548  0.9193 -0.7455 -2.5171
  129OSM   H12G13888   3.455   3.006   7.472 -1.8040  1.3074 -2.6642
  129OSM   C13F13889   3.383   3.164   7.620 -0.2932  0.2063  0.3801
  129OSM   H13F13890   3.277   3.163   7.588 -1.4607  2.0460  3.6723
  129OSM   H13G13891   3.398   3.271   7.644 -2.3297  0.9863 -1.4899
  129OSM   C14F13892   3.403   3.088   7.747 -0.3432 -0.9811  0.3480
  129OSM   H14F13893   3.503   3.107   7.790 -1.5393  0.6383  2.6663
  129OSM   H14G13894   3.385   2.979   7.732 -2.4673 -1.2613  3.7772
  129OSM   C15F13895   3.292   3.133   7.846 -0.0431  0.1683 -0.4800
  129OSM   H15F13896   3.196   3.106   7.797 -0.4858 -2.3521  1.5598
  129OSM   H15G13897   3.276   3.241   7.869  0.1709 -0.1150  1.0961
  129OSM   C16F13898   3.303   3.066   7.984 -0.3252 -0.0477  0.4908
  129OSM   H16F13899   3.321   2.956   7.984  0.7251  0.1069 -0.8412
  129OSM   H16G13900   3.203   3.083   8.031 -1.4397 -1.7204 -1.1100
  129OSM   C17F13901   3.407   3.145   8.069 -0.1897 -0.9792  0.3211
  129OSM   H17F13902   3.384   3.254   8.077  0.2986 -0.6766 -1.9172
  129OSM   H17G13903   3.501   3.142   8.010  0.9513 -0.1262  1.9918
  129OSM   C18F13904   3.417   3.080   8.208 -1.1332 -0.0328  0.2716
  129OSM   H18F13905   3.402   2.970   8.202 -1.0135 -0.0847  0.8589
  129OSM   H18G13906   3.342   3.127   8.274 -1.8865 -0.3782 -0.3254
  129OSM   H18H13907   3.519   3.101   8.247 -1.2785  2.3431 -0.4735
  130OSM      N13908   5.202   2.555   5.955  0.2606 -0.0939  0.0753
  130OSM    C1513909   5.118   2.437   5.969  0.7707 -0.7893  0.3468
  130OSM   H15A13910   5.150   2.359   6.037 -0.8860 -2.4344 -0.6613
  130OSM   H15B13911   5.110   2.385   5.874 -0.0412  0.6785 -0.4247
  130OSM   H15C13912   5.020   2.472   5.999 -0.6706 -2.9170 -1.4781
  130OSM    C1413913   5.332   2.512   5.901 -0.3376  0.2074  0.0107
  130OSM   H14A13914   5.320   2.445   5.817 -0.8673  1.2038 -0.7283
  130OSM   H14B13915   5.401   2.464   5.969  1.7938  0.2530 -1.9776
  130OSM   H14C13916   5.385   2.596   5.857 -0.3362 -0.2165 -0.8146
  130OSM    C1313917   5.144   2.650   5.857 -0.3414  0.0495  0.4490
  130OSM   H13A13918   5.057   2.702   5.895  0.3460  1.4399  0.1743
  130OSM   H13B13919   5.115   2.608   5.761  0.2037  0.0664  0.2739
  130OSM   H13C13920   5.215   2.730   5.843  0.1007  0.1968  3.1559
  130OSM    C1213921   5.219   2.626   6.090 -0.3124  0.5741  0.1777
  130OSM   H12A13922   5.294   2.703   6.079  0.9971 -0.1894  2.7492
  130OSM   H12B13923   5.255   2.544   6.151 -2.0696 -0.9669 -0.7505
  130OSM    C1113924   5.094   2.680   6.168  0.7238 -0.2733  0.2354
  130OSM   H11A13925   5.136   2.722   6.261  2.3390 -1.5529  0.1299
  130OSM   H11B13926   5.035   2.591   6.200  0.9055  0.2915  2.2423
  130OSM      P13927   5.022   2.925   6.111  0.1102 -0.0163  0.0030
  130OSM    O1313928   5.167   2.959   6.129  0.4267 -0.0448  0.1669
  130OSM    O1413929   4.948   3.000   6.006  0.1116  0.0855  0.4610
  130OSM    O1113930   4.946   2.938   6.247  0.1430 -0.4314 -1.0558
  130OSM    O1213931   5.018   2.772   6.091 -0.6479  0.6018  0.2197
  130OSM    C1S13932   4.821   2.874   6.255  0.4414  1.2527  0.2070
  130OSM    H1S13933   4.824   2.764   6.241  1.4817  1.3442 -0.4033
  130OSM    H1T13934   4.742   2.913   6.188 -1.4760 -1.0485  0.9995
  130OSM     NF13935   4.672   2.797   6.443  0.6049  0.2993  0.4872
  130OSM    HNF13936   4.575   2.815   6.431  0.9655  0.9595 -1.8045
  130OSM    C2S13937   4.765   2.894   6.399 -0.0542 -0.7246  0.2027
  130OSM    H2S13938   4.848   2.896   6.474 -0.2124  0.1233  0.3645
  130OSM    C3S13939   4.710   3.038   6.409 -0.0136 -0.5977  0.4621
  130OSM    H3S13940   4.657   3.060   6.313  2.4067  0.4390 -0.7474
  130OSM     O313941   4.808   3.145   6.413  0.0084  0.7327 -0.5158
  130OSM    HO313942   4.894   3.106   6.393 -0.0327  1.5266 -2.4842
  130OSM    C4S13943   4.617   3.060   6.532 -0.2371 -0.1259  0.2864
  130OSM    H4S13944   4.674   3.059   6.626  0.6142  2.6457 -0.1103
  130OSM    C5S13945   4.477   3.079   6.532  0.2637 -0.7023  0.6424
  130OSM    H5S13946   4.422   3.087   6.437  0.6723 -0.8577  0.3890
  130OSM    C6S13947   4.389   3.103   6.654  0.5191  0.4656  0.5381
  130OSM    H6S13948   4.328   3.010   6.658  0.8594  0.2729  1.5394
  130OSM    H6T13949   4.318   3.189   6.649 -1.8432 -1.3801  0.2695
  130OSM    C7S13950   4.465   3.109   6.788 -0.2030  0.7541 -0.3517
  130OSM    H7S13951   4.547   3.184   6.788 -0.0098  0.5584  0.8503
  130OSM    H7T13952   4.508   3.006   6.791  1.3545  1.3772 -0.1031
  130OSM    C8S13953   4.362   3.134   6.902 -0.1998 -0.2126 -0.1868
  130OSM    H8S13954   4.282   3.057   6.895 -1.1931  0.8207 -0.6469
  130OSM    H8T13955   4.313   3.233   6.884 -0.0607 -0.3136 -1.2123
  130OSM    C9S13956   4.431   3.133   7.040  0.7214  0.0404  0.2032
  130OSM    H9S13957   4.509   3.213   7.034  0.3474  0.3241 -4.3794
  130OSM    H9T13958   4.484   3.036   7.044 -2.4338 -1.7793  0.8683
  130OSM   C10S13959   4.345   3.145   7.161 -0.2077  0.2473 -0.3655
  130OSM   H10S13960   4.274   3.060   7.168  1.3659 -1.1467 -0.7493
  130OSM   H10T13961   4.294   3.244   7.159  2.1483  1.6049  1.5279
  130OSM   C11S13962   4.429   3.129   7.289  0.3785 -0.1213 -0.3968
  130OSM   H11S13963   4.531   3.172   7.287 -0.0543  1.1015  1.5458
  130OSM   H11T13964   4.443   3.019   7.297  1.7382 -0.0138 -0.9192
  130OSM   C12S13965   4.352   3.177   7.409 -0.6195 -0.4326 -0.2622
  130OSM   H12S13966   4.249   3.135   7.403  0.0223 -2.4592  1.3675
  130OSM   H12T13967   4.340   3.287   7.411  0.8521 -0.2607 -0.0050
  130OSM   C13S13968   4.428   3.139   7.545  0.4233 -0.0267  0.7440
  130OSM   H13S13969   4.519   3.201   7.531  0.8975 -0.9681 -0.5709
  130OSM   H13T13970   4.450   3.030   7.552  3.3580  0.1719 -2.4967
  130OSM   C14S13971   4.351   3.181   7.670  0.0876  0.2364 -1.0548
  130OSM   H14S13972   4.248   3.144   7.651  0.5379 -1.0841 -1.0294
  130OSM   H14T13973   4.352   3.291   7.679 -0.1754  0.3164 -1.9992
  130OSM   C15S13974   4.400   3.124   7.803  0.1620 -0.4866  0.3228
  130OSM   H15S13975   4.504   3.159   7.816  0.6473 -1.1919 -1.3353
  130OSM   H15T13976   4.403   3.013   7.791 -0.7248 -0.5834  0.8985
  130OSM   C16S13977   4.318   3.161   7.925 -0.2380 -0.1588 -0.9381
  130OSM   H16S13978   4.210   3.140   7.909 -0.8053  1.3063  0.6694
  130OSM   H16T13979   4.323   3.271   7.936 -0.1213 -0.3402  1.4979
  130OSM   C17S13980   4.388   3.099   8.044  0.2301 -0.5900 -0.1392
  130OSM   H17S13981   4.488   3.143   8.063 -0.0549 -0.3593  0.9106
  130OSM   H17T13982   4.397   2.989   8.037  1.5611 -0.4367 -1.3184
  130OSM   C18S13983   4.310   3.130   8.171 -0.3182  0.1250  0.3918
  130OSM   H18S13984   4.308   3.240   8.185 -2.1626  0.3616 -1.3278
  130OSM   H18T13985   4.350   3.085   8.264 -1.2645 -0.9387  0.3064
  130OSM   H18U13986   4.203   3.103   8.185 -0.7678  2.3686  1.7756
  130OSM    C1F13987   4.699   2.669   6.482 -0.3422 -0.0338 -0.5026
  130OSM     OF13988   4.812   2.627   6.473  0.1468  0.4018  0.3653
  130OSM    C2F13989   4.582   2.588   6.534 -0.2114  0.0835 -0.2061
  130OSM    H2F13990   4.583   2.500   6.466  0.7477  0.7043 -1.0180
  130OSM    H2G13991   4.485   2.641   6.518 -0.6188 -0.3769  0.6864
  130OSM    C3F13992   4.597   2.565   6.687 -0.6547  0.0430  0.1624
  130OSM    H3F13993   4.693   2.510   6.699 -0.4981  0.2013 -0.3285
  130OSM    H3G13994   4.511   2.501   6.715 -0.0448 -1.0979 -0.4815
  130OSM    C4F13995   4.598   2.686   6.778  0.1276 -0.0366 -0.0087
  130OSM    H4F13996   4.507   2.744   6.750  0.1427  0.9876  1.9498
  130OSM    H4G13997   4.682   2.750   6.743 -0.9836  2.1598  1.1367
  130OSM    C5F13998   4.617   2.662   6.923  1.0800 -0.2624  0.0757
  130OSM    H5F13999   4.634   2.759   6.975 -0.2920 -1.0461  2.1017
  130OSM    H5G14000   4.704   2.594   6.931  0.6167 -0.9451 -0.6157
  130OSM    C6F14001   4.497   2.599   6.993  0.0627 -0.0220 -0.6999
  130OSM    H6F14002   4.495   2.492   6.962  0.4662 -0.3873  0.4805
  130OSM    H6G14003   4.405   2.646   6.952 -0.1541 -0.8992 -1.2394
  130OSM    C7F14004   4.507   2.596   7.148 -0.2822  0.6467 -0.6508
  130OSM    H7F14005   4.603   2.551   7.182 -1.8791 -0.2992  3.1482
  130OSM    H7G14006   4.431   2.525   7.186  0.0908 -0.4753 -1.9220
  130OSM    C8F14007   4.486   2.731   7.221 -0.3846  0.1895  0.1598
  130OSM    H8F14008   4.535   2.803   7.152  1.5066 -0.1541  1.0535
  130OSM    H8G14009   4.545   2.739   7.315  0.0791 -0.2686 -0.0864
  130OSM    C9F14010   4.341   2.764   7.239  0.4697  0.2240 -0.1989
  130OSM    H9F14011   4.285   2.805   7.153 -1.1695 -0.3570  0.5517
  130OSM   C10F14012   4.278   2.767   7.361  0.3326 -1.4185 -0.2679
  130OSM   H10F14013   4.172   2.798   7.365  0.9825  0.8624  1.8015
  130OSM   C11F14014   4.344   2.731   7.495 -0.0679  0.0736  0.3664
  130OSM   H11F14015   4.435   2.796   7.498  0.8045 -0.9444 -1.9135
  130OSM   H11G14016   4.380   2.626   7.491  0.8159  0.3131  1.3874
  130OSM   C12F14017   4.250   2.749   7.610  0.0289  0.6695 -0.8422
  130OSM   H12F14018   4.171   2.672   7.596 -0.1415  0.8886 -1.0976
  130OSM   H12G14019   4.210   2.852   7.624 -0.5398  0.3449 -0.0193
  130OSM   C13F14020   4.322   2.713   7.751  0.1940 -0.0422  0.5196
  130OSM   H13F14021   4.382   2.797   7.793  0.7805  0.1750 -0.7053
  130OSM   H13G14022   4.398   2.637   7.724 -0.3129 -0.9072  1.4590
  130OSM   C14F14023   4.228   2.657   7.854  0.0387 -0.8428 -0.5520
  130OSM   H14F14024   4.206   2.549   7.834  0.8040 -1.7634  2.9054
  130OSM   H14G14025   4.141   2.725   7.850  0.0844 -0.8226 -1.2810
  130OSM   C15F14026   4.276   2.670   7.999 -0.1963 -0.0896 -0.0651
  130OSM   H15F14027   4.276   2.776   8.033  2.6097 -0.1810  0.4700
  130OSM   H15G14028   4.373   2.619   8.018 -0.7676 -1.4317 -0.6126
  130OSM   C16F14029   4.180   2.599   8.099 -0.3002 -0.0441 -0.0740
  130OSM   H16F14030   4.210   2.492   8.096  2.3743  0.5651  1.6731
  130OSM   H16G14031   4.072   2.613   8.078 -0.0513  0.0412 -1.3757
  130OSM   C17F14032   4.223   2.655   8.241  0.6009 -0.7402  0.2223
  130OSM   H17F14033   4.329   2.690   8.244  0.5126 -0.4102 -0.2599
  130OSM   H17G14034   4.196   2.573   8.310  1.1963 -1.0328  0.1187
  130OSM   C18F14035   4.156   2.787   8.282 -0.2430  0.8939  0.3960
  130OSM   H18F14036   4.178   2.858   8.199 -0.6308  1.7878  1.0508
  130OSM   H18G14037   4.202   2.820   8.377  0.9267 -0.8524  0.4834
  130OSM   H18H14038   4.049   2.763   8.299  0.2847  0.1524  3.0969
  131OSM      N14039   3.048   6.201   6.104 -0.3350 -0.0817 -0.4643
  131OSM    C1514040   3.030   6.307   6.210  0.1750 -0.2658 -0.2136
  131OSM   H15A14041   2.944   6.365   6.183  0.6666 -0.4114 -2.2465
  131OSM   H15B14042   3.111   6.376   6.229 -0.5465  0.0354  2.0186
  131OSM   H15C14043   3.018   6.257   6.305  0.0132 -0.4357 -0.3219
  131OSM    C1414044   2.940   6.098   6.127 -0.3127 -0.2256  0.8300
  131OSM   H14A14045   2.951   6.019   6.054  0.8142  0.1537  0.5666
  131OSM   H14B14046   2.843   6.144   6.130  0.4608  1.4647  1.5568
  131OSM   H14C14047   2.958   6.052   6.224  0.0692 -0.3584  0.7000
  131OSM    C1314048   3.032   6.266   5.967 -0.1613  0.5655 -0.5393
  131OSM   H13A14049   3.014   6.188   5.895 -1.1772  0.1089  0.1928
  131OSM   H13B14050   3.125   6.312   5.936  0.0399 -1.3838 -3.1780
  131OSM   H13C14051   2.949   6.335   5.969 -0.6702 -0.0516  0.9110
  131OSM    C1214052   3.187   6.145   6.104 -0.2927 -0.1581  0.7220
  131OSM   H12A14053   3.263   6.219   6.089 -0.8905  0.2627 -0.3668
  131OSM   H12B14054   3.204   6.080   6.020  1.1818 -1.3271  1.8610
  131OSM    C1114055   3.220   6.049   6.222  0.1976 -0.0730  0.2335
  131OSM   H11A14056   3.145   5.967   6.226 -1.9838  1.8772  1.3391
  131OSM   H11B14057   3.208   6.096   6.322  2.2540  0.3547  0.3216
  131OSM      P14058   3.402   5.870   6.237 -0.1380  0.2815 -0.2518
  131OSM    O1314059   3.287   5.770   6.229  0.4107 -0.4831 -0.0427
  131OSM    O1414060   3.521   5.850   6.149  0.1458  0.8820 -0.0693
  131OSM    O1114061   3.442   5.883   6.387  0.2064  0.0965  0.8886
  131OSM    O1214062   3.353   6.016   6.202 -0.8041 -0.2640 -0.0792
  131OSM    C1S14063   3.357   5.944   6.491  0.7498  0.2930 -0.6648
  131OSM    H1S14064   3.248   5.926   6.478  0.6597 -0.6586  1.0405
  131OSM    H1T14065   3.383   6.052   6.496  1.8053  0.1538 -2.2049
  131OSM     NF14066   3.303   5.915   6.736  0.0051 -0.0997  0.3091
  131OSM    HNF14067   3.325   5.997   6.790 -0.3724  0.3990 -0.2764
  131OSM    C2S14068   3.401   5.888   6.633  0.2965  0.2077  0.3974
  131OSM    H2S14069   3.419   5.779   6.631  1.4278  0.3810 -1.2336
  131OSM    C3S14070   3.543   5.954   6.660 -0.1892  0.2082 -0.4899
  131OSM    H3S14071   3.543   6.063   6.682  0.0341  0.4340 -1.5637
  131OSM     O314072   3.637   5.941   6.558 -0.3505 -0.3461  0.2949
  131OSM    HO314073   3.588   5.890   6.494  0.6224  0.1792 -0.9310
  131OSM    C4S14074   3.610   5.909   6.791  0.5082 -0.0139  0.2903
  131OSM    H4S14075   3.586   5.975   6.876  0.5955 -0.9987  1.0992
  131OSM    C5S14076   3.684   5.795   6.812  0.0862 -0.2153 -0.4452
  131OSM    H5S14077   3.704   5.718   6.736 -0.6786 -1.5264  0.6512
  131OSM    C6S14078   3.729   5.735   6.944 -0.4234 -0.2765 -0.5575
  131OSM    H6S14079   3.839   5.720   6.957 -0.5551 -0.6564  0.1893
  131OSM    H6T14080   3.681   5.635   6.953  2.0238 -1.4873 -0.1398
  131OSM    C7S14081   3.688   5.823   7.062 -0.6238  0.6049  0.0978
  131OSM    H7S14082   3.578   5.839   7.061 -0.5463  1.4801  1.6632
  131OSM    H7T14083   3.729   5.926   7.052  2.6570 -0.6760 -1.1783
  131OSM    C8S14084   3.723   5.762   7.201 -0.1548  1.1431  0.0448
  131OSM    H8S14085   3.831   5.738   7.199 -0.5882 -1.2581  1.0364
  131OSM    H8T14086   3.666   5.667   7.211 -0.1463  0.9991 -1.1467
  131OSM    C9S14087   3.690   5.856   7.316 -0.4827 -0.1004 -0.2093
  131OSM    H9S14088   3.591   5.828   7.358 -0.2870 -0.0771  0.2704
  131OSM    H9T14089   3.684   5.959   7.273 -4.0489 -0.4535 -0.9143
  131OSM   C10S14090   3.807   5.850   7.411 -0.4180  0.0781  0.2994
  131OSM   H10S14091   3.893   5.899   7.361 -0.6368 -0.5659 -0.7368
  131OSM   H10T14092   3.836   5.744   7.428  3.0853  0.7989 -0.4747
  131OSM   C11S14093   3.780   5.906   7.550 -0.9069 -0.4718  0.6840
  131OSM   H11S14094   3.764   6.016   7.549  3.1220  0.2917  1.0392
  131OSM   H11T14095   3.876   5.897   7.605 -1.1557 -0.1536  1.1756
  131OSM   C12S14096   3.659   5.839   7.619 -0.4714  0.8006 -0.2784
  131OSM   H12S14097   3.638   5.744   7.567  1.7153  1.2107 -2.0448
  131OSM   H12T14098   3.569   5.902   7.605 -1.3462 -0.4172 -0.2334
  131OSM   C13S14099   3.685   5.834   7.765 -0.4298 -0.4843  0.1696
  131OSM   H13S14100   3.705   5.938   7.800  0.0870 -0.5084 -0.0512
  131OSM   H13T14101   3.774   5.769   7.781  0.7706  0.7268 -1.3061
  131OSM   C14S14102   3.568   5.788   7.857 -0.0288  0.3199 -0.1264
  131OSM   H14S14103   3.545   5.682   7.836  0.4952  0.0303  0.7298
  131OSM   H14T14104   3.475   5.843   7.827  1.0123  1.5434 -1.2362
  131OSM   C15S14105   3.593   5.820   8.006  0.1457  0.3873 -0.6899
  131OSM   H15S14106   3.647   5.917   8.012 -1.2531  1.1662 -0.2552
  131OSM   H15T14107   3.667   5.743   8.037 -2.1070 -1.5885  0.0911
  131OSM   C16S14108   3.469   5.818   8.093 -0.0494 -0.2184 -0.2003
  131OSM   H16S14109   3.391   5.747   8.060 -0.8039  1.0743 -1.3173
  131OSM   H16T14110   3.411   5.913   8.083  3.2093  1.8828 -0.6673
  131OSM   C17S14111   3.496   5.796   8.246  0.5089  1.1094 -0.1346
  131OSM   H17S14112   3.527   5.692   8.272 -2.5733  0.5272  1.6736
  131OSM   H17T14113   3.394   5.799   8.289  0.1333  0.0518 -0.8927
  131OSM   C18S14114   3.591   5.896   8.310  0.2645 -0.3739  0.5054
  131OSM   H18S14115   3.614   5.860   8.413  1.1249 -0.2599  0.3518
  131OSM   H18T14116   3.555   6.001   8.315 -1.0149 -0.8160  1.1197
  131OSM   H18U14117   3.685   5.900   8.253  0.2744  0.8808  0.5841
  131OSM    C1F14118   3.196   5.842   6.749  0.1093  0.2828  0.3728
  131OSM     OF14119   3.187   5.740   6.682 -0.2770 -0.0465  0.4953
  131OSM    C2F14120   3.093   5.889   6.840  0.1459 -0.1885 -0.7344
  131OSM    H2F14121   3.090   6.000   6.837  1.8295 -0.1048 -0.6309
  131OSM    H2G14122   3.128   5.848   6.938  0.3055 -0.6142 -0.9639
  131OSM    C3F14123   2.953   5.838   6.811  0.2751  0.1784 -0.0763
  131OSM    H3F14124   2.945   5.727   6.803  1.0565  0.1795 -1.2261
  131OSM    H3G14125   2.928   5.889   6.716 -2.9752  2.0051  1.6051
  131OSM    C4F14126   2.858   5.883   6.914 -0.5154  0.1523  0.2301
  131OSM    H4F14127   2.759   5.848   6.876  0.6183 -1.5884 -1.2720
  131OSM    H4G14128   2.848   5.993   6.929  1.6137  0.8629 -2.7142
  131OSM    C5F14129   2.869   5.812   7.050 -0.9118  0.2290  0.3017
  131OSM    H5F14130   2.951   5.857   7.111 -0.4874 -0.8819  0.5807
  131OSM    H5G14131   2.912   5.712   7.027  1.0280  0.8048  1.1357
  131OSM    C6F14132   2.743   5.787   7.136 -0.8085 -0.0483  0.0181
  131OSM    H6F14133   2.669   5.741   7.067 -0.2211 -0.1318 -0.5675
  131OSM    H6G14134   2.709   5.886   7.172  2.9399  0.9903  1.1668
  131OSM    C7F14135   2.779   5.684   7.236  0.5292 -0.6577 -0.4076
  131OSM    H7F14136   2.877   5.694   7.287  0.0367 -0.9346  0.6209
  131OSM    H7G14137   2.795   5.585   7.188  1.1680 -1.8432  2.1263
  131OSM    C8F14138   2.676   5.668   7.347 -0.0439 -0.0342  0.0062
  131OSM    H8F14139   2.571   5.668   7.311 -0.0466  0.3468  0.0032
  131OSM    H8G14140   2.677   5.765   7.402 -0.1745 -0.4971  0.8290
  131OSM    C9F14141   2.699   5.543   7.424 -0.4097 -0.5779  0.1330
  131OSM    H9F14142   2.712   5.451   7.364  2.9109  0.5358 -1.1034
  131OSM   C10F14143   2.718   5.542   7.557 -0.5110  0.4846 -0.5463
  131OSM   H10F14144   2.712   5.439   7.596 -1.9099 -0.1846 -2.4169
  131OSM   C11F14145   2.722   5.648   7.662  0.3144 -0.2598 -0.1000
  131OSM   H11F14146   2.750   5.740   7.607  0.6565 -0.4554 -0.2587
  131OSM   H11G14147   2.811   5.628   7.727  1.9346 -0.2527 -2.2081
  131OSM   C12F14148   2.594   5.668   7.743 -0.8202 -0.2794 -0.4005
  131OSM   H12F14149   2.574   5.577   7.803  1.2443  0.5173  1.6624
  131OSM   H12G14150   2.506   5.679   7.676  0.7544  1.8048 -2.2683
  131OSM   C13F14151   2.590   5.786   7.837 -0.5302 -0.3330 -0.2812
  131OSM   H13F14152   2.588   5.877   7.773  1.2675 -0.2488 -0.2484
  131OSM   H13G14153   2.679   5.789   7.902 -1.0728  2.2272  0.4606
  131OSM   C14F14154   2.476   5.784   7.935  0.4082 -0.3396 -0.3934
  131OSM   H14F14155   2.475   5.694   8.000 -1.7977 -0.4375 -0.4721
  131OSM   H14G14156   2.379   5.781   7.880 -0.3125  1.2173  0.7017
  131OSM   C15F14157   2.458   5.900   8.034 -0.4731 -0.2069  0.1636
  131OSM   H15F14158   2.443   5.986   7.966  1.5926  0.4915  0.5344
  131OSM   H15G14159   2.550   5.909   8.096 -1.7120  0.3555  2.0094
  131OSM   C16F14160   2.330   5.898   8.115 -0.3904 -0.4596 -0.1192
  131OSM   H16F14161   2.331   5.802   8.172 -0.1985 -0.2485  0.2432
  131OSM   H16G14162   2.241   5.897   8.049 -1.1122  0.7291  0.7901
  131OSM   C17F14163   2.328   6.006   8.225 -0.0831 -0.6702 -0.3514
  131OSM   H17F14164   2.313   6.103   8.174  0.2100  0.1477  1.0520
  131OSM   H17G14165   2.424   6.023   8.278  1.6832 -2.9222 -2.5711
  131OSM   C18F14166   2.209   5.983   8.316  0.0688  0.9289  0.2123
  131OSM   H18F14167   2.198   6.060   8.395 -1.4299  0.3962  0.5522
  131OSM   H18G14168   2.221   5.881   8.360 -1.0286 -0.2582 -2.0584
  131OSM   H18H14169   2.114   5.978   8.258  0.9421 -1.0525 -1.1677
  132OSM      N14170   1.801   3.099   5.721 -0.5522  0.1092 -0.0799
  132OSM    C1514171   1.945   3.146   5.714  0.2347 -0.1559 -0.6121
  132OSM   H15A14172   1.973   3.195   5.622  0.7897 -0.1649 -0.4538
  132OSM   H15B14173   2.013   3.063   5.731  1.1109  0.7210  0.4117
  132OSM   H15C14174   1.969   3.215   5.793 -1.1833 -0.5612  0.1983
  132OSM    C1414175   1.714   3.218   5.732 -0.5869 -0.2303 -0.3050
  132OSM   H14A14176   1.706   3.241   5.837 -2.1200 -0.7673 -0.2743
  132OSM   H14B14177   1.610   3.202   5.710 -1.9580  3.4784  2.5136
  132OSM   H14C14178   1.743   3.306   5.676 -0.2289 -0.2056 -0.0878
  132OSM    C1314179   1.757   3.028   5.594  0.2289  0.2496  0.0210
  132OSM   H13A14180   1.651   3.007   5.596  0.0400  1.0321 -0.6970
  132OSM   H13B14181   1.807   2.933   5.585  0.0278  0.2661 -1.7508
  132OSM   H13C14182   1.780   3.080   5.502  0.2493 -0.2410 -0.2554
  132OSM    C1214183   1.792   3.009   5.842  0.2459 -0.3916  0.0068
  132OSM   H12A14184   1.783   3.072   5.929  0.2969  0.2745 -0.4616
  132OSM   H12B14185   1.880   2.949   5.857 -0.2742 -0.6025  2.8533
  132OSM    C1114186   1.668   2.911   5.854 -0.3375 -0.5401  0.2515
  132OSM   H11A14187   1.666   2.875   5.959 -0.7563  2.6153  1.4500
  132OSM   H11B14188   1.676   2.823   5.786  0.1330  0.9786 -1.7700
  132OSM      P14189   1.467   3.065   5.930  0.1354  0.6321 -0.6301
  132OSM    O1314190   1.452   3.198   5.873 -0.5593  0.4464  0.0677
  132OSM    O1414191   1.351   2.972   5.942  0.3198  0.0460 -0.5722
  132OSM    O1114192   1.545   3.078   6.061 -0.8630 -0.3022 -0.8111
  132OSM    O1214193   1.550   2.983   5.827 -0.0029 -1.0180 -0.0088
  132OSM    C1S14194   1.511   3.185   6.155  0.2513 -0.0462 -0.1831
  132OSM    H1S14195   1.404   3.181   6.184  0.3364 -1.7652  0.0323
  132OSM    H1T14196   1.532   3.283   6.108  4.1362 -0.5540  0.0996
  132OSM     NF14197   1.553   3.307   6.363 -0.1878  0.1506  0.7636
  132OSM    HNF14198   1.606   3.391   6.353  0.2577 -0.1719  0.3623
  132OSM    C2S14199   1.597   3.194   6.288 -0.4997  0.1294  0.3277
  132OSM    H2S14200   1.574   3.103   6.347  2.8291  0.6982  2.8228
  132OSM    C3S14201   1.743   3.202   6.252 -0.2413  0.3636  0.2371
  132OSM    H3S14202   1.773   3.290   6.191  0.2541 -0.4947 -0.7950
  132OSM     O314203   1.785   3.092   6.165  0.6857  0.0647 -0.1475
  132OSM    HO314204   1.701   3.052   6.143  1.9817 -2.5283 -0.6663
  132OSM    C4S14205   1.824   3.207   6.377 -0.1534  0.3494  0.4889
  132OSM    H4S14206   1.822   3.305   6.426 -0.0440  0.8303 -0.4495
  132OSM    C5S14207   1.902   3.108   6.425 -0.0597 -0.7069 -0.6299
  132OSM    H5S14208   1.909   3.016   6.365 -2.9113 -0.3455 -1.6689
  132OSM    C6S14209   1.975   3.111   6.562  0.4778  0.2412  0.7617
  132OSM    H6S14210   2.082   3.082   6.548 -0.2756 -2.3292 -0.2305
  132OSM    H6T14211   1.931   3.035   6.630 -2.0370  1.0451  0.1017
  132OSM    C7S14212   1.969   3.243   6.637  0.0826 -0.6114 -0.5498
  132OSM    H7S14213   1.863   3.272   6.656  0.3862  1.0350 -1.2310
  132OSM    H7T14214   2.010   3.330   6.580  0.6594  1.2381  2.4740
  132OSM    C8S14215   2.048   3.246   6.770  0.0291  0.3110  0.3091
  132OSM    H8S14216   2.157   3.240   6.749 -0.4738 -0.3094 -2.4802
  132OSM    H8T14217   2.021   3.146   6.808 -2.2011  1.3225  1.5889
  132OSM    C9S14218   2.024   3.365   6.863 -0.5018 -0.0880 -0.4774
  132OSM    H9S14219   1.916   3.382   6.885 -0.4727 -0.1769 -0.2666
  132OSM    H9T14220   2.062   3.457   6.814  0.8026 -1.0551 -1.3438
  132OSM   C10S14221   2.081   3.351   7.007 -0.0367  0.4549  0.2706
  132OSM   H10S14222   2.054   3.442   7.066 -0.3019  1.2878 -1.0731
  132OSM   H10T14223   2.191   3.356   6.996 -0.0946  1.9821  0.1283
  132OSM   C11S14224   2.026   3.220   7.075  0.3377 -0.0645  0.7244
  132OSM   H11S14225   2.099   3.140   7.051  2.4595  2.1251 -0.5217
  132OSM   H11T14226   1.934   3.193   7.020 -0.5335  1.6154  1.2894
  132OSM   C12S14227   1.989   3.219   7.222  0.7605  0.7129 -0.0970
  132OSM   H12S14228   1.938   3.122   7.242 -0.7939  1.2432 -1.3227
  132OSM   H12T14229   1.907   3.292   7.239 -1.0340 -1.4532  1.0768
  132OSM   C13S14230   2.110   3.230   7.316 -0.1420 -0.3459 -0.0200
  132OSM   H13S14231   2.169   3.318   7.281 -0.6493 -0.1500 -0.3906
  132OSM   H13T14232   2.173   3.139   7.300  1.7168  1.1266 -1.6544
  132OSM   C14S14233   2.083   3.247   7.470 -0.6254 -0.0328 -0.0706
  132OSM   H14S14234   2.010   3.330   7.474 -0.2931  0.2054  2.5107
  132OSM   H14T14235   2.176   3.285   7.518 -0.7513  0.5954 -0.3270
  132OSM   C15S14236   2.039   3.130   7.563  0.3082 -0.4335 -0.0337
  132OSM   H15S14237   2.080   3.032   7.532 -3.1434 -1.9354 -0.2694
  132OSM   H15T14238   1.931   3.124   7.540 -0.0142  1.5301  0.7389
  132OSM   C16S14239   2.073   3.156   7.710 -0.4065 -0.2646  0.0851
  132OSM   H16S14240   2.184   3.157   7.719 -0.3230 -0.3894 -0.8336
  132OSM   H16T14241   2.028   3.066   7.758 -1.4423 -0.1745 -0.6997
  132OSM   C17S14242   2.009   3.281   7.775 -1.3045 -0.3209  0.4661
  132OSM   H17S14243   1.900   3.290   7.753 -1.0395 -1.9414 -1.8687
  132OSM   H17T14244   2.058   3.367   7.724 -0.7495 -0.0742  1.3885
  132OSM   C18S14245   2.039   3.296   7.923  0.1837  0.3433 -0.4073
  132OSM   H18S14246   2.149   3.293   7.929  0.2071  1.0701 -0.4180
  132OSM   H18T14247   1.994   3.213   7.983  4.1191 -2.4006 -0.9143
  132OSM   H18U14248   2.009   3.395   7.964  1.1675  0.7446 -0.6285
  132OSM    C1F14249   1.438   3.314   6.435  0.3097 -0.1566  0.2790
  132OSM     OF14250   1.369   3.213   6.453  0.0729 -0.0972 -0.2639
  132OSM    C2F14251   1.402   3.444   6.497  0.2522 -0.9376 -0.0975
  132OSM    H2F14252   1.344   3.511   6.430  2.1139  1.9764  0.9811
  132OSM    H2G14253   1.490   3.501   6.536 -0.1411 -1.2585  1.2794
  132OSM    C3F14254   1.308   3.420   6.613 -1.1966  0.3927  0.5043
  132OSM    H3F14255   1.375   3.364   6.681  0.7595  2.6090  0.5102
  132OSM    H3G14256   1.233   3.352   6.566 -0.5934  0.7385 -1.0130
  132OSM    C4F14257   1.244   3.541   6.671 -0.7032 -0.0907  0.3797
  132OSM    H4F14258   1.180   3.594   6.596  1.3255  5.0892  1.8554
  132OSM    H4G14259   1.310   3.628   6.688 -0.4530 -0.2959  0.4565
  132OSM    C5F14260   1.170   3.518   6.801 -0.2561 -0.0578 -0.6187
  132OSM    H5F14261   1.106   3.428   6.788  1.6220 -1.4626 -0.3948
  132OSM    H5G14262   1.106   3.607   6.819  3.3449  2.3975  1.2125
  132OSM    C6F14263   1.260   3.497   6.923 -0.5256  0.2839 -0.3217
  132OSM    H6F14264   1.354   3.557   6.921  0.1293 -0.4933  2.3972
  132OSM    H6G14265   1.299   3.393   6.909  0.4371  0.6505 -0.4574
  132OSM    C7F14266   1.178   3.497   7.058 -0.4544 -0.5653 -0.1251
  132OSM    H7F14267   1.095   3.424   7.056 -2.6195  1.7652  0.2107
  132OSM    H7G14268   1.131   3.598   7.057 -0.7860 -0.7202 -1.0027
  132OSM    C8F14269   1.262   3.468   7.183 -0.0912 -0.3906  0.5247
  132OSM    H8F14270   1.344   3.543   7.179 -0.4309 -0.0601 -0.9507
  132OSM    H8G14271   1.311   3.369   7.187  0.2164 -0.2112  1.1952
  132OSM    C9F14272   1.189   3.485   7.310  0.1156  0.1009  0.1466
  132OSM    H9F14273   1.093   3.431   7.316 -0.6708  1.5638  2.0995
  132OSM   C10F14274   1.225   3.546   7.425  0.1113 -0.6982  0.0427
  132OSM   H10F14275   1.151   3.556   7.506 -0.9152  1.9927 -1.1070
  132OSM   C11F14276   1.348   3.632   7.447 -0.0553 -0.3310 -0.3478
  132OSM   H11F14277   1.406   3.666   7.358  1.7745 -0.9577  0.5531
  132OSM   H11G14278   1.425   3.569   7.497  2.2714  2.6489  0.1228
  132OSM   C12F14279   1.325   3.750   7.538 -0.3310 -0.0222  0.0338
  132OSM   H12F14280   1.291   3.713   7.637  2.7232 -0.9194  0.8399
  132OSM   H12G14281   1.249   3.823   7.501  1.2294  2.5980  1.6357
  132OSM   C13F14282   1.450   3.835   7.552  0.7183  0.3616 -0.4877
  132OSM   H13F14283   1.489   3.882   7.459 -0.5661  0.7130 -0.8573
  132OSM   H13G14284   1.532   3.779   7.603  1.9023  0.2163 -2.4270
  132OSM   C14F14285   1.417   3.956   7.656 -0.1504 -0.5582 -0.1681
  132OSM   H14F14286   1.324   4.004   7.619 -0.1900 -0.9053 -0.5328
  132OSM   H14G14287   1.508   4.018   7.641  0.1274 -1.5421 -3.5853
  132OSM   C15F14288   1.414   3.908   7.804 -0.1138  0.0083  0.2440
  132OSM   H15F14289   1.514   3.862   7.816 -0.2047  0.1471  1.8536
  132OSM   H15G14290   1.338   3.828   7.821 -0.2080  0.4282  2.0857
  132OSM   C16F14291   1.407   4.031   7.893  0.2285 -0.6311 -0.4264
  132OSM   H16F14292   1.313   4.086   7.870  1.3035  0.8997 -1.3521
  132OSM   H16G14293   1.485   4.104   7.861  0.4423  0.6198  2.6111
  132OSM   C17F14294   1.415   4.011   8.039 -0.2146 -0.4339 -0.9073
  132OSM   H17F14295   1.485   4.083   8.086 -0.9983 -0.7275  0.7605
  132OSM   H17G14296   1.463   3.914   8.062 -0.1781 -0.6389 -1.8126
  132OSM   C18F14297   1.281   4.023   8.100  0.2654 -0.0338 -0.3835
  132OSM   H18F14298   1.247   4.128   8.118  0.3746 -0.0616 -0.0064
  132OSM   H18G14299   1.272   3.963   8.192 -2.3517  0.0512 -0.5162
  132OSM   H18H14300   1.201   3.995   8.028  1.8404 -0.7158 -1.9654
  133SAPE     N14301   2.601   2.270  10.684  0.4137 -0.1160 -0.7753
  133SAPE   HN114302   2.633   2.171  10.677  1.9933  0.2562  0.5701
  133SAPE   HN214303   2.682   2.321  10.724 -0.5135  0.8806 -0.1336
  133SAPE   HN314304   2.520   2.274  10.750 -1.0429 -3.6814 -2.0614
  133SAPE   C1214305   2.576   2.337  10.554 -0.3839  0.3953 -0.0014
  133SAPE  H12A14306   2.478   2.299  10.518 -0.5226 -0.8541  1.5463
  133SAPE  H12B14307   2.645   2.290  10.481  1.8460 -0.5129  2.5320
  133SAPE   C1114308   2.578   2.492  10.560  0.7123  0.2891  0.0463
  133SAPE  H11A14309   2.546   2.530  10.461  0.0135  2.4089  1.0217
  133SAPE  H11B14310   2.679   2.531  10.587  0.5618 -0.4606  1.8792
  133SAPE     P14311   2.477   2.663  10.727 -0.2964 -0.3290  0.3906
  133SAPE   O1314312   2.418   2.663  10.868 -0.0975  0.0884 -0.7660
  133SAPE   O1414313   2.609   2.724  10.703  0.8150 -0.8584 -0.0056
  133SAPE   O1214314   2.479   2.522  10.661  1.0974 -0.5297  0.0054
  133SAPE   O1114315   2.379   2.752  10.636 -0.2746 -0.0361  0.2499
  133SAPE    C114316   2.238   2.752  10.668  0.4915  0.8509  0.1464
  133SAPE    HA14317   2.204   2.676  10.741  0.0944  0.3823 -0.5175
  133SAPE    HB14318   2.215   2.847  10.720  0.3281  1.1640 -0.4851
  133SAPE    C214319   2.146   2.724  10.545 -0.3762  0.1313 -0.0527
  133SAPE    HS14320   2.193   2.637  10.494 -3.0379 -0.6624 -1.2947
  133SAPE   O2114321   2.148   2.841  10.463 -0.4080  0.5463  0.0786
  133SAPE   C2114322   2.232   2.838  10.356  0.3420  0.5334 -0.8094
  133SAPE   O2214323   2.301   2.740  10.331  0.2369 -0.2140  0.4147
  133SAPE   C2214324   2.235   2.970  10.289 -0.3432 -0.6525 -0.2287
  133SAPE   H2R14325   2.135   3.015  10.268  0.1999 -0.4156 -2.6617
  133SAPE   H2S14326   2.288   3.041  10.357 -0.1487 -0.1932 -0.8431
  133SAPE    C314327   2.001   2.675  10.583 -0.2315  0.8174  0.4587
  133SAPE    HX14328   1.966   2.757  10.649  0.3015 -0.0883  1.9015
  133SAPE    HY14329   2.025   2.589  10.650 -3.0064 -0.2316  0.2351
  133SAPE   O3114330   1.920   2.643  10.473 -0.3865 -0.7625 -0.3061
  133SAPE   C3114331   1.809   2.718  10.443  0.2574 -0.2904  0.7441
  133SAPE   O3214332   1.765   2.810  10.509 -0.0732 -0.9119  0.1315
  133SAPE   C3214333   1.753   2.680  10.312 -0.4507 -0.4969  0.7170
  133SAPE   H2X14334   1.757   2.570  10.299  0.7939 -0.6048  1.8216
  133SAPE   H2Y14335   1.805   2.722  10.223 -0.6158 -0.4977  0.6188
  133SAPE   C2314336   2.317   2.960  10.159  0.3245 -0.8349  0.3054
  133SAPE   H3R14337   2.421   2.937  10.190  1.3046  1.1386 -1.2387
  133SAPE   H3S14338   2.317   3.066  10.127 -0.7535 -1.2302 -1.1410
  133SAPE   C2414339   2.256   2.881  10.040 -0.5244 -0.7955 -0.6050
  133SAPE   H4R14340   2.152   2.915  10.017 -1.1430 -3.2305 -1.7020
  133SAPE   H4S14341   2.250   2.772  10.058  0.4410 -0.7740 -0.0948
  133SAPE   C2514342   2.349   2.905   9.919 -0.8677 -0.0037 -0.2103
  133SAPE   H5R14343   2.454   2.926   9.946 -1.1926  0.7463  0.5296
  133SAPE   C2614344   2.312   2.908   9.789 -0.7860  0.2642 -1.0380
  133SAPE   H6R14345   2.385   2.930   9.710 -0.2802  0.8111 -0.4316
  133SAPE   C2714346   2.172   2.879   9.743 -0.7044  0.2784 -0.2692
  133SAPE   H7R14347   2.128   2.802   9.809  0.5015 -0.1760  0.0246
  133SAPE   H7S14348   2.169   2.828   9.644  0.9037  0.8704 -0.6498
  133SAPE   C2814349   2.082   3.002   9.729 -0.3149 -0.5315 -0.3294
  133SAPE   H8R14350   2.043   3.036   9.826  1.9175 -0.3568  0.5623
  133SAPE   C2914351   2.062   3.076   9.618 -0.0124  0.1681 -0.4979
  133SAPE   H9R14352   2.009   3.172   9.613 -0.5352 -0.1125 -0.3711
  133SAPE  C21014353   2.116   3.043   9.479 -0.2707 -0.0255  0.3070
  133SAPE  H10R14354   2.049   3.089   9.404  1.4136  0.9386 -0.6640
  133SAPE  H10S14355   2.092   2.936   9.459  2.1152 -0.6284  0.3040
  133SAPE  C21114356   2.265   3.081   9.459  0.4353 -0.1455  0.1035
  133SAPE  H11R14357   2.315   3.123   9.547  1.4730  2.2135 -1.5267
  133SAPE  C21214358   2.333   3.076   9.342 -0.4107  0.3827 -0.4208
  133SAPE  H12R14359   2.440   3.097   9.351 -0.1581 -1.5300  2.9116
  133SAPE  C21314360   2.267   3.029   9.214 -0.1518 -0.2234  0.2657
  133SAPE  H13R14361   2.175   2.971   9.235 -0.4537  0.3163  0.4599
  133SAPE  H13S14362   2.340   2.956   9.173  0.8030  1.3780 -1.0023
  133SAPE  C21414363   2.237   3.134   9.109 -0.0422 -0.2568  0.3281
  133SAPE  H14R14364   2.131   3.163   9.100 -0.2700 -1.2079 -0.1411
  133SAPE  C21514365   2.326   3.195   9.027 -0.0878  0.0992 -0.5483
  133SAPE  H15R14366   2.297   3.278   8.960  3.9658  2.7219  0.5451
  133SAPE  C21614367   2.473   3.168   9.026  0.2722 -0.2412 -0.0303
  133SAPE  H16R14368   2.497   3.112   9.118 -0.4522  0.8470  0.8433
  133SAPE  H16S14369   2.519   3.267   9.043 -1.1157  0.5513 -0.6496
  133SAPE  C21714370   2.513   3.102   8.890  0.0799 -0.0911 -0.3238
  133SAPE  H17R14371   2.483   2.995   8.879  2.0827 -0.6878 -0.4743
  133SAPE  H17S14372   2.623   3.092   8.881  0.2007  1.5276 -0.9670
  133SAPE  C21814373   2.484   3.191   8.765  0.8759  0.2190 -0.1130
  133SAPE  H18R14374   2.513   3.295   8.788 -0.2033  0.4390  0.3056
  133SAPE  H18S14375   2.376   3.188   8.741  0.5611  0.1689  1.2137
  133SAPE  C21914376   2.562   3.148   8.643 -0.4468 -0.1035  0.2913
  133SAPE  H19R14377   2.552   3.037   8.644 -0.7533 -0.0773  0.2141
  133SAPE  H19S14378   2.669   3.178   8.654 -0.9398  1.6414  0.6192
  133SAPE  C22014379   2.509   3.214   8.509 -0.2516  0.2613 -0.6227
  133SAPE  H20R14380   2.570   3.186   8.420 -0.9955 -1.6616 -0.5730
  133SAPE  H20S14381   2.483   3.320   8.530 -0.3280  0.4846 -1.7859
  133SAPE  H20T14382   2.416   3.159   8.486 -0.5660  0.3755  0.3256
  133SAPE   C3314383   1.604   2.719  10.308 -0.0796  0.4381  0.8854
  133SAPE   H3X14384   1.585   2.827  10.324  2.0233  1.3337 -1.7920
  133SAPE   H3Y14385   1.533   2.675  10.381 -0.7743 -1.9644 -1.0728
  133SAPE   C3414386   1.546   2.688  10.163  0.0785 -0.7583 -0.1098
  133SAPE   H4X14387   1.552   2.577  10.152 -0.9853 -0.6946 -1.5252
  133SAPE   H4Y14388   1.612   2.721  10.080  0.4036  0.9544  0.7783
  133SAPE   C3514389   1.411   2.756  10.128 -0.3322 -0.3587 -0.2073
  133SAPE   H5X14390   1.439   2.861  10.104 -0.1233 -0.2387  0.5436
  133SAPE   H5Y14391   1.333   2.758  10.207 -0.9125  1.7261 -0.7809
  133SAPE   C3614392   1.337   2.695  10.006  0.8902  0.4939 -0.2300
  133SAPE   H6X14393   1.231   2.722  10.026 -0.2815 -3.4311 -0.3163
  133SAPE   H6Y14394   1.358   2.586  10.009  1.5603  0.6322  0.5112
  133SAPE   C3714395   1.382   2.757   9.874 -0.1435  0.1805 -0.2142
  133SAPE   H7X14396   1.480   2.705   9.862 -1.0797 -1.1327 -3.2271
  133SAPE   H7Y14397   1.391   2.868   9.872 -0.4633  0.2180 -2.3685
  133SAPE   C3814398   1.287   2.718   9.761 -1.0037 -0.0011 -0.0359
  133SAPE   H8X14399   1.185   2.760   9.771  0.0544  3.0043 -0.5568
  133SAPE   H8Y14400   1.293   2.608   9.747  0.0703 -0.2024  1.7212
  133SAPE   C3914401   1.346   2.778   9.638 -0.0406 -0.3229 -0.3681
  133SAPE   H9X14402   1.456   2.764   9.630  0.2002  2.2103 -3.3884
  133SAPE   H9Y14403   1.324   2.886   9.628  0.0936 -0.1522  1.0009
  133SAPE  C31014404   1.296   2.712   9.507  0.6192 -0.8149  0.5700
  133SAPE  H10X14405   1.185   2.716   9.512  0.6816  0.2639  1.7542
  133SAPE  H10Y14406   1.332   2.607   9.506  0.3169 -0.9420 -1.9620
  133SAPE  C31114407   1.360   2.773   9.382  0.0591  0.1216 -0.5575
  133SAPE  H11X14408   1.469   2.788   9.392  0.2442 -1.5703  0.2285
  133SAPE  H11Y14409   1.310   2.873   9.381  1.0107  0.6150 -0.0871
  133SAPE  C31214410   1.328   2.715   9.249  0.5210 -0.0137 -0.3115
  133SAPE  H12X14411   1.218   2.711   9.232  0.2455  0.4246  1.1924
  133SAPE  H12Y14412   1.384   2.619   9.247  3.1945  1.0797  4.7879
  133SAPE  C31314413   1.398   2.796   9.139  0.3783  0.3883 -0.0909
  133SAPE  H13X14414   1.378   2.745   9.042  0.8752  2.0357 -1.1087
  133SAPE  H13Y14415   1.504   2.799   9.171  0.2166  0.9591  0.4005
  133SAPE  C31414416   1.357   2.944   9.120  0.0496 -0.2018 -0.7792
  133SAPE  H14X14417   1.418   2.991   9.200 -2.2814 -1.2061  1.7617
  133SAPE  H14Y14418   1.247   2.944   9.138  0.2492  0.5188  0.5156
  133SAPE  C31514419   1.398   3.012   8.989  0.0014  0.6267 -0.0557
  133SAPE  H15X14420   1.503   2.994   8.958 -0.4562 -0.9696 -0.8026
  133SAPE  H15Y14421   1.389   3.122   9.000 -0.1730  0.8645 -2.2312
  133SAPE  C31614422   1.315   2.983   8.860  0.0897 -0.2453 -0.2709
  133SAPE  H16X14423   1.209   2.995   8.893 -0.5175  0.6280 -2.3631
  133SAPE  H16Y14424   1.327   2.876   8.833 -2.5480 -0.7898  0.4558
  133SAPE  C31714425   1.342   3.079   8.742 -0.6200  0.2649  0.0175
  133SAPE  H17X14426   1.341   3.189   8.762 -3.9740  0.6793 -1.7066
  133SAPE  H17Y14427   1.267   3.055   8.664  0.4864  0.1473 -1.0535
  133SAPE  C31814428   1.466   3.045   8.671 -0.6868  0.1867  0.0661
  133SAPE  H18X14429   1.554   3.072   8.734  0.3307 -0.1834 -1.1424
  133SAPE  H18Y14430   1.484   3.100   8.577 -0.7306  0.2798  0.1121
  133SAPE  H18Z14431   1.483   2.936   8.656  2.2339  0.7033 -1.1693
  134SAPE     N14432   6.008   5.366  10.480  0.1494 -0.2417  0.4185
  134SAPE   HN114433   6.054   5.313  10.557 -1.0940 -0.4447  1.0431
  134SAPE   HN214434   5.918   5.396  10.522  0.6173 -0.3651  1.5665
  134SAPE   HN314435   5.995   5.296  10.405  2.6338 -0.7216  0.3408
  134SAPE   C1214436   6.103   5.477  10.429  0.4705  0.0096  0.6772
  134SAPE  H12A14437   6.137   5.537  10.516  1.6770 -0.4837  0.5757
  134SAPE  H12B14438   6.037   5.541  10.367  1.9756  0.8272 -0.1605
  134SAPE   C1114439   6.214   5.416  10.341 -0.5552  0.0402 -0.0485
  134SAPE  H11A14440   6.279   5.503  10.319  2.0077 -1.5090  0.9935
  134SAPE  H11B14441   6.171   5.381  10.245 -0.0406  0.6410 -0.4999
  134SAPE     P14442   6.418   5.344  10.471 -0.2076 -0.2941  0.3258
  134SAPE   O1314443   6.405   5.476  10.538  0.3118  0.0642 -0.0693
  134SAPE   O1414444   6.470   5.236  10.557 -0.2368 -0.5347 -0.1421
  134SAPE   O1214445   6.272   5.309  10.413 -0.2259  0.2255 -0.0911
  134SAPE   O1114446   6.518   5.365  10.348 -0.3370 -0.6344  0.2808
  134SAPE    C114447   6.510   5.296  10.223  0.1877 -0.0838  0.0563
  134SAPE    HA14448   6.604   5.239  10.206 -0.0574  0.3359 -3.2102
  134SAPE    HB14449   6.432   5.218  10.216 -1.6115  1.6513 -0.0060
  134SAPE    C214450   6.498   5.396  10.109 -0.6765  0.6339  0.3381
  134SAPE    HS14451   6.391   5.424  10.110 -0.4743  1.5744 -1.2076
  134SAPE   O2114452   6.551   5.324   9.997 -0.3270 -0.1213 -0.0053
  134SAPE   C2114453   6.455   5.265   9.921 -0.2596  0.2670 -0.1453
  134SAPE   O2214454   6.342   5.252   9.961 -0.3756 -0.0971 -0.1174
  134SAPE   C2214455   6.510   5.252   9.777 -0.2829  0.3595  0.1542
  134SAPE   H2R14456   6.577   5.340   9.762 -1.9773  1.7593  0.5034
  134SAPE   H2S14457   6.574   5.161   9.769  1.2826  1.5499 -1.9967
  134SAPE    C314458   6.575   5.532  10.118 -0.0575  0.1487 -0.5322
  134SAPE    HX14459   6.684   5.509  10.125  0.0773  0.9729  0.4808
  134SAPE    HY14460   6.542   5.583  10.211 -0.2960 -0.2818 -0.3787
  134SAPE   O3114461   6.549   5.623  10.008 -0.1131 -0.1175 -0.1058
  134SAPE   C3114462   6.433   5.685   9.998  0.1834  1.1363  0.4977
  134SAPE   O3214463   6.342   5.677  10.075  0.3245  0.0312  0.2190
  134SAPE   C3214464   6.439   5.766   9.873  0.4427 -0.0945  0.4679
  134SAPE   H2X14465   6.439   5.699   9.785 -0.4851  0.8570 -0.2720
  134SAPE   H2Y14466   6.539   5.816   9.878 -0.3573  1.5571  0.7910
  134SAPE   C2314467   6.398   5.247   9.674  0.3335 -0.3776  0.0013
  134SAPE   H3R14468   6.378   5.351   9.640  1.1251 -0.4211 -0.6335
  134SAPE   H3S14469   6.307   5.205   9.722  0.8584 -0.3330  1.0827
  134SAPE   C2414470   6.422   5.172   9.541 -0.1303  0.3573 -0.5359
  134SAPE   H4R14471   6.454   5.069   9.568  1.6525  0.9503 -0.2378
  134SAPE   H4S14472   6.507   5.221   9.489  0.1223  0.2174 -0.2577
  134SAPE   C2514473   6.303   5.157   9.464  0.9172 -0.7052 -0.6608
  134SAPE   H5R14474   6.214   5.126   9.520  0.6313 -1.1553 -1.3419
  134SAPE   C2614475   6.281   5.182   9.330 -0.0963 -0.3988  0.2099
  134SAPE   H6R14476   6.187   5.162   9.276  1.0540 -0.4228 -1.8805
  134SAPE   C2714477   6.386   5.229   9.234 -0.2102  0.0363 -0.1906
  134SAPE   H7R14478   6.470   5.161   9.207 -0.0323 -0.5968  1.8410
  134SAPE   H7S14479   6.433   5.315   9.287  0.4297 -0.7942  0.6131
  134SAPE   C2814480   6.321   5.281   9.109 -0.3631 -0.3843  0.1117
  134SAPE   H8R14481   6.214   5.297   9.128 -0.1836  0.8242  0.1773
  134SAPE   C2914482   6.368   5.306   8.989  0.5647  0.4966  0.1642
  134SAPE   H9R14483   6.295   5.346   8.917 -0.7828 -1.5719  0.2973
  134SAPE  C21014484   6.511   5.302   8.936 -0.3969  0.6630 -0.1203
  134SAPE  H10R14485   6.583   5.278   9.017 -1.3036 -1.2179  0.1682
  134SAPE  H10S14486   6.534   5.406   8.904 -1.7817  1.2023  0.5355
  134SAPE  C21114487   6.525   5.208   8.820  0.1657  0.0135 -0.5602
  134SAPE  H11R14488   6.590   5.120   8.836  1.2850  1.0377  0.8277
  134SAPE  C21214489   6.479   5.229   8.695 -0.3585 -0.0196 -0.7019
  134SAPE  H12R14490   6.514   5.166   8.611  0.8115  2.2487 -2.0133
  134SAPE  C21314491   6.403   5.350   8.648 -0.0655  0.4810  0.2167
  134SAPE  H13R14492   6.459   5.400   8.566  1.0409 -0.5324  0.3252
  134SAPE  H13S14493   6.395   5.427   8.728 -0.8559 -0.9657  1.5780
  134SAPE  C21414494   6.267   5.307   8.594  0.1106  0.2554  0.0511
  134SAPE  H14R14495   6.212   5.235   8.656  1.0857 -0.9340 -0.4299
  134SAPE  C21514496   6.206   5.362   8.493  0.7693 -0.0033  0.3739
  134SAPE  H15R14497   6.108   5.319   8.467  0.0856  1.5147  0.3434
  134SAPE  C21614498   6.257   5.466   8.399  0.1781  0.1262  0.6862
  134SAPE  H16R14499   6.297   5.555   8.453  0.1275  1.5269 -1.4760
  134SAPE  H16S14500   6.169   5.505   8.343 -1.0214 -2.3545  0.7160
  134SAPE  C21714501   6.373   5.423   8.305  0.0796  1.0917 -0.4314
  134SAPE  H17R14502   6.328   5.337   8.251 -0.1566  0.4846  0.7026
  134SAPE  H17S14503   6.454   5.379   8.366 -1.3315 -2.5403 -0.9384
  134SAPE  C21814504   6.428   5.531   8.211  0.3115  0.1174  0.7860
  134SAPE  H18R14505   6.352   5.561   8.136  1.1297  0.7505  0.1907
  134SAPE  H18S14506   6.518   5.505   8.150 -1.6336 -1.5143 -1.5661
  134SAPE  C21914507   6.456   5.660   8.290  0.6548  0.4289 -0.1044
  134SAPE  H19R14508   6.513   5.634   8.382  2.0269  1.5333 -0.6012
  134SAPE  H19S14509   6.361   5.706   8.326  1.4810  2.0459  0.1170
  134SAPE  C22014510   6.527   5.766   8.213  0.1513  0.3443 -0.2942
  134SAPE  H20R14511   6.625   5.729   8.177  0.3522  0.6879 -0.1147
  134SAPE  H20S14512   6.542   5.864   8.264 -5.0134  2.3060 -1.9412
  134SAPE  H20T14513   6.459   5.786   8.128  0.5298 -0.4957 -0.8079
  134SAPE   C3314514   6.329   5.876   9.868  0.2120 -0.1293  0.1536
  134SAPE   H3X14515   6.350   5.955   9.944  0.4299 -1.3913  1.4479
  134SAPE   H3Y14516   6.230   5.828   9.886 -0.2538  0.9706  0.6896
  134SAPE   C3414517   6.329   5.931   9.721 -0.1687 -0.2859  0.5840
  134SAPE   H4X14518   6.240   5.996   9.707  0.1985  1.3520  4.5092
  134SAPE   H4Y14519   6.306   5.843   9.658 -0.3070  2.1724 -3.1466
  134SAPE   C3514520   6.463   5.999   9.686 -0.6725  0.3411 -0.6112
  134SAPE   H5X14521   6.546   5.925   9.688 -0.9264  0.0279 -1.2689
  134SAPE   H5Y14522   6.480   6.075   9.764 -1.0390 -0.7439  0.5678
  134SAPE   C3614523   6.448   6.069   9.553  0.2360  0.4974  0.1002
  134SAPE   H6X14524   6.524   6.151   9.551  0.3197  0.4176 -1.3910
  134SAPE   H6Y14525   6.349   6.120   9.547  0.9286  1.8134 -1.0062
  134SAPE   C3714526   6.466   5.975   9.430  0.1123  0.1463  0.2417
  134SAPE   H7X14527   6.391   5.893   9.427 -0.5295  0.7235 -2.9097
  134SAPE   H7Y14528   6.565   5.927   9.444  0.9535  1.6910 -0.1378
  134SAPE   C3814529   6.467   6.058   9.304 -0.8054 -0.3699  0.0800
  134SAPE   H8X14530   6.504   5.997   9.219 -0.2393  2.0643 -1.5142
  134SAPE   H8Y14531   6.542   6.136   9.330  0.7785 -1.5541 -0.7818
  134SAPE   C3914532   6.335   6.128   9.265  0.0424  0.5639 -0.0414
  134SAPE   H9X14533   6.308   6.194   9.350 -0.4155  1.0813 -0.5730
  134SAPE   H9Y14534   6.261   6.046   9.254  0.4417  0.3800 -1.6472
  134SAPE  C31014535   6.352   6.209   9.140 -0.6997 -0.1446  0.0653
  134SAPE  H10X14536   6.423   6.293   9.155 -1.1634  0.5347 -1.3553
  134SAPE  H10Y14537   6.253   6.254   9.113 -0.3334  0.8179  0.2683
  134SAPE  C31114538   6.422   6.135   9.020  0.1536  0.1589 -0.3618
  134SAPE  H11X14539   6.378   6.034   9.014 -4.1238  1.8772 -1.2633
  134SAPE  H11Y14540   6.528   6.115   9.047  0.0457 -1.5979 -1.1040
  134SAPE  C31214541   6.402   6.203   8.887 -0.3557  0.0374 -0.2353
  134SAPE  H12X14542   6.477   6.169   8.813 -0.3030  0.4589 -0.3763
  134SAPE  H12Y14543   6.421   6.311   8.905  1.3491  0.6469 -4.4804
  134SAPE  C31314544   6.255   6.176   8.838  0.0572 -0.0209  0.6798
  134SAPE  H13X14545   6.191   6.225   8.914  0.1363  0.5270  0.3999
  134SAPE  H13Y14546   6.256   6.065   8.841 -1.8391 -0.0987 -0.3054
  134SAPE  C31414547   6.240   6.223   8.697  0.0698 -0.1894  0.1332
  134SAPE  H14X14548   6.325   6.175   8.643 -1.3946 -2.3234 -0.3949
  134SAPE  H14Y14549   6.237   6.334   8.685 -0.8346 -0.2083  0.1152
  134SAPE  C31514550   6.116   6.171   8.623  0.1862  0.3601  0.2202
  134SAPE  H15X14551   6.114   6.060   8.629  1.0098  0.4111  2.3821
  134SAPE  H15Y14552   6.119   6.206   8.517 -1.6800  0.1281  0.0666
  134SAPE  C31614553   5.981   6.230   8.668 -0.4764 -0.1311 -0.1767
  134SAPE  H16X14554   5.983   6.338   8.695  0.2747  0.1773 -1.4029
  134SAPE  H16Y14555   5.949   6.170   8.755  0.3324  0.1516  0.3279
  134SAPE  C31714556   5.884   6.214   8.556  0.1847  0.5856  0.0966
  134SAPE  H17X14557   5.902   6.116   8.507 -0.2706  0.2481  0.5984
  134SAPE  H17Y14558   5.911   6.288   8.478  1.3087  1.7996  1.5611
  134SAPE  C31814559   5.737   6.225   8.589 -1.2215  0.2385 -0.5080
  134SAPE  H18X14560   5.683   6.219   8.492  2.2872  1.1304 -2.6838
  134SAPE  H18Y14561   5.718   6.312   8.654 -0.0360  0.5085 -0.5090
  134SAPE  H18Z14562   5.715   6.133   8.648 -1.2936  0.9937  0.6719
  135SAPE     N14563   4.516   2.979  10.590 -0.2380  0.2272 -0.3946
  135SAPE   HN114564   4.608   2.961  10.544  0.4774  0.2844  0.9635
  135SAPE   HN214565   4.460   2.994  10.504 -0.4191 -0.5538 -0.4215
  135SAPE   HN314566   4.542   3.059  10.651  2.6592 -1.9140  1.4460
  135SAPE   C1214567   4.486   2.858  10.676 -0.1193 -0.0564 -1.0591
  135SAPE  H12A14568   4.446   2.894  10.774 -0.0083  1.5796 -1.5867
  135SAPE  H12B14569   4.585   2.812  10.695 -0.7049 -0.4129  1.5762
  135SAPE   C1114570   4.396   2.754  10.604 -0.1923  0.4680  0.0060
  135SAPE  H11A14571   4.401   2.665  10.671 -0.1304 -2.6425 -3.8330
  135SAPE  H11B14572   4.454   2.729  10.513  0.0991  0.1949  0.2619
  135SAPE     P14573   4.155   2.842  10.673  0.2826 -0.0832  0.4189
  135SAPE   O1314574   4.203   2.790  10.803  0.6452 -0.2249  1.1218
  135SAPE   O1414575   4.110   2.980  10.656  0.3089 -0.0816 -0.8553
  135SAPE   O1214576   4.269   2.802  10.567 -0.5386 -0.2081 -0.0638
  135SAPE   O1114577   4.031   2.744  10.628 -0.0095 -0.9003  0.0154
  135SAPE    C114578   4.041   2.606  10.608 -0.2700  0.0071  0.0727
  135SAPE    HA14579   4.115   2.548  10.667  0.4873 -0.2462 -1.0711
  135SAPE    HB14580   3.946   2.552  10.628  0.5918 -1.4462  0.4240
  135SAPE    C214581   4.082   2.574  10.452 -0.2679 -0.0290 -0.0498
  135SAPE    HS14582   4.176   2.632  10.437 -0.2457 -0.2169 -0.6423
  135SAPE   O2114583   3.972   2.609  10.367  0.3628  0.9312  0.5148
  135SAPE   C2114584   3.997   2.703  10.271  0.0695  0.1150 -0.5061
  135SAPE   O2214585   4.108   2.749  10.253 -0.4145  0.1598 -0.2167
  135SAPE   C2214586   3.863   2.737  10.194  0.1632  0.7443  0.8482
  135SAPE   H2R14587   3.818   2.823  10.248  0.1044  1.1317  0.1848
  135SAPE   H2S14588   3.888   2.771  10.092 -1.8037  0.4395  0.2366
  135SAPE    C314589   4.106   2.429  10.439 -0.6768  0.0186  0.3696
  135SAPE    HX14590   4.013   2.368  10.442 -0.6659 -0.0166  0.0866
  135SAPE    HY14591   4.166   2.388  10.522  0.2959  2.1486  0.7831
  135SAPE   O3114592   4.171   2.399  10.311 -0.3520 -0.1313 -0.4403
  135SAPE   C3114593   4.302   2.419  10.297 -0.1772 -0.3694 -0.1496
  135SAPE   O3214594   4.370   2.471  10.384  0.3095  0.1317  0.1724
  135SAPE   C3214595   4.358   2.354  10.175  0.3114  0.7340  0.2898
  135SAPE   H2X14596   4.282   2.283  10.134 -0.0100  0.3938  1.4507
  135SAPE   H2Y14597   4.450   2.297  10.199 -0.3931  0.6854  3.1353
  135SAPE   C2314598   3.749   2.632  10.181 -0.0305  0.2958 -0.0175
  135SAPE   H3R14599   3.657   2.693  10.165  1.0547  1.6597 -1.4133
  135SAPE   H3S14600   3.726   2.577  10.275 -1.5649  1.6875  0.4757
  135SAPE   C2414601   3.760   2.536  10.072 -0.0778 -0.4587  0.2462
  135SAPE   H4R14602   3.752   2.589   9.975 -1.4614 -0.2730  0.4488
  135SAPE   H4S14603   3.664   2.482  10.069 -0.5775  0.4042  0.4396
  135SAPE   C2514604   3.881   2.442  10.083  0.3573 -0.8637  0.3930
  135SAPE   H5R14605   3.901   2.377  10.169  1.3581 -0.0862  0.7737
  135SAPE   C2614606   3.994   2.440  10.006 -0.6323 -0.7530  0.1530
  135SAPE   H6R14607   4.072   2.363  10.016  0.9681  0.6431 -0.9598
  135SAPE   C2714608   4.019   2.523   9.875  1.1011  0.8973 -0.6267
  135SAPE   H7R14609   4.049   2.626   9.905  0.3972  1.0541 -0.4254
  135SAPE   H7S14610   3.917   2.528   9.831 -0.0948  2.3474  2.0263
  135SAPE   C2814611   4.119   2.463   9.778  0.0655 -0.3873  0.4863
  135SAPE   H8R14612   4.216   2.432   9.819  0.0947 -1.5716 -0.4305
  135SAPE   C2914613   4.100   2.448   9.644 -0.3746 -0.1946 -0.6165
  135SAPE   H9R14614   4.178   2.397   9.586 -0.1990 -0.9362  0.2601
  135SAPE  C21014615   3.977   2.491   9.563  0.8174  0.8785 -0.3469
  135SAPE  H10R14616   3.998   2.566   9.484 -1.3578  0.3780 -1.4958
  135SAPE  H10S14617   3.893   2.523   9.628  0.8845  1.2199 -0.4277
  135SAPE  C21114618   3.925   2.370   9.490 -0.7047 -0.0439  0.7327
  135SAPE  H11R14619   3.941   2.277   9.547 -0.9771  0.4861  1.6840
  135SAPE  C21214620   3.872   2.362   9.368 -0.0840 -0.2565  0.2863
  135SAPE  H12R14621   3.824   2.265   9.346  0.0517 -0.9410  2.7772
  135SAPE  C21314622   3.830   2.472   9.265 -0.3979 -0.5237  0.4226
  135SAPE  H13R14623   3.772   2.547   9.323  1.4646  0.6850  0.8034
  135SAPE  H13S14624   3.758   2.443   9.185  1.6323  2.2791 -2.6765
  135SAPE  C21414625   3.939   2.554   9.201 -0.8962 -0.8899  0.0282
  135SAPE  H14R14626   4.040   2.560   9.244  1.0651  0.2749 -4.1802
  135SAPE  C21514627   3.919   2.624   9.090 -0.5784  0.1285  0.5240
  135SAPE  H15R14628   3.995   2.695   9.055 -0.3453  0.4263  1.6117
  135SAPE  C21614629   3.782   2.630   9.018  0.1664  0.1366  0.9078
  135SAPE  H16R14630   3.763   2.737   8.996  3.5331  0.5235 -0.7408
  135SAPE  H16S14631   3.691   2.598   9.073  0.0575  1.5025  1.5487
  135SAPE  C21714632   3.794   2.556   8.883 -0.3080 -0.2267  0.1339
  135SAPE  H17R14633   3.801   2.445   8.886 -0.4600 -0.2961 -1.2312
  135SAPE  H17S14634   3.891   2.586   8.839 -0.1794 -1.6113 -0.5850
  135SAPE  C21814635   3.672   2.581   8.792  0.0659 -0.5236 -0.4216
  135SAPE  H18R14636   3.659   2.692   8.789 -0.3366 -0.5673 -0.3935
  135SAPE  H18S14637   3.582   2.537   8.840  0.8212 -1.6530 -0.0059
  135SAPE  C21914638   3.689   2.511   8.658  0.4923 -0.4384  0.1263
  135SAPE  H19R14639   3.718   2.404   8.663 -0.8973 -0.8750 -0.5815
  135SAPE  H19S14640   3.763   2.566   8.596  2.0848 -2.7137 -0.1157
  135SAPE  C22014641   3.558   2.526   8.576 -0.2715 -0.4185  0.4516
  135SAPE  H20R14642   3.572   2.623   8.522  0.4298 -0.8349 -0.1287
  135SAPE  H20S14643   3.466   2.539   8.637 -0.5250 -1.6478  0.3404
  135SAPE  H20T14644   3.555   2.440   8.506  0.9473  0.6239 -0.9505
  135SAPE   C3314645   4.383   2.466  10.067  0.3465  0.5447  0.1982
  135SAPE   H3X14646   4.420   2.557  10.119  1.3614  0.2837 -0.0475
  135SAPE   H3Y14647   4.286   2.500  10.024 -1.4432 -0.7075  2.9057
  135SAPE   C3414648   4.491   2.440   9.963  0.2028 -0.0876 -0.9373
  135SAPE   H4X14649   4.429   2.378   9.894 -0.3011  0.8713 -1.3581
  135SAPE   H4Y14650   4.569   2.373  10.005 -1.6696 -2.1215 -0.4873
  135SAPE   C3514651   4.554   2.560   9.895  0.2798  0.1063 -1.0525
  135SAPE   H5X14652   4.633   2.605   9.959  0.1747  1.7772 -2.0318
  135SAPE   H5Y14653   4.477   2.636   9.869  1.7432  1.5317 -1.3117
  135SAPE   C3614654   4.606   2.508   9.757 -0.3797  0.3101  0.6194
  135SAPE   H6X14655   4.677   2.424   9.774 -1.2238 -0.4926  0.2300
  135SAPE   H6Y14656   4.662   2.589   9.705 -0.5327  0.1987  0.2827
  135SAPE   C3714657   4.506   2.449   9.657  0.1832 -0.3941  0.8023
  135SAPE   H7X14658   4.409   2.502   9.645  0.8858  0.5399 -1.3534
  135SAPE   H7Y14659   4.465   2.359   9.706  0.7131 -1.8716 -1.3031
  135SAPE   C3814660   4.576   2.416   9.519 -0.1117  0.3597 -0.0799
  135SAPE   H8X14661   4.639   2.326   9.533 -0.6113 -0.2346 -1.3930
  135SAPE   H8Y14662   4.631   2.509   9.491 -0.3246  0.5760  0.2117
  135SAPE   C3914663   4.477   2.400   9.408 -0.4243 -0.0882  0.4532
  135SAPE   H9X14664   4.430   2.498   9.387 -1.0176 -0.4756 -0.0411
  135SAPE   H9Y14665   4.399   2.329   9.444 -1.8372  1.2463  0.1292
  135SAPE  C31014666   4.549   2.345   9.276  0.5153 -0.3033 -0.4408
  135SAPE  H10X14667   4.592   2.243   9.277 -2.1159 -1.5029 -0.6189
  135SAPE  H10Y14668   4.638   2.407   9.254 -0.0573  0.6951 -0.0569
  135SAPE  C31114669   4.468   2.359   9.143 -0.1913  1.3592 -0.5749
  135SAPE  H11X14670   4.523   2.330   9.052  2.0010  0.7797  0.8568
  135SAPE  H11Y14671   4.437   2.465   9.126 -1.7027  1.0216 -0.0902
  135SAPE  C31214672   4.344   2.271   9.157 -0.0396  0.2070  0.7493
  135SAPE  H12X14673   4.277   2.310   9.237 -0.7633  1.0279 -0.2384
  135SAPE  H12Y14674   4.373   2.165   9.177 -1.8981 -0.0507  2.3669
  135SAPE  C31314675   4.274   2.251   9.017 -0.5079  0.4664 -0.3200
  135SAPE  H13X14676   4.190   2.179   9.031 -0.9443  0.7400 -1.4010
  135SAPE  H13Y14677   4.348   2.209   8.946  0.2194  0.9102  0.1631
  135SAPE  C31414678   4.227   2.382   8.954  0.2657 -0.9546  0.5362
  135SAPE  H14X14679   4.303   2.429   8.889 -1.2584 -0.1671 -0.7593
  135SAPE  H14Y14680   4.196   2.454   9.033  2.2014  0.5353  0.0165
  135SAPE  C31514681   4.104   2.374   8.849 -0.0848 -0.8010 -0.4665
  135SAPE  H15X14682   4.098   2.467   8.788 -0.1253 -0.6956 -0.3004
  135SAPE  H15Y14683   4.020   2.363   8.920  1.6216 -2.4676  1.4303
  135SAPE  C31614684   4.111   2.258   8.751 -0.0687  0.9192  0.2590
  135SAPE  H16X14685   4.065   2.173   8.805  0.7778 -0.6004 -1.2730
  135SAPE  H16Y14686   4.216   2.236   8.723  0.4776 -1.1506  3.4024
  135SAPE  C31714687   4.024   2.277   8.627  0.2805 -0.2894 -0.2015
  135SAPE  H17X14688   4.047   2.381   8.596  2.5804 -0.6066  0.2845
  135SAPE  H17Y14689   3.915   2.267   8.649 -0.0509 -0.9450 -1.9682
  135SAPE  C31814690   4.048   2.174   8.516 -0.5528 -0.4267  0.5670
  135SAPE  H18X14691   3.985   2.088   8.546  0.8671 -1.7934 -0.1754
  135SAPE  H18Y14692   4.152   2.135   8.523  0.2807  1.4160 -0.5769
  135SAPE  H18Z14693   4.028   2.208   8.412  2.3957  0.5642  0.2194
  136SAPE     N14694   6.292   2.504  10.672  0.6276 -0.5139 -0.0868
  136SAPE   HN114695   6.347   2.415  10.663 -2.1184 -2.2591 -0.7733
  136SAPE   HN214696   6.254   2.531  10.579  2.4962  1.7534 -0.2854
  136SAPE   HN314697   6.351   2.585  10.699  1.1476 -0.1440 -2.1664
  136SAPE   C1214698   6.179   2.491  10.784 -0.3415 -0.7571  1.1772
  136SAPE  H12A14699   6.102   2.570  10.774  1.6934  1.2835  0.9172
  136SAPE  H12B14700   6.232   2.504  10.880  1.5441 -0.5942  0.1674
  136SAPE   C1114701   6.094   2.360  10.771  0.7469  0.1993  0.0724
  136SAPE  H11A14702   6.166   2.284  10.808  0.0609 -0.3698  0.2552
  136SAPE  H11B14703   6.062   2.341  10.666 -2.3604  1.1597  0.7365
  136SAPE     P14704   5.968   2.297  10.991 -0.6130 -0.3639 -0.4333
  136SAPE   O1314705   6.102   2.262  11.052  0.4321 -0.8296 -0.4213
  136SAPE   O1414706   5.875   2.366  11.082  0.5617 -0.2198 -0.3962
  136SAPE   O1214707   5.983   2.385  10.860  0.2414 -0.3892 -0.2898
  136SAPE   O1114708   5.903   2.165  10.933  0.2281  0.0888 -0.1137
  136SAPE    C114709   5.787   2.179  10.847 -0.1014 -0.1714  0.3974
  136SAPE    HA14710   5.696   2.171  10.911  0.8711  0.6374  1.9236
  136SAPE    HB14711   5.778   2.279  10.800  0.7028 -0.6517 -0.8166
  136SAPE    C214712   5.791   2.086  10.715  0.0617 -0.0810 -0.3643
  136SAPE    HS14713   5.795   1.985  10.761 -1.4764  0.8156  1.9766
  136SAPE   O2114714   5.905   2.118  10.629 -0.0120 -0.1589 -0.0464
  136SAPE   C2114715   5.975   2.018  10.582  0.4057 -0.0293 -0.4805
  136SAPE   O2214716   5.957   1.904  10.611 -0.1811  0.1134  0.0541
  136SAPE   C2214717   6.074   2.067  10.471 -0.3380 -0.2058 -0.5746
  136SAPE   H2R14718   6.090   2.175  10.489  0.3852 -0.2634 -0.8453
  136SAPE   H2S14719   6.176   2.026  10.483 -0.6174 -0.6263  0.4279
  136SAPE    C314720   5.657   2.106  10.639 -0.2774 -0.2213  0.5166
  136SAPE    HX14721   5.659   2.211  10.603 -0.6865 -0.4735 -0.2543
  136SAPE    HY14722   5.569   2.094  10.705 -0.8754  0.3132 -0.1655
  136SAPE   O3114723   5.646   2.028  10.517 -0.2891 -0.3243  0.7136
  136SAPE   C3114724   5.612   1.899  10.539 -0.4419 -1.0573  0.3944
  136SAPE   O3214725   5.603   1.851  10.648  0.1446  0.6598 -0.5351
  136SAPE   C3214726   5.589   1.828  10.406  0.8899  0.1604  0.2117
  136SAPE   H2X14727   5.497   1.871  10.360 -0.2121 -1.9545  0.3070
  136SAPE   H2Y14728   5.552   1.725  10.423  1.5448 -0.2462 -0.7629
  136SAPE   C2314729   6.029   2.038  10.327  0.0517 -0.8047 -0.1002
  136SAPE   H3R14730   5.929   2.085  10.318 -0.0697 -0.8288  0.9223
  136SAPE   H3S14731   6.005   1.930  10.325 -1.1976 -0.5781  1.0552
  136SAPE   C2414732   6.138   2.076  10.230  0.2470  0.1324 -0.1787
  136SAPE   H4R14733   6.108   2.033  10.132 -1.9713  2.2502 -0.5211
  136SAPE   H4S14734   6.237   2.033  10.257  1.7215  2.4051 -1.7250
  136SAPE   C2514735   6.156   2.225  10.207  0.2180  0.2774 -0.6144
  136SAPE   H5R14736   6.165   2.284  10.299 -1.4711  2.6404 -1.8600
  136SAPE   C2614737   6.122   2.290  10.095  0.2337  0.4829 -0.6487
  136SAPE   H6R14738   6.140   2.399  10.097 -0.3566  0.5813  2.0294
  136SAPE   C2714739   6.084   2.240   9.961 -0.5951 -0.5270  0.7481
  136SAPE   H7R14740   6.066   2.132   9.944 -0.7945 -0.4315  0.3332
  136SAPE   H7S14741   6.169   2.265   9.893  0.0156 -0.6066  1.4580
  136SAPE   C2814742   5.967   2.313   9.898 -0.0255 -0.3030 -0.5342
  136SAPE   H8R14743   5.883   2.337   9.966 -0.5249 -0.2392 -1.1620
  136SAPE   C2914744   5.969   2.370   9.771  0.7125  0.5066 -0.0912
  136SAPE   H9R14745   5.886   2.428   9.730  0.2276 -0.9593 -1.2849
  136SAPE  C21014746   6.080   2.356   9.668  0.2504 -0.2239  0.5792
  136SAPE  H10R14747   6.144   2.266   9.684  0.2533 -0.1883  0.7725
  136SAPE  H10S14748   6.144   2.447   9.671 -0.4641  0.2795  2.0427
  136SAPE  C21114749   6.033   2.341   9.527 -0.6389 -0.1666 -0.8782
  136SAPE  H11R14750   5.964   2.257   9.508 -0.6200 -0.2214 -0.7068
  136SAPE  C21214751   6.067   2.415   9.418 -0.1036  0.1746  0.4601
  136SAPE  H12R14752   6.028   2.390   9.318  2.4262 -1.6454 -0.1638
  136SAPE  C21314753   6.155   2.534   9.422 -0.1407  0.4016  0.6956
  136SAPE  H13R14754   6.255   2.498   9.452 -0.4275 -0.4986  0.6066
  136SAPE  H13S14755   6.124   2.600   9.506 -1.1790 -0.7408  1.2475
  136SAPE  C21414756   6.159   2.615   9.296 -0.3879 -0.0114 -0.6999
  136SAPE  H14R14757   6.183   2.556   9.206  0.4909 -1.0614  0.1933
  136SAPE  C21514758   6.142   2.748   9.282  0.7643 -0.0767  0.0834
  136SAPE  H15R14759   6.154   2.783   9.178  1.8510 -0.9369 -0.0909
  136SAPE  C21614760   6.103   2.860   9.373 -0.3515  0.1101 -0.1707
  136SAPE  H16R14761   6.184   2.928   9.406 -1.0169  0.4978  0.7377
  136SAPE  H16S14762   6.055   2.813   9.462 -2.1920  0.6707 -0.8210
  136SAPE  C21714763   5.993   2.946   9.304 -0.0483  0.2911  0.3000
  136SAPE  H17R14764   5.942   3.006   9.382 -1.5175 -2.7002  1.7947
  136SAPE  H17S14765   5.918   2.873   9.267  3.4795 -2.4550 -2.0821
  136SAPE  C21814766   6.033   3.036   9.186 -0.2995 -0.4544  0.2012
  136SAPE  H18R14767   6.063   2.986   9.091 -0.9142 -1.1416  0.3595
  136SAPE  H18S14768   6.118   3.098   9.222  0.3974 -1.9790  1.3188
  136SAPE  C21914769   5.924   3.133   9.132  0.1916 -0.4457  0.0085
  136SAPE  H19R14770   5.846   3.059   9.103  0.8284 -1.6686  1.2614
  136SAPE  H19S14771   5.953   3.196   9.046  0.5440 -0.0384  0.4204
  136SAPE  C22014772   5.851   3.215   9.244 -0.1358  0.3069  0.6346
  136SAPE  H20R14773   5.914   3.288   9.297  0.3806  0.4819 -0.1985
  136SAPE  H20S14774   5.806   3.140   9.313 -0.7992  0.1798  0.0835
  136SAPE  H20T14775   5.768   3.280   9.210  1.7578  2.7763  0.4721
  136SAPE   C3314776   5.711   1.826  10.313  0.2698  0.5636  0.2336
  136SAPE   H3X14777   5.798   1.793  10.373  0.2185 -0.7200 -0.3502
  136SAPE   H3Y14778   5.732   1.929  10.278 -1.9302  1.5031  1.4364
  136SAPE   C3414779   5.693   1.717  10.210 -0.2958  0.2710  0.0280
  136SAPE   H4X14780   5.592   1.730  10.166  0.3428  1.9906 -1.0475
  136SAPE   H4Y14781   5.699   1.627  10.274  1.9168 -0.1669 -0.6913
  136SAPE   C3514782   5.795   1.703  10.102  0.7552 -0.8699 -0.5125
  136SAPE   H5X14783   5.801   1.594  10.082  1.0537 -1.2694  1.5335
  136SAPE   H5Y14784   5.888   1.750  10.140 -0.4959  1.3536 -0.0518
  136SAPE   C3614785   5.758   1.772   9.973  0.3404 -1.5420  0.0456
  136SAPE   H6X14786   5.739   1.879   9.997 -1.6697 -1.6820 -0.8039
  136SAPE   H6Y14787   5.664   1.736   9.927 -0.7443  1.0808  0.0109
  136SAPE   C3714788   5.870   1.769   9.866  0.4547 -0.6811 -0.4317
  136SAPE   H7X14789   5.904   1.664   9.855 -0.7102 -1.3194  1.5661
  136SAPE   H7Y14790   5.960   1.821   9.904  1.8432  0.3813 -4.5899
  136SAPE   C3814791   5.822   1.832   9.730  0.8270 -0.2285  0.3523
  136SAPE   H8X14792   5.717   1.800   9.716  0.1449  1.1981  1.8327
  136SAPE   H8Y14793   5.893   1.795   9.653 -0.6008  0.7047 -1.4990
  136SAPE   C3914794   5.825   1.990   9.733 -0.5319  0.0830  0.6650
  136SAPE   H9X14795   5.922   2.040   9.712 -1.4799  1.3514 -0.9260
  136SAPE   H9Y14796   5.798   2.022   9.836  1.1674 -1.9548  1.8061
  136SAPE  C31014797   5.713   2.036   9.622 -0.7141 -0.0558  0.0979
  136SAPE  H10X14798   5.705   2.147   9.624 -0.8572  0.0640  4.6520
  136SAPE  H10Y14799   5.609   2.006   9.646 -0.7116 -1.4896 -1.5215
  136SAPE  C31114800   5.743   1.982   9.485 -0.3151 -0.1533 -0.2864
  136SAPE  H11X14801   5.697   1.881   9.478 -1.0784  0.3057 -2.7667
  136SAPE  H11Y14802   5.852   1.965   9.471 -0.7111 -2.9521 -0.4379
  136SAPE  C31214803   5.692   2.058   9.365  0.6120 -0.4772 -0.2745
  136SAPE  H12X14804   5.759   2.146   9.351  0.9764 -0.6946  0.0554
  136SAPE  H12Y14805   5.586   2.085   9.381  0.2743 -1.6794 -0.4250
  136SAPE  C31314806   5.714   1.981   9.241 -0.4233  0.7979  0.1596
  136SAPE  H13X14807   5.642   1.897   9.252  1.4853 -0.8619  0.4815
  136SAPE  H13Y14808   5.819   1.946   9.232 -0.3886  1.2270 -1.4376
  136SAPE  C31414809   5.682   2.053   9.106 -0.3139  0.1483  0.5653
  136SAPE  H14X14810   5.769   2.122   9.098  0.6666 -1.0866  0.3684
  136SAPE  H14Y14811   5.595   2.120   9.122 -0.4534 -0.1153  0.9142
  136SAPE  C31514812   5.685   1.960   8.983 -0.4097  0.0770 -0.3468
  136SAPE  H15X14813   5.607   2.007   8.918  0.6091  1.0876 -0.8692
  136SAPE  H15Y14814   5.662   1.854   9.009  0.8855 -0.1486 -0.0841
  136SAPE  C31614815   5.820   1.963   8.909 -0.5682  0.8068  0.5229
  136SAPE  H16X14816   5.897   1.923   8.978  0.4173 -0.7412 -1.3894
  136SAPE  H16Y14817   5.843   2.064   8.869 -0.2525  0.1345 -1.0385
  136SAPE  C31714818   5.813   1.872   8.785  0.5441  0.6558 -0.4034
  136SAPE  H17X14819   5.797   1.768   8.822 -0.5997  1.2927  0.9957
  136SAPE  H17Y14820   5.910   1.864   8.733  0.2382 -0.9991 -0.7837
  136SAPE  C31814821   5.719   1.922   8.683  0.2533 -0.3010 -0.4156
  136SAPE  H18X14822   5.618   1.940   8.726  0.0418  1.0665 -1.4146
  136SAPE  H18Y14823   5.691   1.843   8.610 -1.7846 -1.1118  1.1274
  136SAPE  H18Z14824   5.747   2.021   8.640 -0.0104  0.0486  0.2045
  137SAPE     N14825   0.129   0.891  11.184 -0.3735  0.2589  0.1429
  137SAPE   HN114826   0.062   0.815  11.209  1.0149 -0.9186  0.4493
  137SAPE   HN214827   0.204   0.881  11.255  0.0158  0.6733 -0.2003
  137SAPE   HN314828   0.084   0.983  11.199  1.0162  0.7968  1.3047
  137SAPE   C1214829   0.163   0.886  11.036  0.3952  0.0683  0.1917
  137SAPE  H12A14830   0.249   0.819  11.018  0.9423  0.7475  0.2271
  137SAPE  H12B14831   0.200   0.988  11.011  2.2582 -0.6730 -0.2521
  137SAPE   C1114832   0.039   0.854  10.955  0.8252  0.2898 -0.4326
  137SAPE  H11A14833   0.024   0.745  10.974 -1.5595  0.6885  0.1872
  137SAPE  H11B14834   0.057   0.882  10.849 -1.9197  0.7403 -0.8472
  137SAPE     P14835  -0.120   1.069  10.971 -0.1550  0.3210  0.2570
  137SAPE   O1314836  -0.271   1.081  10.990 -0.3711  0.6337  0.9947
  137SAPE   O1414837  -0.038   1.157  11.062 -0.3270 -0.1512 -0.4090
  137SAPE   O1214838  -0.079   0.918  11.003  0.2133  0.3504  0.0691
  137SAPE   O1114839  -0.078   1.084  10.820  0.0018 -0.1875 -0.1444
  137SAPE    C114840  -0.178   1.052  10.721  0.8042  0.2107 -0.0397
  137SAPE    HA14841  -0.211   0.948  10.745  1.3640  0.1595  0.5372
  137SAPE    HB14842  -0.271   1.112  10.716  0.7723  0.0876 -1.0547
  137SAPE    C214843  -0.119   1.036  10.576 -0.0499 -0.7730 -0.3555
  137SAPE    HS14844  -0.096   1.138  10.538 -0.6209 -0.2172  0.7169
  137SAPE   O2114845  -0.200   0.965  10.487  0.1608 -0.0374  0.3209
  137SAPE   C2114846  -0.319   1.021  10.465 -0.2234 -0.9160  0.4111
  137SAPE   O2214847  -0.351   1.136  10.493  0.5222  0.2059  0.5640
  137SAPE   C2214848  -0.418   0.914  10.406 -0.3904 -0.4035 -0.4598
  137SAPE   H2R14849  -0.369   0.862  10.321  3.5019 -1.2800  2.0783
  137SAPE   H2S14850  -0.438   0.841  10.487  2.8441 -1.0428 -0.1219
  137SAPE    C314851   0.024   0.970  10.579  0.2408  0.9538  0.3475
  137SAPE    HX14852   0.005   0.873  10.629  0.8468  1.3605  1.3783
  137SAPE    HY14853   0.087   1.024  10.653  1.4118 -1.0268  0.8792
  137SAPE   O3114854   0.090   0.940  10.452 -0.3118  0.4243  0.3612
  137SAPE   C3114855   0.126   1.047  10.374 -0.5675 -0.0021 -0.2873
  137SAPE   O3214856   0.120   1.164  10.398  0.3046 -0.5017  0.2380
  137SAPE   C3214857   0.182   0.993  10.237  0.4143 -0.0898  0.0607
  137SAPE   H2X14858   0.123   1.027  10.149  0.9175  0.5822 -0.0252
  137SAPE   H2Y14859   0.191   0.882  10.238 -0.8472 -0.2226 -0.7981
  137SAPE   C2314860  -0.555   0.980  10.372  0.1779 -0.0415  0.3886
  137SAPE   H3R14861  -0.599   1.036  10.457  0.2523  1.7279 -0.6985
  137SAPE   H3S14862  -0.629   0.897  10.360 -1.6017  1.2615  1.7575
  137SAPE   C2414863  -0.537   1.069  10.248  0.0691  0.7122 -0.1067
  137SAPE   H4R14864  -0.468   1.151  10.277  0.2886 -0.1047  1.8223
  137SAPE   H4S14865  -0.631   1.127  10.234  1.1127  3.0620  1.8017
  137SAPE   C2514866  -0.516   0.985  10.133  0.0798 -0.2909 -0.6096
  137SAPE   H5R14867  -0.600   0.917  10.112 -1.5219  0.5839  2.3467
  137SAPE   C2614868  -0.412   0.995  10.048 -0.6588  0.3207 -0.0463
  137SAPE   H6R14869  -0.402   0.920   9.968  1.0955 -2.8156  2.8315
  137SAPE   C2714870  -0.293   1.089  10.053 -0.2886  0.1947 -0.4181
  137SAPE   H7R14871  -0.295   1.170  10.130  2.1729 -3.1948  3.6532
  137SAPE   H7S14872  -0.276   1.138   9.955 -2.3299 -1.6076 -1.7509
  137SAPE   C2814873  -0.165   1.009  10.087  0.5773  0.1261  0.1590
  137SAPE   H8R14874  -0.138   1.014  10.193 -1.3330  6.7390  0.8218
  137SAPE   C2914875  -0.091   0.949   9.988 -0.5304 -0.4397 -0.2098
  137SAPE   H9R14876  -0.009   0.882  10.015 -0.4686 -0.6983 -0.9967
  137SAPE  C21014877  -0.106   0.976   9.836  0.5551  0.6584 -0.0887
  137SAPE  H10R14878  -0.193   1.041   9.810 -0.0167 -0.4077 -0.9567
  137SAPE  H10S14879  -0.121   0.877   9.789  1.9937  0.7060 -0.6765
  137SAPE  C21114880   0.013   1.041   9.761 -0.3819 -0.0072 -0.0837
  137SAPE  H11R14881   0.074   1.113   9.817  0.1778  1.1606 -2.0729
  137SAPE  C21214882   0.037   1.020   9.631 -0.2485 -0.0068 -0.0786
  137SAPE  H12R14883   0.116   1.076   9.579  2.4849 -1.9789  1.7186
  137SAPE  C21314884  -0.038   0.927   9.532  0.2380 -0.3621 -0.2142
  137SAPE  H13R14885  -0.007   0.965   9.432  0.1644  0.8679  0.2203
  137SAPE  H13S14886  -0.147   0.931   9.551 -0.3286 -2.0935 -2.6167
  137SAPE  C21414887  -0.001   0.783   9.542  0.0788  0.2653  0.1624
  137SAPE  H14R14888   0.057   0.752   9.630  1.4416 -1.0204 -1.1120
  137SAPE  C21514889  -0.038   0.694   9.452 -0.5406 -0.6124  0.0743
  137SAPE  H15R14890  -0.011   0.591   9.479  1.6733  0.0111  0.4478
  137SAPE  C21614891  -0.115   0.710   9.322  0.4282  0.0578 -0.0810
  137SAPE  H16R14892  -0.072   0.642   9.245 -1.0366 -0.7523 -0.2208
  137SAPE  H16S14893  -0.114   0.815   9.285 -0.4373  0.3708  0.7237
  137SAPE  C21714894  -0.263   0.665   9.333 -0.0152  0.7522 -0.3695
  137SAPE  H17R14895  -0.310   0.745   9.271 -1.5119  1.2096  1.2712
  137SAPE  H17S14896  -0.308   0.686   9.433 -2.2306  0.6457 -1.2734
  137SAPE  C21814897  -0.309   0.530   9.271 -0.7192 -0.5398  0.0356
  137SAPE  H18R14898  -0.250   0.447   9.314  0.0938  0.2871  0.5374
  137SAPE  H18S14899  -0.299   0.540   9.161 -0.3879 -1.1644  0.0057
  137SAPE  C21914900  -0.458   0.497   9.302 -0.4100 -0.3286  0.4460
  137SAPE  H19R14901  -0.462   0.469   9.409  0.7654  1.8910  1.1377
  137SAPE  H19S14902  -0.476   0.407   9.239  0.0663  1.0097 -1.7044
  137SAPE  C22014903  -0.563   0.594   9.256  0.2456 -0.1710 -0.4854
  137SAPE  H20R14904  -0.661   0.544   9.267 -0.0094  0.8790  3.4767
  137SAPE  H20S14905  -0.544   0.624   9.150  1.9047  1.3759  0.1997
  137SAPE  H20T14906  -0.577   0.682   9.322  0.0613  0.1597 -0.9592
  137SAPE   C3314907   0.323   1.045  10.214  0.2449 -0.5187 -0.0591
  137SAPE   H3X14908   0.394   1.024  10.297  0.0286  0.4492  0.3864
  137SAPE   H3Y14909   0.315   1.156  10.218 -3.2296 -0.6177 -0.5412
  137SAPE   C3414910   0.377   0.989  10.083 -0.4586 -0.2345 -0.0124
  137SAPE   H4X14911   0.358   0.879  10.078  1.4178 -0.5569 -0.8041
  137SAPE   H4Y14912   0.486   1.005  10.080 -0.1655 -2.0654 -0.6778
  137SAPE   C3514913   0.319   1.051   9.960  0.3377 -0.6872  0.7744
  137SAPE   H5X14914   0.336   1.160   9.964 -0.5716 -0.5606  1.5504
  137SAPE   H5Y14915   0.209   1.033   9.968 -0.0489  1.1556  0.1082
  137SAPE   C3614916   0.378   0.990   9.836 -0.1421 -0.0169  0.4074
  137SAPE   H6X14917   0.312   0.905   9.808 -0.3994  0.6833 -1.2933
  137SAPE   H6Y14918   0.482   0.959   9.860  0.3622 -1.0939 -2.6517
  137SAPE   C3714919   0.386   1.091   9.708  0.0713 -0.6394  0.0899
  137SAPE   H7X14920   0.453   1.178   9.724 -0.2559 -0.3837  0.0821
  137SAPE   H7Y14921   0.280   1.122   9.691 -0.1608 -1.0692  0.7288
  137SAPE   C3814922   0.419   1.008   9.575  0.7018 -0.2819 -0.0041
  137SAPE   H8X14923   0.347   0.923   9.569 -0.4569  0.6272  0.5781
  137SAPE   H8Y14924   0.519   0.961   9.591  0.6065 -1.1184 -1.6882
  137SAPE   C3914925   0.426   1.099   9.450 -0.0709 -0.0496  0.1245
  137SAPE   H9X14926   0.510   1.172   9.448 -2.2950  2.6804 -0.9505
  137SAPE   H9Y14927   0.340   1.169   9.451  1.5739  2.1500 -1.0369
  137SAPE  C31014928   0.432   1.014   9.318 -0.1543 -0.1225 -0.4121
  137SAPE  H10X14929   0.334   0.963   9.302 -0.0668 -1.1782  1.9962
  137SAPE  H10Y14930   0.507   0.935   9.338 -1.8076 -1.5803  0.2709
  137SAPE  C31114931   0.472   1.094   9.197 -0.4274  0.3595 -0.8190
  137SAPE  H11X14932   0.576   1.133   9.205  1.0099 -2.9928 -1.6216
  137SAPE  H11Y14933   0.388   1.167   9.202 -1.2801 -0.6934  2.4501
  137SAPE  C31214934   0.455   1.027   9.062  0.4831  0.5906  0.0825
  137SAPE  H12X14935   0.533   0.949   9.047 -0.6621 -0.5224 -0.2590
  137SAPE  H12Y14936   0.483   1.109   8.992 -2.7116  0.9816 -0.9001
  137SAPE  C31314937   0.314   0.979   9.023  0.1112 -0.5525  0.7490
  137SAPE  H13X14938   0.311   0.995   8.913 -0.7939 -0.4355  0.7876
  137SAPE  H13Y14939   0.232   1.034   9.074  0.7376 -0.3929  1.6104
  137SAPE  C31414940   0.284   0.832   9.047  0.2196 -0.6433  0.9335
  137SAPE  H14X14941   0.302   0.810   9.155  0.8929  0.7663  1.1345
  137SAPE  H14Y14942   0.352   0.769   8.987  0.8104 -0.4260  1.3646
  137SAPE  C31514943   0.139   0.788   9.020 -0.1622  0.3874  0.6409
  137SAPE  H15X14944   0.076   0.853   9.085  0.4828  0.1764  1.5020
  137SAPE  H15Y14945   0.127   0.678   9.037 -2.7457  0.4702 -0.2220
  137SAPE  C31614946   0.095   0.804   8.876  0.3249 -0.3975 -0.1947
  137SAPE  H16X14947   0.125   0.723   8.807  0.1595  0.9985 -1.9847
  137SAPE  H16Y14948   0.142   0.894   8.830  0.9053 -1.2288 -1.2603
  137SAPE  C31714949  -0.056   0.820   8.871  0.1853 -0.0460  0.5149
  137SAPE  H17X14950  -0.096   0.833   8.769  0.8814  0.2616  0.2768
  137SAPE  H17Y14951  -0.091   0.904   8.935  1.2090 -0.1720  1.2817
  137SAPE  C31814952  -0.127   0.694   8.916 -0.6399  0.0437  0.1136
  137SAPE  H18X14953  -0.237   0.698   8.898 -0.3422  0.5718 -1.6995
  137SAPE  H18Y14954  -0.122   0.680   9.026  1.6036  3.3315  0.5776
  137SAPE  H18Z14955  -0.099   0.608   8.851 -0.2340 -0.6878  1.2245
  138SAPE     N14956   3.315   5.545  10.471  0.0909  0.0882  0.9938
  138SAPE   HN114957   3.385   5.562  10.546 -2.5676 -1.8577  4.2137
  138SAPE   HN214958   3.226   5.562  10.523 -0.2618 -0.1836  0.4903
  138SAPE   HN314959   3.319   5.447  10.434  2.0870  1.2075 -2.1312
  138SAPE   C1214960   3.323   5.655  10.368 -0.5297 -0.5508 -0.5608
  138SAPE  H12A14961   3.254   5.621  10.287 -1.3993 -2.0274  0.7496
  138SAPE  H12B14962   3.427   5.663  10.332 -0.0154  0.8233  1.1299
  138SAPE   C1114963   3.285   5.798  10.411  0.0725  0.3279 -0.0630
  138SAPE  H11A14964   3.177   5.805  10.436  0.3777  0.3259  1.3060
  138SAPE  H11B14965   3.317   5.857  10.322  0.9502  1.0737  0.7368
  138SAPE     P14966   3.323   5.946  10.625  0.4681 -0.0298 -0.0461
  138SAPE   O1314967   3.241   5.889  10.737 -0.0142  0.7548 -0.9305
  138SAPE   O1414968   3.433   6.034  10.668  0.3043 -0.0746  0.6984
  138SAPE   O1214969   3.367   5.836  10.520  0.3952 -0.2199 -0.2314
  138SAPE   O1114970   3.224   6.026  10.533  0.1573 -0.1608  0.4523
  138SAPE    C114971   3.276   6.105  10.421  0.1499 -0.2061  0.2417
  138SAPE    HA14972   3.318   6.204  10.449 -1.2198  0.8520 -1.2326
  138SAPE    HB14973   3.361   6.055  10.370 -0.6410  0.7708 -2.1426
  138SAPE    C214974   3.156   6.132  10.325  0.5025 -0.2791  0.7490
  138SAPE    HS14975   3.082   6.191  10.383  0.1157  0.0457 -0.0764
  138SAPE   O2114976   3.103   5.994  10.297  0.4540  0.1993  0.7803
  138SAPE   C2114977   2.971   5.995  10.277  0.1524 -0.2178  0.1434
  138SAPE   O2214978   2.894   6.090  10.282  0.2951  0.2661  0.2104
  138SAPE   C2214979   2.932   5.858  10.239  0.0834  0.0843 -0.1079
  138SAPE   H2R14980   2.956   5.797  10.328  0.6468  0.4653  0.0014
  138SAPE   H2S14981   2.821   5.861  10.226  0.0915  1.4577  0.0258
  138SAPE    C314982   3.201   6.212  10.198  0.8228  0.1502 -0.1895
  138SAPE    HX14983   3.285   6.166  10.141  1.5712  0.1568  0.8676
  138SAPE    HY14984   3.234   6.314  10.228  1.4259  0.2184 -1.0530
  138SAPE   O3114985   3.093   6.225  10.106  0.0462 -0.0156  0.4285
  138SAPE   C3114986   3.000   6.317  10.135 -0.1019  0.0312  0.9131
  138SAPE   O3214987   2.995   6.382  10.239 -0.4470 -0.5301 -0.2577
  138SAPE   C3214988   2.894   6.304  10.025  0.1181 -0.0294 -0.6313
  138SAPE   H2X14989   2.816   6.375  10.060  1.2958  0.3106  1.4336
  138SAPE   H2Y14990   2.849   6.203  10.038  0.7438 -0.2906 -0.4409
  138SAPE   C2314991   3.009   5.804  10.121  0.1280  0.2859  0.4971
  138SAPE   H3R14992   2.995   5.696  10.099  3.1451 -0.0739  0.0356
  138SAPE   H3S14993   3.116   5.825  10.140 -0.3996  4.1202  0.0109
  138SAPE   C2414994   2.975   5.892   9.994  0.1360  0.1757 -0.5213
  138SAPE   H4R14995   3.052   5.862   9.920  0.5494 -1.4250  0.5030
  138SAPE   H4S14996   2.989   5.999  10.020  0.9400  0.0600 -0.4541
  138SAPE   C2514997   2.833   5.878   9.939 -0.2542 -0.2152  0.4255
  138SAPE   H5R14998   2.751   5.890  10.012 -0.3708 -1.7488  0.5845
  138SAPE   C2614999   2.802   5.845   9.814 -0.1923 -0.3225 -0.0117
  138SAPE   H6R15000   2.695   5.843   9.789 -0.4650 -1.4368  1.1499
  138SAPE   C2715001   2.904   5.824   9.707  0.2119 -0.0265  0.1605
  138SAPE   H7R15002   2.867   5.757   9.626  1.4133  0.9408 -1.2444
  138SAPE   H7S15003   3.004   5.784   9.736 -0.1595 -0.4607  0.8519
  138SAPE   C2815004   2.942   5.957   9.643  0.7941 -0.4788  0.2362
  138SAPE   H8R15005   2.963   6.035   9.717  0.9375 -0.4587  0.1730
  138SAPE   C2915006   2.952   5.994   9.514  0.7521  0.6873  0.4005
  138SAPE   H9R15007   2.989   6.096   9.491 -2.4813  1.6936 -0.8689
  138SAPE  C21015008   2.940   5.906   9.389 -0.7211 -0.2601  0.0252
  138SAPE  H10R15009   2.914   5.974   9.305 -0.4115 -0.6234 -0.3684
  138SAPE  H10S15010   2.858   5.834   9.405  0.7117 -1.7787  0.8393
  138SAPE  C21115011   3.068   5.831   9.359  0.0939  1.0313 -0.0982
  138SAPE  H11R15012   3.124   5.810   9.452 -0.5688 -1.0487 -0.1222
  138SAPE  C21215013   3.103   5.780   9.237 -0.2954  0.3502  0.1530
  138SAPE  H12R15014   3.190   5.713   9.231 -1.1193 -0.8109  0.6596
  138SAPE  C21315015   3.025   5.799   9.108 -0.8200  0.5314 -0.4097
  138SAPE  H13R15016   2.944   5.873   9.128  1.5771  2.9211  1.0851
  138SAPE  H13S15017   2.990   5.699   9.075  1.9460 -0.2448 -1.1888
  138SAPE  C21415018   3.109   5.858   9.003  0.5169  0.7770  0.0539
  138SAPE  H14R15019   3.215   5.833   9.014 -0.0280 -2.8356 -1.5845
  138SAPE  C21515020   3.072   5.936   8.897  0.3163  0.2355 -0.5886
  138SAPE  H15R15021   3.145   5.979   8.828  0.6825 -2.6602 -2.1671
  138SAPE  C21615022   2.926   5.966   8.863 -0.1000 -0.5856  0.4816
  138SAPE  H16R15023   2.879   6.061   8.896 -0.8737 -1.3380  1.6396
  138SAPE  H16S15024   2.860   5.879   8.885 -0.3099 -1.4959 -3.1910
  138SAPE  C21715025   2.907   5.968   8.710  0.2143  0.1631  0.1141
  138SAPE  H17R15026   2.975   5.888   8.674  1.2309  1.2613 -0.5150
  138SAPE  H17S15027   2.947   6.061   8.662  0.3430 -0.9671 -2.1121
  138SAPE  C21815028   2.767   5.935   8.658 -0.1310  0.4636 -1.4075
  138SAPE  H18R15029   2.694   6.015   8.681 -1.4961 -1.2626  0.6130
  138SAPE  H18S15030   2.731   5.836   8.692  0.5568  0.7048  0.0935
  138SAPE  C21915031   2.772   5.926   8.504 -0.4766 -0.7752 -0.4563
  138SAPE  H19R15032   2.823   5.833   8.470 -0.8027 -1.1144 -0.0239
  138SAPE  H19S15033   2.829   6.010   8.459 -1.2334  0.0085  0.0070
  138SAPE  C22015034   2.635   5.915   8.446  0.4069 -0.0889 -0.2060
  138SAPE  H20R15035   2.646   5.896   8.337  3.3870  0.3004 -0.0555
  138SAPE  H20S15036   2.582   6.012   8.461 -0.3081 -0.1215 -2.1847
  138SAPE  H20T15037   2.589   5.826   8.493  1.3206  0.2645  1.4184
  138SAPE   C3315038   2.938   6.346   9.885  0.1161 -0.0934 -0.2998
  138SAPE   H3X15039   3.009   6.269   9.849  1.1740  1.7448 -2.4372
  138SAPE   H3Y15040   2.984   6.447   9.896  1.1856 -0.8777  4.5105
  138SAPE   C3415041   2.814   6.353   9.798 -0.0080 -1.3808 -0.2017
  138SAPE   H4X15042   2.751   6.438   9.830  1.5833  0.5432 -1.9263
  138SAPE   H4Y15043   2.756   6.260   9.817  0.8532 -1.8116  0.3772
  138SAPE   C3515044   2.837   6.389   9.641  0.4329  0.1576  0.2709
  138SAPE   H5X15045   2.913   6.323   9.595 -1.8372 -1.2694 -1.6566
  138SAPE   H5Y15046   2.876   6.492   9.625 -0.6087  0.4073 -0.8001
  138SAPE   C3615047   2.699   6.385   9.570  0.0527  0.1636  0.4070
  138SAPE   H6X15048   2.643   6.480   9.582 -0.8163 -0.0749 -1.4053
  138SAPE   H6Y15049   2.659   6.294   9.619  2.1190 -0.4830  1.0007
  138SAPE   C3715050   2.708   6.350   9.420  0.6563 -0.1606  0.2238
  138SAPE   H7X15051   2.604   6.348   9.379  0.5052 -1.8234  0.5994
  138SAPE   H7Y15052   2.755   6.250   9.406  2.1508  0.1561  2.4658
  138SAPE   C3815053   2.785   6.454   9.338  0.3739 -0.2362  0.0468
  138SAPE   H8X15054   2.893   6.434   9.357 -0.0560 -1.3819  1.4949
  138SAPE   H8Y15055   2.766   6.553   9.384  1.3530  0.1054 -0.2418
  138SAPE   C3915056   2.743   6.460   9.192 -0.9478  1.0433 -0.3702
  138SAPE   H9X15057   2.808   6.533   9.137  1.9435 -0.3943  0.9184
  138SAPE   H9Y15058   2.642   6.506   9.191 -1.6785 -0.4686  0.9116
  138SAPE  C31015059   2.740   6.331   9.126 -0.0489 -0.4366  0.2433
  138SAPE  H10X15060   2.659   6.270   9.172 -0.5042 -0.4291 -0.5296
  138SAPE  H10Y15061   2.839   6.295   9.160  1.4829 -0.1432 -3.4223
  138SAPE  C31115062   2.711   6.338   8.972  0.0290 -0.2844 -0.1943
  138SAPE  H11X15063   2.615   6.392   8.954  0.9000  0.7880 -1.9139
  138SAPE  H11Y15064   2.701   6.233   8.939 -0.4450 -0.6486  1.0447
  138SAPE  C31215065   2.826   6.400   8.892  0.6244  0.4937  0.0450
  138SAPE  H12X15066   2.924   6.366   8.930  0.8640  0.7749 -0.3050
  138SAPE  H12Y15067   2.836   6.508   8.919  2.1519  0.4820 -0.3775
  138SAPE  C31315068   2.810   6.386   8.739 -0.2528  0.6206  0.4121
  138SAPE  H13X15069   2.741   6.469   8.711  0.5584  0.8974 -0.8373
  138SAPE  H13Y15070   2.761   6.289   8.718 -1.1272  0.9402  0.8771
  138SAPE  C31415071   2.929   6.414   8.653 -0.0607  0.1048 -0.0067
  138SAPE  H14X15072   3.017   6.352   8.678  0.6667  1.6900  1.5860
  138SAPE  H14Y15073   2.963   6.509   8.700  0.3796 -0.6724  1.3031
  138SAPE  C31515074   2.901   6.399   8.508 -0.8022 -0.1438  0.2087
  138SAPE  H15X15075   2.867   6.295   8.491  1.4149 -1.0368  0.8544
  138SAPE  H15Y15076   2.993   6.407   8.446 -1.5373 -4.0248 -1.6534
  138SAPE  C31615077   2.795   6.490   8.447  0.3838 -0.1226 -0.4637
  138SAPE  H16X15078   2.712   6.494   8.521  0.2058 -1.5744 -0.5383
  138SAPE  H16Y15079   2.758   6.436   8.357  1.7795 -1.1661 -0.4470
  138SAPE  C31715080   2.845   6.629   8.409  0.1138  0.0345  0.8785
  138SAPE  H17X15081   2.796   6.667   8.317  1.0035 -0.8949  0.0156
  138SAPE  H17Y15082   2.952   6.644   8.386  0.8021 -1.4000  2.8452
  138SAPE  C31815083   2.818   6.721   8.521 -0.0404  0.0743 -0.0631
  138SAPE  H18X15084   2.710   6.747   8.528 -0.2053 -0.9314  2.2567
  138SAPE  H18Y15085   2.868   6.818   8.498 -0.1875  0.1510 -0.0606
  138SAPE  H18Z15086   2.849   6.682   8.621  0.3974 -0.0647 -0.2487
  139SAPE     N15087   2.369   4.054  10.373 -0.3545  0.9139  0.4303
  139SAPE   HN115088   2.420   4.037  10.462 -1.7334 -0.1057  1.0511
  139SAPE   HN215089   2.441   4.075  10.301 -0.0534  1.8369  0.9876
  139SAPE   HN315090   2.321   4.146  10.384  0.3676  1.5554 -1.3269
  139SAPE   C1215091   2.262   3.945  10.333 -0.2738  0.1938 -0.5561
  139SAPE  H12A15092   2.297   3.839  10.332 -0.0653  0.2691 -1.7807
  139SAPE  H12B15093   2.223   3.970  10.233  0.9055  0.6317 -0.9234
  139SAPE   C1115094   2.153   3.950  10.444  0.6241  0.5305 -0.0732
  139SAPE  H11A15095   2.201   3.940  10.544 -0.4008  0.4376  0.4216
  139SAPE  H11B15096   2.097   3.858  10.421  2.2037  0.0394 -2.3439
  139SAPE     P15097   2.009   4.132  10.556  0.4608 -0.0991 -0.1382
  139SAPE   O1315098   2.114   4.137  10.663  0.3180  0.2492  0.4813
  139SAPE   O1415099   1.941   4.258  10.510 -0.1828 -0.4559 -0.0968
  139SAPE   O1215100   2.076   4.075  10.424  0.2771  0.8088 -0.0126
  139SAPE   O1115101   1.902   4.026  10.602 -0.6742  0.2522  0.0370
  139SAPE    C115102   1.760   4.035  10.596 -0.0207 -0.6165  0.2255
  139SAPE    HA15103   1.726   3.992  10.693 -0.8239  0.8236  0.6182
  139SAPE    HB15104   1.729   4.142  10.593  0.8146 -0.3651  0.3300
  139SAPE    C215105   1.686   3.962  10.481 -0.0101  1.2802 -0.2611
  139SAPE    HS15106   1.577   3.965  10.503 -0.3388 -1.0819 -1.2505
  139SAPE   O2115107   1.738   3.823  10.464  0.3170 -0.0883  0.4476
  139SAPE   C2115108   1.663   3.726  10.521  0.2939  0.5656 -0.4596
  139SAPE   O2215109   1.577   3.731  10.607  0.5569 -0.2320  0.3304
  139SAPE   C2215110   1.715   3.590  10.468  0.1948 -0.3601  0.0798
  139SAPE   H2R15111   1.825   3.600  10.479  0.0994 -0.5130  1.3908
  139SAPE   H2S15112   1.693   3.506  10.539  1.5202 -1.3113 -0.5944
  139SAPE    C315113   1.712   4.025  10.341  0.6475 -0.1556  0.4213
  139SAPE    HX15114   1.816   4.011  10.306  0.2053 -0.8786 -0.6493
  139SAPE    HY15115   1.706   4.136  10.353  1.6868 -0.4021  4.5864
  139SAPE   O3115116   1.634   3.967  10.235  0.0933 -0.3523 -0.7284
  139SAPE   C3115117   1.511   4.010  10.235 -0.2236  0.0806  0.1179
  139SAPE   O3215118   1.456   4.076  10.323 -0.1131 -0.2120  0.0688
  139SAPE   C3215119   1.439   3.930  10.123 -0.5971  0.7909  1.1109
  139SAPE   H2X15120   1.329   3.935  10.140 -1.2381  1.0522 -2.3017
  139SAPE   H2Y15121   1.470   3.823  10.123 -1.1317  0.6218  2.1632
  139SAPE   C2315122   1.672   3.561  10.321  0.0841  0.0974  0.3397
  139SAPE   H3R15123   1.742   3.486  10.278  0.2830  0.1554  0.5595
  139SAPE   H3S15124   1.680   3.652  10.258 -0.8067  0.3309  0.5542
  139SAPE   C2415125   1.530   3.489  10.318 -0.4316 -0.6202  0.6238
  139SAPE   H4R15126   1.540   3.408  10.393  3.3764  0.1453  1.1548
  139SAPE   H4S15127   1.536   3.434  10.222  3.9784 -2.4857  1.6809
  139SAPE   C2515128   1.403   3.565  10.347 -0.3847 -0.0023 -0.3510
  139SAPE   H5R15129   1.401   3.621  10.442 -0.9586 -0.3426 -0.1547
  139SAPE   C2615130   1.309   3.582  10.255  0.8125  0.1559  0.2188
  139SAPE   H6R15131   1.214   3.623  10.293  0.3884 -1.7752  1.3692
  139SAPE   C2715132   1.298   3.538  10.109  0.6631 -0.4214 -0.1793
  139SAPE   H7R15133   1.273   3.431  10.095 -1.9696  0.3340 -2.0722
  139SAPE   H7S15134   1.402   3.550  10.073  0.5168 -0.7004 -0.7046
  139SAPE   C2815135   1.192   3.623  10.043 -0.0629  0.0098 -0.1342
  139SAPE   H8R15136   1.098   3.639  10.099 -0.1726  1.4833 -0.6859
  139SAPE   C2915137   1.199   3.675   9.920  0.3115  0.2549  0.2055
  139SAPE   H9R15138   1.111   3.727   9.879  1.2683  0.0680 -2.2866
  139SAPE  C21015139   1.314   3.663   9.817  0.6673  0.5911  0.0976
  139SAPE  H10R15140   1.403   3.607   9.851  0.9998  0.3284 -1.1670
  139SAPE  H10S15141   1.358   3.761   9.790  1.8107 -0.3565 -1.7030
  139SAPE  C21115142   1.255   3.603   9.688  0.6931 -0.5947 -0.5336
  139SAPE  H11R15143   1.176   3.528   9.698  0.3014 -0.0716  0.4284
  139SAPE  C21215144   1.285   3.642   9.567 -0.4177  0.3136  0.0436
  139SAPE  H12R15145   1.224   3.606   9.484  0.2941 -0.2884 -0.2324
  139SAPE  C21315146   1.389   3.743   9.540  0.2276 -0.9173  0.3346
  139SAPE  H13R15147   1.456   3.712   9.457  1.9679 -1.2751  1.8016
  139SAPE  H13S15148   1.465   3.767   9.618  2.9150 -0.6793 -2.1365
  139SAPE  C21415149   1.313   3.875   9.513 -0.2449 -0.3530 -0.4075
  139SAPE  H14R15150   1.292   3.930   9.606  3.2519 -0.6830  0.7567
  139SAPE  C21515151   1.256   3.921   9.403  0.5611  0.3426  0.7401
  139SAPE  H15R15152   1.200   4.015   9.409 -0.8029 -0.3449 -0.3874
  139SAPE  C21615153   1.242   3.848   9.269 -0.3641 -0.3908 -0.0145
  139SAPE  H16R15154   1.132   3.833   9.260 -0.6055  0.3393  1.4534
  139SAPE  H16S15155   1.292   3.749   9.270  0.3057 -0.0655  2.1436
  139SAPE  C21715156   1.293   3.918   9.136  0.1818 -0.1039  0.1738
  139SAPE  H17R15157   1.255   4.022   9.140  2.9747  1.0090  0.0923
  139SAPE  H17S15158   1.244   3.864   9.052 -1.8399 -1.9355  2.3769
  139SAPE  C21815159   1.442   3.926   9.112 -0.1481 -0.3228  0.6094
  139SAPE  H18R15160   1.483   3.831   9.152 -1.6573 -0.4102  2.0932
  139SAPE  H18S15161   1.482   4.004   9.180 -1.5382  0.7643  0.2338
  139SAPE  C21915162   1.482   3.959   8.966 -0.2600  0.2057  0.5621
  139SAPE  H19R15163   1.588   3.990   8.979  0.0988 -0.6534 -0.2265
  139SAPE  H19S15164   1.431   4.048   8.924  2.9591  1.2591 -1.5243
  139SAPE  C22015165   1.469   3.834   8.882  0.0562  0.0509 -0.2667
  139SAPE  H20R15166   1.517   3.856   8.784 -1.0496 -1.6430 -1.2330
  139SAPE  H20S15167   1.363   3.807   8.865 -0.4743  1.7192  0.1514
  139SAPE  H20T15168   1.527   3.749   8.923  1.6362  0.5148 -1.4656
  139SAPE   C3315169   1.463   3.987   9.980  1.0114  0.0494 -0.2127
  139SAPE   H3X15170   1.422   3.915   9.906 -2.7078  1.8722 -0.1507
  139SAPE   H3Y15171   1.569   4.003   9.953  1.0452  0.6351  0.2501
  139SAPE   C3415172   1.379   4.120   9.962 -0.1628  0.6560  0.8488
  139SAPE   H4X15173   1.406   4.198  10.037  1.7547 -0.2154  1.1087
  139SAPE   H4Y15174   1.269   4.102   9.954  0.1899 -1.5270  0.5558
  139SAPE   C3515175   1.435   4.185   9.836  0.0639  0.0564 -0.6342
  139SAPE   H5X15176   1.410   4.113   9.754 -2.6746 -0.7164  0.7570
  139SAPE   H5Y15177   1.538   4.223   9.853 -1.2398  3.6311  0.0549
  139SAPE   C3615178   1.363   4.314   9.789 -0.2243 -0.6979 -0.2335
  139SAPE   H6X15179   1.363   4.389   9.871 -2.7448 -0.8652 -0.0017
  139SAPE   H6Y15180   1.260   4.287   9.757 -0.7032  0.7172  0.0330
  139SAPE   C3715181   1.439   4.379   9.672  0.2413 -0.5039 -0.1156
  139SAPE   H7X15182   1.549   4.386   9.692  0.0972 -1.7878  1.3631
  139SAPE   H7Y15183   1.414   4.486   9.663 -0.2579 -0.3448  2.5316
  139SAPE   C3815184   1.416   4.315   9.536 -0.2233 -0.3557 -0.4209
  139SAPE   H8X15185   1.307   4.314   9.515 -0.3823  1.4275  0.1670
  139SAPE   H8Y15186   1.452   4.210   9.544  3.2234  0.7876  1.0646
  139SAPE   C3915187   1.484   4.387   9.416  0.3938 -0.0112  0.1118
  139SAPE   H9X15188   1.592   4.384   9.443 -0.1316 -1.4914  2.3327
  139SAPE   H9Y15189   1.450   4.493   9.417  1.1665  0.2408  1.7201
  139SAPE  C31015190   1.455   4.332   9.281 -0.5662 -0.0490  0.4655
  139SAPE  H10X15191   1.353   4.366   9.251 -0.4120 -0.0232 -0.0500
  139SAPE  H10Y15192   1.457   4.222   9.291 -4.7247 -0.6884 -2.5348
  139SAPE  C31115193   1.548   4.368   9.159  0.6293 -0.2417 -0.7503
  139SAPE  H11X15194   1.642   4.308   9.163  0.6418 -0.1618  1.6764
  139SAPE  H11Y15195   1.577   4.475   9.165 -1.0056  0.1557  0.8936
  139SAPE  C31215196   1.470   4.344   9.024 -0.3215  0.3530 -0.3185
  139SAPE  H12X15197   1.411   4.436   9.004  0.1801  0.8953  0.5873
  139SAPE  H12Y15198   1.394   4.265   9.038 -1.6497  1.7511  0.6581
  139SAPE  C31315199   1.576   4.333   8.916  0.3170 -0.1105 -0.0141
  139SAPE  H13X15200   1.628   4.235   8.925 -0.8827 -0.7623 -0.0316
  139SAPE  H13Y15201   1.651   4.414   8.926  1.5063 -0.9838 -1.4242
  139SAPE  C31415202   1.515   4.324   8.779 -0.5848  0.1719  0.0363
  139SAPE  H14X15203   1.452   4.414   8.758  2.0316  2.0245 -0.4574
  139SAPE  H14Y15204   1.438   4.246   8.762 -1.9265  1.5254 -0.3974
  139SAPE  C31515205   1.628   4.314   8.670  0.7335  0.4031 -0.5721
  139SAPE  H15X15206   1.695   4.238   8.716  0.1374  1.5556  2.4340
  139SAPE  H15Y15207   1.690   4.406   8.658  0.9383  0.2081 -1.0337
  139SAPE  C31615208   1.571   4.266   8.538  0.3176  1.0704 -0.4358
  139SAPE  H16X15209   1.509   4.174   8.545  2.7771 -0.7735 -1.5107
  139SAPE  H16Y15210   1.489   4.335   8.509 -0.1702  0.7364  0.1197
  139SAPE  C31715211   1.685   4.244   8.436 -0.1496  0.0785 -0.4504
  139SAPE  H17X15212   1.631   4.210   8.345 -1.9769 -1.3984  1.0999
  139SAPE  H17Y15213   1.744   4.164   8.484 -1.0934 -0.7428 -0.6347
  139SAPE  C31815214   1.766   4.361   8.390 -0.0084 -0.2445 -0.4874
  139SAPE  H18X15215   1.750   4.444   8.462  0.2917 -1.7062  1.3410
  139SAPE  H18Y15216   1.734   4.398   8.290 -0.9335  1.0446  0.2555
  139SAPE  H18Z15217   1.875   4.339   8.380 -0.4275 -1.8273 -2.3369
  140SAPE     N15218   3.345   0.768  10.774  0.0921 -0.0411  0.4016
  140SAPE   HN115219   3.422   0.825  10.814 -0.3840 -0.5893  2.2368
  140SAPE   HN215220   3.268   0.760  10.844  0.7035 -2.7935  0.8627
  140SAPE   HN315221   3.383   0.675  10.751  0.5752  0.3334 -0.3336
  140SAPE   C1215222   3.284   0.826  10.652  0.0374  0.3647  0.0079
  140SAPE  H12A15223   3.210   0.753  10.614 -0.5632 -0.3212  2.3292
  140SAPE  H12B15224   3.365   0.836  10.576 -0.1353 -2.1823 -0.6036
  140SAPE   C1115225   3.224   0.957  10.692  0.6228 -0.5301 -0.1765
  140SAPE  H11A15226   3.172   0.995  10.602  0.8961 -1.2925 -0.6639
  140SAPE  H11B15227   3.296   1.037  10.721 -1.4678  0.5494  2.5611
  140SAPE     P15228   3.032   1.040  10.877  0.1473 -0.0271  0.0562
  140SAPE   O1315229   3.051   1.035  11.025  0.0603 -0.2684 -0.1301
  140SAPE   O1415230   3.052   1.170  10.806 -0.5058 -0.2563  0.0553
  140SAPE   O1215231   3.134   0.942  10.806 -0.2061  0.1137  0.1643
  140SAPE   O1115232   2.881   0.977  10.844 -0.2870  0.0460  0.4299
  140SAPE    C115233   2.853   0.841  10.841 -0.3453 -0.2741 -0.0887
  140SAPE    HA15234   2.903   0.792  10.927  0.7318 -0.4748 -0.7999
  140SAPE    HB15235   2.746   0.841  10.872 -0.0680  2.5382  1.1291
  140SAPE    C215236   2.873   0.773  10.698 -0.7943  0.0724  0.1809
  140SAPE    HS15237   2.983   0.772  10.682 -1.0853 -0.7875 -2.1985
  140SAPE   O2115238   2.819   0.858  10.603  0.0213  0.1996  0.0915
  140SAPE   C2115239   2.876   0.876  10.484 -1.0036 -0.7164  0.4172
  140SAPE   O2215240   2.979   0.829  10.447 -0.6152  0.2594  0.1430
  140SAPE   C2215241   2.774   0.932  10.395 -0.3925  0.6897  0.2454
  140SAPE   H2R15242   2.695   0.997  10.437 -3.6794 -2.0691 -1.0651
  140SAPE   H2S15243   2.828   0.980  10.311  0.1096 -0.5142 -0.1539
  140SAPE    C315244   2.825   0.625  10.700 -0.3420  0.0589  0.2460
  140SAPE    HX15245   2.717   0.635  10.723  0.0905  0.9015  2.1371
  140SAPE    HY15246   2.872   0.574  10.787  1.6537  0.5675 -0.4640
  140SAPE   O3115247   2.836   0.546  10.579 -0.0474 -0.5742 -0.9225
  140SAPE   C3115248   2.964   0.510  10.559 -0.5804  0.0008  0.0887
  140SAPE   O3215249   3.050   0.517  10.646  0.0128  0.1360 -0.6173
  140SAPE   C3215250   2.993   0.466  10.415 -1.0959 -0.1719  0.0464
  140SAPE   H2X15251   3.006   0.356  10.411  1.4816  0.1069 -0.4532
  140SAPE   H2Y15252   3.081   0.521  10.376 -0.2593 -1.0160  0.6869
  140SAPE   C2315253   2.699   0.823  10.311 -0.2964  0.0259  0.5797
  140SAPE   H3R15254   2.668   0.748  10.388 -1.4198  0.6335  0.7305
  140SAPE   H3S15255   2.778   0.776  10.248  1.0954  3.6606 -0.6030
  140SAPE   C2415256   2.575   0.885  10.242 -0.3521  0.2418 -0.3234
  140SAPE   H4R15257   2.614   0.986  10.217  3.8666 -0.5995  1.8574
  140SAPE   H4S15258   2.491   0.903  10.312 -1.5461 -2.2070 -1.0180
  140SAPE   C2515259   2.525   0.805  10.123  0.7341 -0.1713  0.2060
  140SAPE   H5R15260   2.455   0.722  10.142 -1.5171  1.5128 -0.3701
  140SAPE   C2615261   2.526   0.852   9.994  0.8592 -0.3906 -0.5716
  140SAPE   H6R15262   2.503   0.782   9.912  0.1862 -0.6940 -0.1363
  140SAPE   C2715263   2.593   0.980   9.957  0.5678 -0.2838  0.1750
  140SAPE   H7R15264   2.650   0.973   9.862  2.3127  1.8501  0.9847
  140SAPE   H7S15265   2.668   1.018  10.028 -1.4127  0.0742  2.1947
  140SAPE   C2815266   2.467   1.070   9.945  0.6706  0.5343  0.5073
  140SAPE   H8R15267   2.427   1.112  10.039 -0.2938  0.5928  0.0784
  140SAPE   C2915268   2.387   1.081   9.831  0.7160  0.0750  1.2038
  140SAPE   H9R15269   2.312   1.162   9.824 -0.0440 -0.6035  1.2728
  140SAPE  C21015270   2.414   1.019   9.696  0.3010  0.4951 -0.2396
  140SAPE  H10R15271   2.316   1.015   9.644 -0.2277  3.0517  0.4234
  140SAPE  H10S15272   2.441   0.915   9.722 -1.7053 -0.4562 -1.7283
  140SAPE  C21115273   2.519   1.073   9.607  0.4826  0.9430 -0.4219
  140SAPE  H11R15274   2.616   1.078   9.659  0.1461 -2.1445  0.7047
  140SAPE  C21215275   2.506   1.125   9.488  0.3434 -0.0277  0.1546
  140SAPE  H12R15276   2.594   1.161   9.432  2.4050 -4.5011  0.0575
  140SAPE  C21315277   2.375   1.123   9.405  0.2228 -0.0055 -0.5847
  140SAPE  H13R15278   2.286   1.129   9.471  0.5194 -2.6502  0.1600
  140SAPE  H13S15279   2.357   1.033   9.342 -3.1767  0.1996 -0.0869
  140SAPE  C21415280   2.362   1.246   9.318  0.0192  0.0904  0.3170
  140SAPE  H14R15281   2.378   1.229   9.210  0.4239 -0.3283  0.4388
  140SAPE  C21515282   2.324   1.368   9.356  0.4062  0.1053 -0.0213
  140SAPE  H15R15283   2.310   1.454   9.289 -2.7570  2.0139  2.7246
  140SAPE  C21615284   2.297   1.411   9.499 -0.8585  0.1263 -0.0463
  140SAPE  H16R15285   2.279   1.320   9.560 -2.9323  1.4752  1.4771
  140SAPE  H16S15286   2.203   1.469   9.515 -0.2382  0.7357  1.4977
  140SAPE  C21715287   2.418   1.487   9.568  0.5326 -0.1772  0.3128
  140SAPE  H17R15288   2.444   1.573   9.503 -0.0167  1.0573  1.6819
  140SAPE  H17S15289   2.506   1.420   9.579 -0.4486 -1.1297  3.1715
  140SAPE  C21815290   2.393   1.550   9.708  0.1693 -0.6397  0.5300
  140SAPE  H18R15291   2.299   1.609   9.702  0.6309  0.1582  0.9738
  140SAPE  H18S15292   2.488   1.605   9.726  1.6081 -2.3738 -1.3348
  140SAPE  C21915293   2.381   1.442   9.816  0.0141 -0.2410 -0.3058
  140SAPE  H19R15294   2.470   1.379   9.796  1.5970  1.1030  2.0811
  140SAPE  H19S15295   2.287   1.383   9.801 -0.1819  0.2329 -1.0216
  140SAPE  C22015296   2.399   1.494   9.963 -0.1171 -0.0480 -0.1770
  140SAPE  H20R15297   2.504   1.526   9.983 -0.2781  0.8434 -0.6844
  140SAPE  H20S15298   2.374   1.415  10.036  1.3403 -0.4401 -0.0796
  140SAPE  H20T15299   2.326   1.577   9.977  1.6763  1.6087 -0.1268
  140SAPE   C3315300   2.879   0.494  10.317  0.2860 -0.5238 -0.2909
  140SAPE   H3X15301   2.831   0.591  10.342 -0.6568 -1.2968  1.0890
  140SAPE   H3Y15302   2.802   0.414  10.329 -0.2368 -0.1773 -1.2229
  140SAPE   C3415303   2.923   0.482  10.173  0.1214  0.2927  0.3103
  140SAPE   H4X15304   2.983   0.390  10.155  0.0715  0.4444 -0.6516
  140SAPE   H4Y15305   2.992   0.565  10.148 -1.0629  0.7083 -1.8275
  140SAPE   C3515306   2.806   0.476  10.069 -0.3560  0.6431  0.5774
  140SAPE   H5X15307   2.724   0.530  10.120  0.9584  1.1827  2.1842
  140SAPE   H5Y15308   2.776   0.370  10.054 -2.8551  1.4329 -0.5249
  140SAPE   C3615309   2.846   0.547   9.934  0.0122  0.2959  0.4294
  140SAPE   H6X15310   2.940   0.500   9.898 -0.8633 -1.2268  0.0409
  140SAPE   H6Y15311   2.855   0.656   9.950 -0.5089  0.4074  0.0080
  140SAPE   C3715312   2.733   0.548   9.826 -0.1970  0.3566 -0.7775
  140SAPE   H7X15313   2.650   0.605   9.872  0.4292 -0.7407  1.8828
  140SAPE   H7Y15314   2.711   0.440   9.812  1.4959 -0.4194  1.8347
  140SAPE   C3815315   2.761   0.612   9.693  0.3222 -0.2514 -0.5560
  140SAPE   H8X15316   2.859   0.572   9.662  1.6223  1.6200  0.9228
  140SAPE   H8Y15317   2.778   0.722   9.689 -1.3492  0.0655  0.0991
  140SAPE   C3915318   2.657   0.587   9.590 -0.2591  0.4938 -0.3828
  140SAPE   H9X15319   2.567   0.626   9.641  1.3545  1.9520  1.5097
  140SAPE   H9Y15320   2.645   0.478   9.576  3.5519 -0.0653 -0.5881
  140SAPE  C31015321   2.676   0.671   9.463 -0.0462  0.0956 -0.0370
  140SAPE  H10X15322   2.780   0.653   9.430  0.0839 -4.7806  2.2088
  140SAPE  H10Y15323   2.653   0.777   9.486  1.6335  0.7996 -1.3695
  140SAPE  C31115324   2.579   0.633   9.353  0.3785  0.0031 -0.0393
  140SAPE  H11X15325   2.474   0.647   9.386 -0.1093  0.4414 -1.6549
  140SAPE  H11Y15326   2.587   0.525   9.328  0.9096 -0.2597  1.2165
  140SAPE  C31215327   2.585   0.705   9.213 -0.0338 -0.4688 -1.1141
  140SAPE  H12X15328   2.681   0.758   9.196 -2.2493  3.9003 -1.1919
  140SAPE  H12Y15329   2.514   0.790   9.225  0.9134  0.1066  0.9116
  140SAPE  C31315330   2.538   0.601   9.101  0.2100 -0.1138  0.3018
  140SAPE  H13X15331   2.438   0.565   9.132 -0.6580  1.2119 -0.8470
  140SAPE  H13Y15332   2.607   0.514   9.101  0.9734  0.4678 -1.1622
  140SAPE  C31415333   2.523   0.661   8.959 -0.7124  0.1235 -0.0922
  140SAPE  H14X15334   2.622   0.705   8.937 -0.1744 -1.8092 -1.8125
  140SAPE  H14Y15335   2.430   0.722   8.952 -0.0265  1.1011 -0.8236
  140SAPE  C31515336   2.504   0.552   8.849 -0.0314 -0.2497  0.3649
  140SAPE  H15X15337   2.398   0.543   8.820 -0.7923 -0.2024  2.8521
  140SAPE  H15Y15338   2.518   0.453   8.899 -0.9074 -0.8938 -0.6292
  140SAPE  C31615339   2.596   0.570   8.732 -0.2359 -0.3992  0.2118
  140SAPE  H16X15340   2.698   0.573   8.776 -0.4610  0.7183  0.6788
  140SAPE  H16Y15341   2.573   0.666   8.680  0.4245 -0.4994 -0.2875
  140SAPE  C31715342   2.602   0.446   8.649 -0.2109  0.2387  0.0228
  140SAPE  H17X15343   2.501   0.404   8.629  0.2090 -0.2907 -1.1233
  140SAPE  H17Y15344   2.652   0.376   8.719  1.4596 -0.3649 -1.6762
  140SAPE  C31815345   2.679   0.465   8.520 -0.9089  0.7478  0.5949
  140SAPE  H18X15346   2.784   0.486   8.549 -0.7138  2.0824 -0.9400
  140SAPE  H18Y15347   2.648   0.552   8.458 -2.2635  0.2759  0.5658
  140SAPE  H18Z15348   2.677   0.371   8.460 -1.4573  1.2749 -0.2387
  141SAPE     N15349   6.160   3.668  11.170  0.2816 -0.3050 -0.1775
  141SAPE   HN115350   6.181   3.702  11.266 -1.1082  0.0485  0.0240
  141SAPE   HN215351   6.063   3.631  11.173 -0.1421  0.6815 -1.0453
  141SAPE   HN315352   6.224   3.587  11.155 -0.1276 -0.4641 -1.1483
  141SAPE   C1215353   6.175   3.778  11.068 -0.3019  0.1195 -0.2258
  141SAPE  H12A15354   6.281   3.810  11.058 -0.5738  0.5405 -2.2333
  141SAPE  H12B15355   6.111   3.857  11.112  0.1762  0.1522  0.4199
  141SAPE   C1115356   6.100   3.751  10.931  0.6903  0.3606 -0.6552
  141SAPE  H11A15357   6.152   3.662  10.889  0.6915  0.2990 -0.5271
  141SAPE  H11B15358   6.115   3.832  10.857  0.1903  0.4294 -0.6810
  141SAPE     P15359   5.850   3.672  10.865 -0.1796  0.0197 -0.1968
  141SAPE   O1315360   5.837   3.529  10.897 -0.0146  0.2797 -1.0343
  141SAPE   O1415361   5.731   3.755  10.896 -0.1373  0.5185  0.8703
  141SAPE   O1215362   5.958   3.727  10.963 -0.0054 -0.7661 -0.4824
  141SAPE   O1115363   5.905   3.689  10.723 -0.6010  0.4275  0.3899
  141SAPE    C115364   5.915   3.821  10.665  0.2141  0.3303 -0.4508
  141SAPE    HA15365   5.883   3.897  10.739 -1.3333 -0.8150  0.1014
  141SAPE    HB15366   6.021   3.843  10.643  0.9281 -1.6895  0.6931
  141SAPE    C215367   5.837   3.840  10.534  0.5639 -0.0682 -0.1713
  141SAPE    HS15368   5.731   3.821  10.562  0.3652 -0.3025 -1.0578
  141SAPE   O2115369   5.887   3.753  10.429  0.3807  0.0382  0.3957
  141SAPE   C2115370   5.826   3.637  10.431 -0.0327 -0.2182 -0.5817
  141SAPE   O2215371   5.720   3.617  10.491 -0.3045  0.0316 -0.6059
  141SAPE   C2215372   5.902   3.549  10.340 -0.0597  0.2456  0.6384
  141SAPE   H2R15373   5.892   3.597  10.240 -1.9892 -0.8050  0.2672
  141SAPE   H2S15374   6.005   3.547  10.381 -0.5787 -1.2320  1.9602
  141SAPE    C315375   5.825   3.985  10.482 -0.9688  0.1146 -0.0372
  141SAPE    HX15376   5.932   4.015  10.490 -1.0811  0.1699  1.4528
  141SAPE    HY15377   5.761   4.034  10.559  0.3190 -3.1519  3.4210
  141SAPE   O3115378   5.773   3.995  10.349  0.2317  0.7571 -0.3535
  141SAPE   C3115379   5.645   4.019  10.347 -0.5480 -0.0930  0.3754
  141SAPE   O3215380   5.563   4.004  10.430  0.6498  0.0419  0.1427
  141SAPE   C3215381   5.608   4.039  10.200  0.1776 -0.0160 -0.3702
  141SAPE   H2X15382   5.611   3.938  10.155  2.3866 -0.0188 -0.3376
  141SAPE   H2Y15383   5.679   4.108  10.149 -2.0861  1.2952 -1.9059
  141SAPE   C2315384   5.841   3.402  10.341 -0.3129  0.6762 -0.8323
  141SAPE   H3R15385   5.735   3.401  10.307 -0.6385 -0.5745  0.1519
  141SAPE   H3S15386   5.840   3.366  10.446 -2.0533  3.6095  0.2759
  141SAPE   C2415387   5.921   3.312  10.247  0.4937 -0.1135  0.5069
  141SAPE   H4R15388   6.021   3.310  10.297  1.2023  0.8901 -0.8136
  141SAPE   H4S15389   5.926   3.373  10.155  0.3782 -1.1962 -0.2417
  141SAPE   C2515390   5.865   3.172  10.216  0.0667 -0.1858  0.4886
  141SAPE   H5R15391   5.908   3.091  10.278 -0.0198  0.9251  2.0628
  141SAPE   C2615392   5.751   3.130  10.152 -0.2440  0.0377 -0.3268
  141SAPE   H6R15393   5.720   3.025  10.164 -1.2677  0.5647  2.5174
  141SAPE   C2715394   5.650   3.214  10.076  0.2044  0.2961 -0.1540
  141SAPE   H7R15395   5.683   3.207   9.970  2.2663 -0.6980  0.4983
  141SAPE   H7S15396   5.651   3.323  10.099  1.0346  0.7573 -2.1750
  141SAPE   C2815397   5.505   3.165  10.095  0.6991 -0.0501 -0.1730
  141SAPE   H8R15398   5.496   3.083  10.168  2.0642 -1.0392 -1.0694
  141SAPE   C2915399   5.396   3.219  10.039  0.3191 -0.1566 -0.1382
  141SAPE   H9R15400   5.305   3.160  10.062  0.9247 -0.6579  1.0764
  141SAPE  C21015401   5.366   3.325   9.940 -0.2464 -1.1555  0.3806
  141SAPE  H10R15402   5.402   3.415   9.994  1.6693 -1.0340 -1.0074
  141SAPE  H10S15403   5.255   3.335   9.939 -0.3226 -1.5906  1.5623
  141SAPE  C21115404   5.448   3.301   9.814 -0.0181 -0.5265  0.1994
  141SAPE  H11R15405   5.557   3.297   9.827  0.1455 -1.9120 -1.3251
  141SAPE  C21215406   5.403   3.314   9.686 -0.0935  0.9507 -0.4931
  141SAPE  H12R15407   5.464   3.277   9.602 -0.3103  0.1307 -0.3031
  141SAPE  C21315408   5.259   3.347   9.649 -0.4992  0.0391 -0.2515
  141SAPE  H13R15409   5.251   3.453   9.617  0.6584  0.2386  0.0810
  141SAPE  H13S15410   5.194   3.322   9.736 -0.7696  0.5628 -0.2977
  141SAPE  C21415411   5.221   3.260   9.534  0.2086  0.6107  0.8122
  141SAPE  H14R15412   5.198   3.155   9.556  1.4248 -0.3466 -2.0616
  141SAPE  C21515413   5.211   3.292   9.401 -0.1724  0.2626 -0.0208
  141SAPE  H15R15414   5.177   3.224   9.322 -0.8082  1.8378 -1.1724
  141SAPE  C21615415   5.239   3.434   9.352  0.6042  0.1999 -0.6862
  141SAPE  H16R15416   5.319   3.486   9.409  1.3300  1.1589 -2.4660
  141SAPE  H16S15417   5.154   3.505   9.366  2.2072  1.9874  0.5694
  141SAPE  C21715418   5.294   3.433   9.205  0.3646 -1.0055  0.3789
  141SAPE  H17R15419   5.396   3.388   9.205  1.3742  1.1448 -0.2773
  141SAPE  H17S15420   5.304   3.539   9.174 -1.2190 -0.8754  0.2102
  141SAPE  C21815421   5.202   3.370   9.096  0.6221 -0.3786 -0.1202
  141SAPE  H18R15422   5.106   3.426   9.103 -0.1574 -1.1470 -3.2406
  141SAPE  H18S15423   5.185   3.262   9.116  1.3334 -0.3425  0.7642
  141SAPE  C21915424   5.246   3.383   8.956  0.0100  0.6859 -0.1915
  141SAPE  H19R15425   5.340   3.327   8.939 -0.3311 -0.6356  1.9261
  141SAPE  H19S15426   5.275   3.488   8.934 -1.7652  1.1830 -0.3948
  141SAPE  C22015427   5.155   3.331   8.843  0.9360  0.6020  0.1378
  141SAPE  H20R15428   5.127   3.227   8.871  2.3741  0.0079 -0.5037
  141SAPE  H20S15429   5.218   3.318   8.753  0.7545 -1.1767  0.2271
  141SAPE  H20T15430   5.069   3.400   8.831 -0.8226 -1.7170 -1.4182
  141SAPE   C3315431   5.459   4.080  10.197 -0.3180  0.0915  0.5986
  141SAPE   H3X15432   5.420   4.131  10.288  1.7875 -0.0753  1.6563
  141SAPE   H3Y15433   5.394   3.989  10.198 -1.7467  1.0535 -0.9792
  141SAPE   C3415434   5.434   4.178  10.083  0.3000 -0.3802 -0.4302
  141SAPE   H4X15435   5.514   4.255  10.092  0.4858 -0.6284  0.0761
  141SAPE   H4Y15436   5.334   4.227  10.085  0.1611 -0.5693 -1.8216
  141SAPE   C3515437   5.448   4.112   9.957  0.5111  0.0164  0.4811
  141SAPE   H5X15438   5.365   4.039   9.952 -0.7505  1.2571  2.1105
  141SAPE   H5Y15439   5.546   4.060   9.945  0.6885 -0.1533  2.3137
  141SAPE   C3615440   5.418   4.210   9.837  0.0950  0.5610  0.7768
  141SAPE   H6X15441   5.471   4.307   9.842 -1.7293  1.6483  0.1174
  141SAPE   H6Y15442   5.313   4.245   9.829 -0.6665 -1.7119 -0.1097
  141SAPE   C3715443   5.465   4.154   9.706 -0.2705 -0.2657 -0.3515
  141SAPE   H7X15444   5.442   4.045   9.699 -1.3765 -0.2086  1.5391
  141SAPE   H7Y15445   5.576   4.158   9.700 -0.0547 -3.0899  0.2868
  141SAPE   C3815446   5.412   4.234   9.587  1.0269 -0.0209 -0.2216
  141SAPE   H8X15447   5.406   4.343   9.607  0.0536  0.0013 -0.5431
  141SAPE   H8Y15448   5.305   4.205   9.580  0.5904  1.0032  1.7426
  141SAPE   C3915449   5.491   4.212   9.458  0.3780  0.5863 -0.0018
  141SAPE   H9X15450   5.491   4.105   9.429  0.3529  0.9082 -1.2320
  141SAPE   H9Y15451   5.596   4.248   9.467 -0.4575  3.1832  0.4841
  141SAPE  C31015452   5.447   4.298   9.344 -0.8664 -0.0675  0.0617
  141SAPE  H10X15453   5.453   4.405   9.374  0.9618  0.0249 -0.5408
  141SAPE  H10Y15454   5.338   4.278   9.331 -1.2076  1.5034  0.2992
  141SAPE  C31115455   5.519   4.270   9.204 -0.1029  0.2194  1.3244
  141SAPE  H11X15456   5.625   4.299   9.220  0.1188  0.8949 -1.0384
  141SAPE  H11Y15457   5.484   4.338   9.125  0.6504 -0.2260  0.5901
  141SAPE  C31215458   5.510   4.124   9.148  0.4097 -0.2715 -0.5279
  141SAPE  H12X15459   5.401   4.103   9.147  0.0558  1.0060  2.0597
  141SAPE  H12Y15460   5.551   4.055   9.224 -3.6206  0.5188  2.7308
  141SAPE  C31315461   5.574   4.112   9.009 -0.1505 -0.1565 -0.1034
  141SAPE  H13X15462   5.670   4.167   9.008 -0.6694  0.8910  1.7375
  141SAPE  H13Y15463   5.521   4.158   8.923 -1.6396 -3.0343 -0.8555
  141SAPE  C31415464   5.594   3.966   8.970  0.0929 -0.2974 -0.6530
  141SAPE  H14X15465   5.494   3.927   8.943 -0.5128  1.8996 -1.7615
  141SAPE  H14Y15466   5.627   3.905   9.057  0.0867 -0.2313 -0.6044
  141SAPE  C31515467   5.684   3.959   8.851  0.5368  1.0217  0.1715
  141SAPE  H15X15468   5.690   3.850   8.828  2.5787  1.1077  0.1469
  141SAPE  H15Y15469   5.785   3.992   8.882  0.8763 -0.0167  0.1980
  141SAPE  C31615470   5.644   4.029   8.725  0.2953 -0.3371 -0.0784
  141SAPE  H16X15471   5.638   4.138   8.746 -1.4530 -0.6398  1.1258
  141SAPE  H16Y15472   5.546   3.986   8.694 -0.0172 -0.7261  1.4159
  141SAPE  C31715473   5.735   4.031   8.603  0.1568 -0.6001 -0.2933
  141SAPE  H17X15474   5.681   4.073   8.516 -1.6354  0.9222  1.4641
  141SAPE  H17Y15475   5.774   3.928   8.588 -2.5251 -1.7449 -0.0483
  141SAPE  C31815476   5.852   4.129   8.632 -0.4295 -0.9648 -0.1114
  141SAPE  H18X15477   5.814   4.232   8.648 -2.5844 -1.8048  0.6585
  141SAPE  H18Y15478   5.925   4.132   8.549  0.7491  1.5844  0.9213
  141SAPE  H18Z15479   5.906   4.101   8.725 -0.4529 -1.1740 -0.1603
  142SAPE     N15480   5.806   0.919  11.047  0.5495 -1.3463 -0.6728
  142SAPE   HN115481   5.792   1.017  11.013  0.2607 -0.2093  2.4456
  142SAPE   HN215482   5.709   0.882  11.053 -0.0879 -0.4857 -3.7024
  142SAPE   HN315483   5.846   0.910  11.142  1.9546 -1.2333 -1.2354
  142SAPE   C1215484   5.892   0.845  10.947 -0.2634 -0.5593  0.2919
  142SAPE  H12A15485   5.903   0.742  10.987 -2.7267 -1.5027 -1.2799
  142SAPE  H12B15486   5.985   0.903  10.928 -0.4355 -0.8284 -1.5275
  142SAPE   C1115487   5.826   0.811  10.814 -0.7975 -0.6167 -0.8651
  142SAPE  H11A15488   5.898   0.747  10.758  0.1091  0.7281 -1.2819
  142SAPE  H11B15489   5.803   0.908  10.766 -0.6891 -0.1547 -0.0060
  142SAPE     P15490   5.678   0.592  10.846 -0.3085 -0.0251 -0.0920
  142SAPE   O1315491   5.732   0.555  10.976 -0.1324 -0.4094 -0.2142
  142SAPE   O1415492   5.532   0.578  10.830 -0.2904  0.3720  0.1034
  142SAPE   O1215493   5.700   0.746  10.823 -0.4460  0.2547  0.5437
  142SAPE   O1115494   5.766   0.532  10.723 -0.2024  0.6085 -0.8565
  142SAPE    C115495   5.736   0.560  10.586  0.5397  0.0793 -0.3525
  142SAPE    HA15496   5.682   0.656  10.577 -0.6904  0.0193  4.0051
  142SAPE    HB15497   5.826   0.573  10.522  1.0991 -0.1543  0.3750
  142SAPE    C215498   5.641   0.448  10.528  0.2474  0.4565  0.2357
  142SAPE    HS15499   5.542   0.455  10.579 -1.1253  1.3690 -2.3842
  142SAPE   O2115500   5.701   0.320  10.540 -0.4048  0.2167  0.1388
  142SAPE   C2115501   5.621   0.215  10.576 -0.0264 -0.6467  0.4474
  142SAPE   O2215502   5.501   0.224  10.607 -0.3614  0.0810  0.6823
  142SAPE   C2215503   5.709   0.098  10.580 -0.5928  0.4197 -0.5975
  142SAPE   H2R15504   5.785   0.108  10.499 -0.3708  1.4551 -0.2703
  142SAPE   H2S15505   5.780   0.102  10.665  2.0656  1.4182 -2.6890
  142SAPE    C315506   5.611   0.474  10.374 -0.6871 -0.0292 -0.1328
  142SAPE    HX15507   5.525   0.413  10.339 -0.7159  0.8488 -1.6754
  142SAPE    HY15508   5.690   0.438  10.303 -0.3319 -1.4234  0.9263
  142SAPE   O3115509   5.582   0.612  10.353  0.3717  0.0329 -0.6189
  142SAPE   C3115510   5.656   0.683  10.271 -0.1739  0.4855  0.3246
  142SAPE   O3215511   5.729   0.641  10.184  0.3778 -0.1641 -0.6078
  142SAPE   C3215512   5.625   0.824  10.270 -0.0479 -0.2582 -0.5765
  142SAPE   H2X15513   5.693   0.864  10.349 -1.8317 -1.1586  1.5369
  142SAPE   H2Y15514   5.526   0.832  10.322  0.0352  0.0121 -0.4572
  142SAPE   C2315515   5.633  -0.031  10.584 -0.0816  0.2108  0.1703
  142SAPE   H3R15516   5.544  -0.025  10.650 -0.4867 -2.0078 -0.0931
  142SAPE   H3S15517   5.707  -0.105  10.622 -0.7399  0.4190  1.9563
  142SAPE   C2415518   5.572  -0.069  10.442  0.3601  0.0507  0.0452
  142SAPE   H4R15519   5.557  -0.179  10.451 -4.1055  0.6231  2.7203
  142SAPE   H4S15520   5.645  -0.057  10.359 -0.6710  1.6793 -0.6727
  142SAPE   C2515521   5.437  -0.016  10.404 -0.5925 -0.1179  0.4210
  142SAPE   H5R15522   5.357  -0.045  10.473  1.0242 -1.5490  1.7780
  142SAPE   C2615523   5.391   0.069  10.308 -0.0514 -0.3771 -0.3298
  142SAPE   H6R15524   5.284   0.081  10.289 -0.8505 -1.5079  2.7581
  142SAPE   C2715525   5.489   0.124  10.214  0.2202  0.3943 -0.1710
  142SAPE   H7R15526   5.594   0.095  10.235 -0.2120  0.1123  1.7872
  142SAPE   H7S15527   5.499   0.235  10.223  2.6562  0.1647  0.6205
  142SAPE   C2815528   5.450   0.091  10.075 -0.1532 -0.7128  0.1645
  142SAPE   H8R15529   5.446  -0.016  10.052 -0.4431 -0.5585 -0.5453
  142SAPE   C2915530   5.400   0.185   9.992  0.4411 -0.0836  0.3262
  142SAPE   H9R15531   5.347   0.144   9.905  1.3337  0.3763 -0.4414
  142SAPE  C21015532   5.391   0.336  10.010  0.5920  0.0138 -0.4446
  142SAPE  H10R15533   5.349   0.356  10.111  1.6025 -5.4254  1.4026
  142SAPE  H10S15534   5.312   0.363   9.937 -0.4713 -2.2612 -0.2327
  142SAPE  C21115535   5.515   0.416   9.991 -0.3419  0.0201 -0.0891
  142SAPE  H11R15536   5.568   0.440  10.084  0.3796  0.4278 -0.5911
  142SAPE  C21215537   5.567   0.465   9.881  0.5372 -0.1147  0.2226
  142SAPE  H12R15538   5.662   0.521   9.881 -0.6188  2.0406 -2.0031
  142SAPE  C21315539   5.510   0.435   9.742  0.3224 -1.1012  0.2258
  142SAPE  H13R15540   5.509   0.524   9.676 -1.1842 -0.7210  0.7076
  142SAPE  H13S15541   5.403   0.405   9.738  0.0880 -0.3055  0.3203
  142SAPE  C21415542   5.575   0.318   9.676  0.2670  0.1938 -0.7086
  142SAPE  H14R15543   5.579   0.227   9.738  0.6150  1.2040  0.8226
  142SAPE  C21515544   5.643   0.321   9.556 -0.1251 -0.8897 -0.6297
  142SAPE  H15R15545   5.685   0.226   9.520  1.1091 -1.0102  1.0237
  142SAPE  C21615546   5.660   0.435   9.461  0.3741  0.1995  0.2898
  142SAPE  H16R15547   5.570   0.499   9.474  0.0606 -0.6193  2.4651
  142SAPE  H16S15548   5.646   0.400   9.356  0.5072  2.3366 -0.4813
  142SAPE  C21715549   5.788   0.511   9.471  0.3916 -0.6700 -0.2689
  142SAPE  H17R15550   5.863   0.430   9.466 -0.3612 -1.3213 -1.4157
  142SAPE  H17S15551   5.792   0.555   9.573 -2.4704 -0.1282 -0.3070
  142SAPE  C21815552   5.803   0.620   9.372 -0.4981  0.4391  0.6910
  142SAPE  H18R15553   5.721   0.695   9.372 -0.9393 -0.0359  0.0833
  142SAPE  H18S15554   5.816   0.575   9.271  1.6076 -0.8080  1.4487
  142SAPE  C21915555   5.934   0.696   9.397 -0.1035  0.0210 -0.4866
  142SAPE  H19R15556   6.015   0.623   9.417  0.6722  1.2980  1.2854
  142SAPE  H19S15557   5.912   0.762   9.483  0.0615 -0.7552  0.1622
  142SAPE  C22015558   5.980   0.781   9.284 -0.6466 -0.3581  0.3898
  142SAPE  H20R15559   5.898   0.842   9.241  1.9005  1.9921 -1.5280
  142SAPE  H20S15560   6.002   0.718   9.195 -0.2516  1.0540 -0.5466
  142SAPE  H20T15561   6.072   0.839   9.307 -0.7659  1.3127 -2.6752
  142SAPE   C3315562   5.613   0.891  10.134 -0.4201 -0.5374 -0.4137
  142SAPE   H3X15563   5.700   0.868  10.069 -0.0256  0.9343 -0.4508
  142SAPE   H3Y15564   5.627   1.000  10.153  2.6432 -1.0935  1.2106
  142SAPE   C3415565   5.487   0.850  10.061  0.3180  0.2607  0.1817
  142SAPE   H4X15566   5.392   0.877  10.113 -0.4677  0.8037 -1.4636
  142SAPE   H4Y15567   5.486   0.739  10.059 -1.6681  0.2493 -0.6543
  142SAPE   C3515568   5.488   0.906   9.920 -0.2347 -0.0609  0.2294
  142SAPE   H5X15569   5.590   0.897   9.877 -0.7068 -0.7094 -0.8030
  142SAPE   H5Y15570   5.467   1.015   9.925 -1.1673 -0.2422  0.3481
  142SAPE   C3615571   5.401   0.828   9.826 -0.7493  0.1131 -0.0449
  142SAPE   H6X15572   5.459   0.737   9.797 -1.7236 -1.2046  1.8980
  142SAPE   H6Y15573   5.405   0.883   9.729 -1.1321  0.2658  0.0261
  142SAPE   C3715574   5.261   0.768   9.867  0.0846 -0.2416 -0.1678
  142SAPE   H7X15575   5.192   0.840   9.917 -1.7893 -1.4156 -0.9506
  142SAPE   H7Y15576   5.282   0.690   9.943  0.1863  2.1109  2.3924
  142SAPE   C3815577   5.185   0.708   9.745  0.1975 -0.4724 -0.3689
  142SAPE   H8X15578   5.255   0.651   9.679  0.8622  1.6207 -1.5909
  142SAPE   H8Y15579   5.152   0.792   9.681 -0.6031 -0.0390  0.5919
  142SAPE   C3915580   5.069   0.614   9.789  0.2540  0.3510  0.5731
  142SAPE   H9X15581   5.115   0.531   9.848 -0.9497 -0.1854  0.7831
  142SAPE   H9Y15582   5.000   0.583   9.707  2.1032  1.4026 -1.4888
  142SAPE  C31015583   4.971   0.688   9.880  0.0029 -0.0261  0.4515
  142SAPE  H10X15584   4.946   0.781   9.825 -1.4067  0.8186  2.3826
  142SAPE  H10Y15585   5.016   0.718   9.978 -0.9523  1.7187  0.3938
  142SAPE  C31115586   4.839   0.615   9.899 -0.3479 -0.2078  0.0941
  142SAPE  H11X15587   4.854   0.516   9.948 -2.5134 -1.7421 -2.0950
  142SAPE  H11Y15588   4.788   0.591   9.803 -1.3668 -0.7046  0.7388
  142SAPE  C31215589   4.750   0.699   9.994 -0.1958  0.4569  1.1152
  142SAPE  H12X15590   4.713   0.783   9.932 -0.4121  1.0707  2.0603
  142SAPE  H12Y15591   4.797   0.742  10.085 -0.2072  0.5665  1.0682
  142SAPE  C31315592   4.627   0.614  10.036  0.1062 -0.2370 -0.3145
  142SAPE  H13X15593   4.568   0.691  10.090 -0.7306  0.8190 -2.6079
  142SAPE  H13Y15594   4.650   0.526  10.100  1.8398  0.8599  0.6303
  142SAPE  C31415595   4.537   0.570   9.927 -0.3975  0.2739 -0.3981
  142SAPE  H14X15596   4.589   0.496   9.863 -2.2422 -1.3431 -0.0893
  142SAPE  H14Y15597   4.490   0.655   9.872 -1.1555  0.6470  0.7863
  142SAPE  C31515598   4.406   0.501   9.986  0.5394 -0.0418  0.0369
  142SAPE  H15X15599   4.339   0.581  10.024  0.1520 -1.6817  3.0971
  142SAPE  H15Y15600   4.427   0.440  10.076  2.4204  1.0113  0.3636
  142SAPE  C31615601   4.330   0.420   9.875  0.3008 -0.0869  0.0082
  142SAPE  H16X15602   4.279   0.474   9.792 -0.2524 -0.6569 -0.0268
  142SAPE  H16Y15603   4.241   0.378   9.926 -0.8477  3.0124  0.7897
  142SAPE  C31715604   4.407   0.295   9.833 -0.2188 -0.4079  1.0071
  142SAPE  H17X15605   4.496   0.321   9.773 -1.9366  0.2639 -1.4076
  142SAPE  H17Y15606   4.339   0.238   9.766  0.0075  0.8313 -0.3164
  142SAPE  C31815607   4.450   0.187   9.929  0.0171  0.8233 -0.0193
  142SAPE  H18X15608   4.519   0.228  10.006  1.1632 -2.1632  0.6898
  142SAPE  H18Y15609   4.493   0.106   9.867  0.2611  0.6923  0.3191
  142SAPE  H18Z15610   4.359   0.142   9.973  0.0841  0.6690 -0.0374
  143SAPE     N15611   5.147   2.697  10.931 -0.8663  0.3985 -0.1304
  143SAPE   HN115612   5.161   2.697  11.034  0.6571 -1.8728 -0.2475
  143SAPE   HN215613   5.139   2.599  10.896  1.2100  0.2591 -0.3374
  143SAPE   HN315614   5.234   2.736  10.889  1.3220 -1.1539  2.5730
  143SAPE   C1215615   5.028   2.780  10.895  0.8425 -0.7523  0.4811
  143SAPE  H12A15616   5.048   2.885  10.926  2.2161 -1.2289  1.2880
  143SAPE  H12B15617   4.936   2.732  10.934 -1.7862  2.0363 -1.7958
  143SAPE   C1115618   5.009   2.779  10.736 -0.2548 -0.1059 -0.2467
  143SAPE  H11A15619   4.911   2.831  10.724 -0.1352  0.3886  0.7706
  143SAPE  H11B15620   4.998   2.672  10.709 -2.4537  0.1094 -0.4132
  143SAPE     P15621   5.112   2.940  10.558 -0.0465 -0.7732 -0.1257
  143SAPE   O1315622   5.036   3.061  10.599 -0.3649  0.1511  0.1088
  143SAPE   O1415623   5.249   2.957  10.499 -0.7505  0.1561  0.5558
  143SAPE   O1215624   5.120   2.843  10.678  0.2306 -0.0320  0.0759
  143SAPE   O1115625   5.030   2.860  10.453  0.2645 -0.5793  0.2894
  143SAPE    C115626   5.054   2.727  10.413  1.0646 -0.4226  0.7621
  143SAPE    HA15627   5.134   2.680  10.475  2.4781 -0.1942 -0.8126
  143SAPE    HB15628   4.958   2.680  10.443 -0.8558  3.0268  0.5018
  143SAPE    C215629   5.100   2.699  10.271 -0.3928  0.1598 -1.0521
  143SAPE    HS15630   5.109   2.589  10.264  3.6099  0.0676  1.9218
  143SAPE   O2115631   5.224   2.769  10.246 -0.2138  0.3386  0.1687
  143SAPE   C2115632   5.304   2.706  10.167 -0.3918  0.2846  0.9232
  143SAPE   O2215633   5.291   2.592  10.127 -0.7766  0.5265  0.7304
  143SAPE   C2215634   5.422   2.791  10.121 -0.6036  0.3183  0.8530
  143SAPE   H2R15635   5.412   2.886  10.177  2.2140  0.7730  0.7064
  143SAPE   H2S15636   5.520   2.745  10.144 -0.6198 -0.8611 -1.1533
  143SAPE    C315637   4.994   2.737  10.168 -0.2435 -0.0102  1.5490
  143SAPE    HX15638   4.973   2.846  10.163 -2.2467 -0.3372  1.7913
  143SAPE    HY15639   4.900   2.681  10.187 -1.0448  1.2641  1.3977
  143SAPE   O3115640   5.045   2.692  10.033 -0.1060 -0.3219 -0.0379
  143SAPE   C3115641   5.006   2.567   9.991 -0.7090  0.0329  0.8640
  143SAPE   O3215642   4.917   2.507  10.045 -0.2819  0.3270  0.1399
  143SAPE   C3215643   5.102   2.520   9.879 -0.0631 -0.1239  0.0667
  143SAPE   H2X15644   5.193   2.472   9.922 -0.1471 -0.0325  0.3516
  143SAPE   H2Y15645   5.134   2.604   9.813  0.9878 -3.0122 -3.4401
  143SAPE   C2315646   5.420   2.832   9.968 -0.7258 -1.0103  1.4336
  143SAPE   H3R15647   5.505   2.903   9.958 -1.2374 -0.3042  2.0091
  143SAPE   H3S15648   5.334   2.901   9.953  0.6799  0.5629  0.3522
  143SAPE   C2415649   5.419   2.720   9.870 -0.0202 -0.0364  0.1359
  143SAPE   H4R15650   5.422   2.774   9.772  0.0620  0.1615  0.2476
  143SAPE   H4S15651   5.321   2.669   9.876  0.5730 -1.3204 -0.5412
  143SAPE   C2515652   5.533   2.619   9.886 -0.7002  0.4134  0.7092
  143SAPE   H5R15653   5.552   2.575   9.985  0.2671 -1.6072 -0.3289
  143SAPE   C2615654   5.621   2.580   9.789 -0.3473 -0.6572  0.2820
  143SAPE   H6R15655   5.710   2.523   9.821  1.3976  3.3868  3.6411
  143SAPE   C2715656   5.608   2.620   9.643 -0.1247 -0.3552  0.4466
  143SAPE   H7R15657   5.708   2.614   9.595  0.2324  0.3827  1.0859
  143SAPE   H7S15658   5.584   2.725   9.619  2.2995  0.2986  0.6760
  143SAPE   C2815659   5.534   2.514   9.566  0.6487  0.5513  0.4340
  143SAPE   H8R15660   5.446   2.483   9.625 -1.1588  2.4025 -1.1043
  143SAPE   C2915661   5.540   2.474   9.435  0.8063  0.2176 -0.3564
  143SAPE   H9R15662   5.453   2.414   9.404  0.5150 -0.1299  1.0347
  143SAPE  C21015663   5.619   2.540   9.328  0.0787  0.3673  0.4560
  143SAPE  H10R15664   5.669   2.453   9.281 -1.4822  0.3412 -1.2251
  143SAPE  H10S15665   5.697   2.601   9.380  1.4075 -4.2164  4.6379
  143SAPE  C21115666   5.517   2.597   9.228 -0.1940  0.1990  0.0022
  143SAPE  H11R15667   5.458   2.530   9.164  2.2322 -1.5299 -0.5651
  143SAPE  C21215668   5.519   2.729   9.207  0.4121 -0.6937  0.1612
  143SAPE  H12R15669   5.447   2.765   9.133  0.3754 -1.0550  0.0218
  143SAPE  C21315670   5.597   2.838   9.271 -0.4902 -0.2400  0.3775
  143SAPE  H13R15671   5.667   2.871   9.192 -0.6297 -0.6131  0.0934
  143SAPE  H13S15672   5.656   2.816   9.363  0.0288  2.7425  0.8526
  143SAPE  C21415673   5.502   2.954   9.305  0.4678  0.2964 -0.0458
  143SAPE  H14R15674   5.475   2.957   9.411  2.1911 -0.2998  0.4494
  143SAPE  C21515675   5.459   3.054   9.228 -0.1268 -0.0726 -0.4498
  143SAPE  H15R15676   5.394   3.130   9.274 -0.8948 -0.4147 -0.9439
  143SAPE  C21615677   5.501   3.089   9.082 -0.3451  0.2472  0.0718
  143SAPE  H16R15678   5.594   3.149   9.071 -0.5870  0.2150 -3.2419
  143SAPE  H16S15679   5.420   3.155   9.045  0.1749  1.6173  1.2939
  143SAPE  C21715680   5.501   2.975   8.980  0.0413  0.3935  0.3990
  143SAPE  H17R15681   5.413   2.910   8.997 -0.7527  0.8082 -1.7580
  143SAPE  H17S15682   5.598   2.921   8.986 -1.2369 -2.1222 -0.2148
  143SAPE  C21815683   5.498   3.017   8.830  0.0432  0.1271  0.0249
  143SAPE  H18R15684   5.603   3.046   8.812  0.1750 -0.7280 -0.5915
  143SAPE  H18S15685   5.432   3.106   8.814  2.2656  1.6163 -1.3260
  143SAPE  C21915686   5.462   2.909   8.729  0.2603  0.1665  0.3750
  143SAPE  H19R15687   5.352   2.897   8.743  0.1295  1.9887  1.2707
  143SAPE  H19S15688   5.513   2.815   8.758  0.2781  0.4843  1.4108
  143SAPE  C22015689   5.496   2.943   8.586 -0.0519  0.3227 -0.9584
  143SAPE  H20R15690   5.412   3.011   8.559 -0.3310  0.1839 -0.4516
  143SAPE  H20S15691   5.485   2.855   8.520  1.3266 -1.1112  0.6391
  143SAPE  H20T15692   5.598   2.984   8.570  0.3527 -0.3046 -0.0867
  143SAPE   C3315693   5.037   2.433   9.781 -0.0581  0.6571  0.8326
  143SAPE   H3X15694   4.944   2.480   9.742 -0.5487 -1.5631 -0.8890
  143SAPE   H3Y15695   4.998   2.333   9.811 -1.2213  0.7024 -0.4494
  143SAPE   C3415696   5.142   2.412   9.669  0.2816  0.3703  0.5461
  143SAPE   H4X15697   5.228   2.345   9.692 -0.6342 -1.4958 -1.1481
  143SAPE   H4Y15698   5.182   2.512   9.641  0.8474  0.4157  1.4888
  143SAPE   C3515699   5.086   2.363   9.539  0.5083  0.1118 -0.6199
  143SAPE   H5X15700   5.003   2.433   9.515 -1.5965 -2.2885 -0.8599
  143SAPE   H5Y15701   5.036   2.264   9.548  3.4497 -1.3186  1.8122
  143SAPE   C3615702   5.181   2.367   9.419 -0.0399 -0.8014  0.5119
  143SAPE   H6X15703   5.278   2.319   9.445  0.2940 -0.6655 -0.4184
  143SAPE   H6Y15704   5.206   2.470   9.385 -2.5419 -0.3471 -0.1960
  143SAPE   C3715705   5.121   2.282   9.307 -0.0497 -0.1580 -0.2271
  143SAPE   H7X15706   5.028   2.340   9.289  0.7720  1.3100  0.1023
  143SAPE   H7Y15707   5.087   2.181   9.341 -1.1533  0.1636 -0.3269
  143SAPE   C3815708   5.221   2.277   9.188 -0.2232  0.5314  0.4227
  143SAPE   H8X15709   5.299   2.204   9.217 -1.0515 -1.1052 -1.2560
  143SAPE   H8Y15710   5.266   2.375   9.164  2.6899 -0.5234  1.2016
  143SAPE   C3915711   5.163   2.223   9.060 -0.3800 -0.6262  0.0142
  143SAPE   H9X15712   5.108   2.304   9.008  1.8792  1.1544  0.2665
  143SAPE   H9Y15713   5.084   2.149   9.087  0.5428 -1.2732  1.0539
  143SAPE  C31015714   5.259   2.168   8.954  0.7836  0.4691 -0.2885
  143SAPE  H10X15715   5.203   2.161   8.858  2.5350 -3.5618 -1.2648
  143SAPE  H10Y15716   5.288   2.068   8.995 -1.2181 -0.9361 -2.1039
  143SAPE  C31115717   5.377   2.257   8.934 -0.3494 -0.1493  0.2980
  143SAPE  H11X15718   5.470   2.229   8.987 -0.7352  0.4808  1.3352
  143SAPE  H11Y15719   5.361   2.359   8.975 -1.3496 -0.5375  0.9066
  143SAPE  C31215720   5.411   2.271   8.790  0.6848 -0.0455  0.0728
  143SAPE  H12X15721   5.329   2.333   8.749  0.9221  0.9477  1.0280
  143SAPE  H12Y15722   5.396   2.176   8.735 -0.6876 -0.7636  1.6066
  143SAPE  C31315723   5.550   2.334   8.766 -0.4487  0.0254 -0.3522
  143SAPE  H13X15724   5.578   2.316   8.660 -1.1018 -0.0826 -0.5113
  143SAPE  H13Y15725   5.616   2.273   8.831  1.8488  1.7349 -0.9604
  143SAPE  C31415726   5.556   2.487   8.804  0.2716  0.9317  1.1301
  143SAPE  H14X15727   5.454   2.512   8.839 -1.0352  1.7776 -2.7445
  143SAPE  H14Y15728   5.588   2.544   8.714  0.7816 -0.0951  0.6457
  143SAPE  C31515729   5.650   2.516   8.922 -0.0965 -0.9936 -0.0396
  143SAPE  H15X15730   5.616   2.458   9.011 -2.3464 -1.1587 -0.9596
  143SAPE  H15Y15731   5.634   2.622   8.950 -2.4858 -1.0371 -1.1069
  143SAPE  C31615732   5.800   2.500   8.886  0.0953  0.0886 -0.3670
  143SAPE  H16X15733   5.809   2.553   8.788  0.7782  0.2909 -0.2051
  143SAPE  H16Y15734   5.821   2.393   8.870  1.7866  0.4704 -0.9145
  143SAPE  C31715735   5.905   2.572   8.974  0.0105  0.7281  0.4926
  143SAPE  H17X15736   6.007   2.566   8.930  0.3210  2.2892  0.9258
  143SAPE  H17Y15737   5.893   2.515   9.069 -2.0406  0.7917  0.3234
  143SAPE  C31815738   5.886   2.720   9.005  0.2428 -0.3243  0.5206
  143SAPE  H18X15739   5.789   2.744   9.054  1.4055  1.3179  2.1763
  143SAPE  H18Y15740   5.876   2.773   8.908 -1.3947  0.1922  0.9426
  143SAPE  H18Z15741   5.962   2.779   9.061  0.5480  0.9270 -1.1458
  144SAPE     N15742   3.393   4.616  10.263  0.3055  0.1176  0.5293
  144SAPE   HN115743   3.343   4.538  10.216  3.0263 -1.3226 -0.2054
  144SAPE   HN215744   3.496   4.599  10.260  0.2853 -0.8164  2.8543
  144SAPE   HN315745   3.365   4.618  10.363  0.0137  0.5689  0.4419
  144SAPE   C1215746   3.362   4.752  10.209 -0.4714 -0.9085  0.0852
  144SAPE  H12A15747   3.399   4.736  10.105 -0.7462 -1.4579  0.0652
  144SAPE  H12B15748   3.433   4.816  10.265 -0.1952 -1.0636 -0.0839
  144SAPE   C1115749   3.215   4.791  10.226  0.6477  0.2669 -0.2295
  144SAPE  H11A15750   3.162   4.714  10.166  1.3233 -1.4155  1.2488
  144SAPE  H11B15751   3.195   4.886  10.174 -0.2451 -0.0738 -0.5264
  144SAPE     P15752   3.171   4.916  10.451  0.0185  0.0631 -0.0630
  144SAPE   O1315753   3.078   4.884  10.560  0.3577 -0.1477 -0.1538
  144SAPE   O1415754   3.313   4.961  10.478 -0.1982  0.3436 -0.0507
  144SAPE   O1215755   3.183   4.782  10.366  0.2246 -0.3730 -0.8675
  144SAPE   O1115756   3.109   5.030  10.365  0.3164  0.1139  0.1093
  144SAPE    C115757   2.970   5.065  10.379 -0.3405  0.3754  0.1787
  144SAPE    HA15758   2.912   4.971  10.389 -0.5259  0.1701 -2.2159
  144SAPE    HB15759   2.957   5.114  10.478  1.1239  0.9531  0.1077
  144SAPE    C215760   2.918   5.150  10.261 -0.2245  0.2039  0.2260
  144SAPE    HS15761   2.807   5.145  10.272  0.0035 -0.8074  2.8736
  144SAPE   O2115762   2.958   5.088  10.134 -0.5938  0.1289 -0.2211
  144SAPE   C2115763   2.892   4.975  10.103  0.0106 -0.4085 -0.0778
  144SAPE   O2215764   2.813   4.923  10.181  0.2051 -0.6573  0.3343
  144SAPE   C2215765   2.946   4.917   9.970 -0.2274 -0.0007 -0.1527
  144SAPE   H2R15766   2.952   4.988   9.885 -0.9673 -1.1538 -1.1932
  144SAPE   H2S15767   3.052   4.891   9.991  0.9039  1.7384 -3.0743
  144SAPE    C315768   2.969   5.297  10.257 -0.2477  1.1586  0.3144
  144SAPE    HX15769   3.077   5.298  10.231 -0.5640  1.1785 -1.1256
  144SAPE    HY15770   2.968   5.333  10.362 -1.6945  0.1729  0.6604
  144SAPE   O3115771   2.891   5.377  10.166  0.0044 -0.4492 -0.0725
  144SAPE   C3115772   2.824   5.481  10.210  0.5129 -0.3276  0.6687
  144SAPE   O3215773   2.816   5.522  10.326  0.4519  0.3234 -0.2455
  144SAPE   C3215774   2.752   5.543  10.096 -0.8075 -0.9384 -0.1701
  144SAPE   H2X15775   2.820   5.544  10.007  1.1938 -3.6134  1.1730
  144SAPE   H2Y15776   2.748   5.647  10.134  0.7421 -1.3999  1.3864
  144SAPE   C2315777   2.862   4.796   9.928 -0.3832  0.4022  0.3078
  144SAPE   H3R15778   2.848   4.721  10.009  3.3807 -0.5747  0.2409
  144SAPE   H3S15779   2.899   4.750   9.834  1.0185  1.1307  0.4909
  144SAPE   C2415780   2.724   4.844   9.887 -0.7469  0.0352 -0.1383
  144SAPE   H4R15781   2.738   4.911   9.799  1.4329 -1.6570 -1.1928
  144SAPE   H4S15782   2.668   4.889   9.972  0.8053  1.0623  0.3982
  144SAPE   C2515783   2.647   4.721   9.841  0.0133  0.5202 -0.4636
  144SAPE   H5R15784   2.578   4.668   9.909  0.5200 -1.2890 -1.3036
  144SAPE   C2615785   2.637   4.665   9.716 -1.1497  0.5662  0.2380
  144SAPE   H6R15786   2.580   4.572   9.705  3.2413 -2.4065 -0.0976
  144SAPE   C2715787   2.717   4.716   9.600  0.0077  0.1498  0.1075
  144SAPE   H7R15788   2.785   4.798   9.631  1.5104 -0.6565 -0.8684
  144SAPE   H7S15789   2.641   4.747   9.526 -1.3941 -3.7545 -0.3157
  144SAPE   C2815790   2.796   4.601   9.550 -0.5123 -0.0556 -0.0578
  144SAPE   H8R15791   2.858   4.553   9.628 -1.4231  0.1610  0.8285
  144SAPE   C2915792   2.803   4.558   9.422 -0.0094  0.1450 -0.0465
  144SAPE   H9R15793   2.869   4.471   9.416 -1.9834 -1.8379  3.6938
  144SAPE  C21015794   2.733   4.619   9.309  0.5831 -0.1827 -0.2637
  144SAPE  H10R15795   2.813   4.650   9.238  0.8933  0.5264  0.3835
  144SAPE  H10S15796   2.681   4.712   9.340  0.3194 -0.9046  1.6140
  144SAPE  C21115797   2.640   4.519   9.243 -0.2948 -0.0337 -0.4062
  144SAPE  H11R15798   2.542   4.496   9.285 -0.1759  0.6351  0.2689
  144SAPE  C21215799   2.667   4.445   9.136 -0.0748  0.4426 -0.5995
  144SAPE  H12R15800   2.597   4.364   9.110 -0.5177  1.1063 -1.5604
  144SAPE  C21315801   2.794   4.445   9.052  0.0605 -0.1432 -0.0815
  144SAPE  H13R15802   2.820   4.547   9.018 -0.9607 -0.4779 -2.0103
  144SAPE  H13S15803   2.776   4.391   8.957 -0.8189 -1.5552  0.8513
  144SAPE  C21415804   2.901   4.373   9.132 -0.1320  0.3388  0.0893
  144SAPE  H14R15805   2.934   4.430   9.221  1.1013  0.7688 -0.6189
  144SAPE  C21515806   2.963   4.257   9.101 -0.6430 -0.0357  0.8529
  144SAPE  H15R15807   3.036   4.202   9.162 -1.5771 -2.0933  0.2079
  144SAPE  C21615808   2.929   4.184   8.976 -0.7622 -0.0103  0.0057
  144SAPE  H16R15809   2.906   4.254   8.892  2.4072  0.2315 -0.7651
  144SAPE  H16S15810   2.833   4.140   9.010 -1.1883  0.0093 -1.1061
  144SAPE  C21715811   3.035   4.083   8.912  0.7019  0.0267 -0.3614
  144SAPE  H17R15812   3.028   3.990   8.972 -2.0342  0.2571 -0.2248
  144SAPE  H17S15813   3.135   4.130   8.927 -0.4648  3.1620 -1.5157
  144SAPE  C21815814   2.993   4.046   8.774 -0.1988 -0.3311  0.9413
  144SAPE  H18R15815   2.883   4.046   8.782 -0.5257  2.9920 -1.8293
  144SAPE  H18S15816   3.018   3.942   8.743  4.8248  1.1500 -1.0176
  144SAPE  C21915817   3.038   4.132   8.657  0.0124  0.5019  0.1924
  144SAPE  H19R15818   3.148   4.118   8.647 -0.0787 -0.3932  0.2981
  144SAPE  H19S15819   3.018   4.241   8.661 -0.0989  0.5267 -0.7166
  144SAPE  C22015820   2.982   4.098   8.522 -0.0919  0.7141  0.7313
  144SAPE  H20R15821   3.043   4.015   8.481 -1.7321 -0.4941  0.6434
  144SAPE  H20S15822   2.987   4.193   8.465  0.0714  1.8010  2.4814
  144SAPE  H20T15823   2.879   4.057   8.521  0.7257 -1.5023 -1.2691
  144SAPE   C3315824   2.611   5.483  10.069  0.5602 -0.6200  0.9784
  144SAPE   H3X15825   2.544   5.500  10.155  0.4971 -4.3516  1.8072
  144SAPE   H3Y15826   2.620   5.373  10.071 -0.2777 -0.7451 -0.4863
  144SAPE   C3415827   2.557   5.535   9.936 -0.2587 -0.0970 -0.7574
  144SAPE   H4X15828   2.573   5.645   9.935  1.2986 -0.2896  0.1542
  144SAPE   H4Y15829   2.448   5.514   9.924 -0.3550 -1.2761  1.7244
  144SAPE   C3515830   2.619   5.469   9.812  0.1000 -0.0134  0.7233
  144SAPE   H5X15831   2.612   5.360   9.832  0.3062  0.3564  3.0958
  144SAPE   H5Y15832   2.724   5.506   9.811 -0.3923  1.4883  0.5419
  144SAPE   C3615833   2.561   5.511   9.676 -0.3103  0.1333 -0.1650
  144SAPE   H6X15834   2.548   5.622   9.673 -1.1805  0.0801  1.0135
  144SAPE   H6Y15835   2.458   5.471   9.664 -0.3069  0.1011 -0.0838
  144SAPE   C3715836   2.647   5.478   9.554 -0.2036 -0.5339 -0.2091
  144SAPE   H7X15837   2.660   5.369   9.536  2.2119 -0.2234 -0.7491
  144SAPE   H7Y15838   2.750   5.520   9.566 -0.2499 -0.7587  1.0872
  144SAPE   C3815839   2.589   5.526   9.425  0.2370  0.2286  0.1731
  144SAPE   H8X15840   2.561   5.632   9.442 -0.8288 -0.2059  1.2427
  144SAPE   H8Y15841   2.499   5.469   9.394  0.5445 -0.8361  1.1957
  144SAPE   C3915842   2.691   5.508   9.315  0.6982 -0.2803 -0.0933
  144SAPE   H9X15843   2.721   5.401   9.318 -0.0217 -0.4722  2.5347
  144SAPE   H9Y15844   2.780   5.572   9.332  0.8078 -0.2906 -0.6057
  144SAPE  C31015845   2.633   5.529   9.174 -0.2619  0.1354  0.2257
  144SAPE  H10X15846   2.620   5.639   9.162 -2.1737 -0.2157 -1.4570
  144SAPE  H10Y15847   2.532   5.483   9.173  0.4679 -1.5667  1.0467
  144SAPE  C31115848   2.724   5.474   9.073  0.9465 -0.0649  0.9490
  144SAPE  H11X15849   2.753   5.373   9.107 -1.1917 -0.8533  0.5517
  144SAPE  H11Y15850   2.818   5.534   9.073  1.2400 -0.5171  1.2456
  144SAPE  C31215851   2.670   5.487   8.928 -0.3126  0.2186  0.0053
  144SAPE  H12X15852   2.685   5.590   8.889  1.6171 -0.5367 -1.4196
  144SAPE  H12Y15853   2.565   5.461   8.903  0.1156 -2.4732  0.7448
  144SAPE  C31315854   2.752   5.404   8.830 -0.5702  0.5288  0.1657
  144SAPE  H13X15855   2.736   5.296   8.854  2.2851  0.2515  1.2707
  144SAPE  H13Y15856   2.858   5.428   8.856 -0.5733  1.3687 -0.5479
  144SAPE  C31415857   2.722   5.434   8.685  0.2234  0.1812 -0.3209
  144SAPE  H14X15858   2.621   5.481   8.692 -0.5953 -1.6782  1.8519
  144SAPE  H14Y15859   2.722   5.344   8.620 -0.0650 -0.2934  0.3308
  144SAPE  C31515860   2.806   5.540   8.612 -0.4589  0.1516  0.7580
  144SAPE  H15X15861   2.828   5.634   8.668  0.7507 -0.4629  1.3619
  144SAPE  H15Y15862   2.751   5.566   8.519 -1.3755 -0.0187  1.2415
  144SAPE  C31615863   2.947   5.495   8.559  0.2492 -0.4166  0.1237
  144SAPE  H16X15864   2.935   5.397   8.508 -2.5124 -0.9303  1.5441
  144SAPE  H16Y15865   3.015   5.475   8.645  1.2881 -1.1302 -0.8397
  144SAPE  C31715866   3.010   5.610   8.471  0.2643 -0.6342  0.5255
  144SAPE  H17X15867   3.027   5.701   8.531  0.1772  0.6677 -1.3286
  144SAPE  H17Y15868   2.939   5.637   8.389 -0.9926 -2.9910  0.7252
  144SAPE  C31815869   3.138   5.563   8.413 -0.3885  0.4881  0.1164
  144SAPE  H18X15870   3.116   5.484   8.339 -1.3856 -0.0091  0.9304
  144SAPE  H18Y15871   3.210   5.524   8.489 -0.3799  1.0760  0.4221
  144SAPE  H18Z15872   3.186   5.641   8.349  0.6427 -1.0501 -1.0390
  145SAPE     N15873   0.518   0.149  10.930  0.2990 -0.0851 -0.8324
  145SAPE   HN115874   0.587   0.110  10.863  0.3774 -2.5468  0.5320
  145SAPE   HN215875   0.420   0.118  10.913  0.0965 -0.6824  1.1559
  145SAPE   HN315876   0.529   0.251  10.943 -0.5070  0.3259 -3.0660
  145SAPE   C1215877   0.547   0.074  11.059 -0.6540  1.1732  0.2959
  145SAPE  H12A15878   0.518  -0.032  11.044  1.6510  0.8679 -3.0695
  145SAPE  H12B15879   0.487   0.129  11.135 -0.5565  0.5469  0.8319
  145SAPE   C1115880   0.695   0.082  11.076  0.4351  0.4450  0.7091
  145SAPE  H11A15881   0.746   0.068  10.979  0.9132 -0.1863  1.0503
  145SAPE  H11B15882   0.733   0.009  11.150 -2.2569  0.0887  1.8847
  145SAPE     P15883   0.877   0.261  11.115  0.8514 -0.2489 -0.3701
  145SAPE   O1315884   0.869   0.404  11.147  0.1093 -0.6076  0.1353
  145SAPE   O1415885   0.954   0.170  11.208 -0.3254 -0.0882  0.3025
  145SAPE   O1215886   0.729   0.208  11.131 -0.1797 -0.1477 -0.3295
  145SAPE   O1115887   0.915   0.245  10.966 -0.2025  0.3234  0.3023
  145SAPE    C115888   1.050   0.259  10.915 -0.0997  0.8678  0.0669
  145SAPE    HA15889   1.120   0.271  11.001 -2.0458  3.1977  1.4503
  145SAPE    HB15890   1.080   0.160  10.875  0.2651  0.4446  1.3420
  145SAPE    C215891   1.051   0.368  10.807  0.3538  0.1466  0.5438
  145SAPE    HS15892   1.001   0.461  10.841  0.1575  0.1854  0.1580
  145SAPE   O2115893   0.963   0.318  10.697 -0.3446  0.3051  0.7985
  145SAPE   C2115894   0.946   0.402  10.591  0.1603 -0.0463 -0.5830
  145SAPE   O2215895   0.977   0.520  10.594  0.0385  0.2434  0.0385
  145SAPE   C2215896   0.888   0.329  10.464  1.0397  0.1099 -0.0091
  145SAPE   H2R15897   0.918   0.222  10.474  1.8705  0.4514  1.5327
  145SAPE   H2S15898   0.778   0.340  10.473  1.1539 -0.1105  2.4391
  145SAPE    C315899   1.192   0.412  10.758 -0.5872  0.8131  0.0596
  145SAPE    HX15900   1.241   0.447  10.851  0.0220 -0.4280  0.2324
  145SAPE    HY15901   1.189   0.494  10.683 -3.5174  1.5589  0.8476
  145SAPE   O3115902   1.270   0.299  10.707 -0.9623  0.1545 -0.6465
  145SAPE   C3115903   1.386   0.341  10.652  0.8117 -0.2001 -0.3521
  145SAPE   O3215904   1.417   0.460  10.663 -0.2165  0.1727 -0.2092
  145SAPE   C3215905   1.454   0.230  10.580 -0.2167  0.4071 -0.0597
  145SAPE   H2X15906   1.384   0.164  10.525  2.0023 -1.8451 -0.3824
  145SAPE   H2Y15907   1.516   0.172  10.652  0.7592  0.1855 -1.0581
  145SAPE   C2315908   0.937   0.373  10.322  0.1199  0.0272 -0.1465
  145SAPE   H3R15909   1.046   0.358  10.302 -0.3018  0.5379 -3.2356
  145SAPE   H3S15910   0.925   0.482  10.308  0.4454 -0.1390 -1.8594
  145SAPE   C2415911   0.886   0.297  10.200 -0.6939 -0.1549  0.9794
  145SAPE   H4R15912   0.895   0.188  10.215  2.7397 -0.2493 -0.8364
  145SAPE   H4S15913   0.948   0.326  10.112  0.3519  0.0887  1.7731
  145SAPE   C2515914   0.745   0.330  10.169 -0.0418 -0.8052 -0.1927
  145SAPE   H5R15915   0.681   0.324  10.259  0.1784 -0.7163 -0.0315
  145SAPE   C2615916   0.695   0.355  10.045 -0.2687 -0.4265 -0.3055
  145SAPE   H6R15917   0.592   0.391  10.032  0.3465  1.0165 -1.4693
  145SAPE   C2715918   0.769   0.351   9.908 -0.1637  0.1907  0.0321
  145SAPE   H7R15919   0.875   0.381   9.914 -0.4337  0.9375  1.4357
  145SAPE   H7S15920   0.726   0.425   9.837 -1.6038 -0.5183  0.1187
  145SAPE   C2815921   0.764   0.208   9.860 -0.0043 -0.6973 -0.0517
  145SAPE   H8R15922   0.823   0.137   9.919 -0.3249 -2.0366 -1.2884
  145SAPE   C2915923   0.725   0.171   9.737 -0.1965 -0.3588 -0.1788
  145SAPE   H9R15924   0.712   0.063   9.720 -0.4898 -0.1808 -1.1568
  145SAPE  C21015925   0.672   0.262   9.634  0.5110  0.4464 -0.4483
  145SAPE  H10R15926   0.608   0.330   9.694 -0.0738 -0.9080  0.5077
  145SAPE  H10S15927   0.593   0.202   9.586  1.0411 -1.9451  1.4950
  145SAPE  C21115928   0.781   0.318   9.541  0.4455 -0.3419  0.4880
  145SAPE  H11R15929   0.874   0.341   9.594 -0.4770 -0.0406  2.0648
  145SAPE  C21215930   0.773   0.330   9.409 -0.6777 -0.6670 -0.0553
  145SAPE  H12R15931   0.853   0.372   9.347 -0.3028 -3.4124 -1.5959
  145SAPE  C21315932   0.649   0.288   9.323 -0.4363  0.0236 -0.0950
  145SAPE  H13R15933   0.604   0.377   9.273  0.9458  0.9154  0.1692
  145SAPE  H13S15934   0.563   0.247   9.380 -1.2299  1.6199 -0.0965
  145SAPE  C21415935   0.691   0.175   9.230 -0.7886  0.4742  0.1173
  145SAPE  H14R15936   0.692   0.079   9.283 -0.5444  0.3616 -0.0845
  145SAPE  C21515937   0.729   0.184   9.101 -0.1069 -0.6970 -0.0609
  145SAPE  H15R15938   0.761   0.101   9.037 -1.3584 -0.6414 -0.7937
  145SAPE  C21615939   0.737   0.322   9.027  0.4118  1.0899 -0.1198
  145SAPE  H16R15940   0.842   0.358   9.032  0.1671  1.7607  0.2586
  145SAPE  H16S15941   0.675   0.396   9.082  1.2090  0.8133  1.2015
  145SAPE  C21715942   0.685   0.318   8.884  0.2147  0.2794 -0.2860
  145SAPE  H17R15943   0.646   0.421   8.871 -0.3055  0.1037 -0.1133
  145SAPE  H17S15944   0.598   0.249   8.876  0.0565  0.4484 -0.0148
  145SAPE  C21815945   0.795   0.298   8.778 -0.0291  1.0689 -0.3733
  145SAPE  H18R15946   0.850   0.208   8.810  1.3229  2.3482  1.0478
  145SAPE  H18S15947   0.855   0.390   8.762 -1.1219  1.7419 -0.7140
  145SAPE  C21915948   0.734   0.265   8.636 -0.3660 -0.1367 -0.4630
  145SAPE  H19R15949   0.662   0.343   8.603 -1.6358 -1.0411  0.0857
  145SAPE  H19S15950   0.676   0.171   8.652  1.0443 -1.2837 -1.8178
  145SAPE  C22015951   0.856   0.246   8.543  1.3402 -0.0640 -1.0442
  145SAPE  H20R15952   0.900   0.345   8.517 -1.8423  2.4031  1.9638
  145SAPE  H20S15953   0.827   0.215   8.440 -2.3894  1.8657 -0.7816
  145SAPE  H20T15954   0.934   0.179   8.583 -0.0573  0.1258  2.3254
  145SAPE   C3315955   1.558   0.286  10.486  0.5324 -0.9010  0.2813
  145SAPE   H3X15956   1.634   0.211  10.453 -0.3606 -1.4491 -0.5799
  145SAPE   H3Y15957   1.623   0.363  10.532 -0.7216  0.1677  0.3215
  145SAPE   C3415958   1.497   0.348  10.354  0.0174 -0.8321 -0.0985
  145SAPE   H4X15959   1.572   0.410  10.303  0.9176 -1.7315  0.0880
  145SAPE   H4Y15960   1.421   0.419  10.394 -1.3619 -1.3641 -1.6580
  145SAPE   C3515961   1.444   0.244  10.255 -0.1752 -0.3393  0.5110
  145SAPE   H5X15962   1.343   0.211  10.286 -0.4711  0.0499 -0.0345
  145SAPE   H5Y15963   1.505   0.150  10.251 -0.3949 -0.4361 -1.2259
  145SAPE   C3615964   1.413   0.307  10.119 -0.7018 -0.0850  0.5869
  145SAPE   H6X15965   1.504   0.353  10.074  0.3410 -1.6917  0.9835
  145SAPE   H6Y15966   1.345   0.393  10.140  1.4034  1.3433  2.0164
  145SAPE   C3715967   1.359   0.209  10.018 -0.4033 -0.5797  0.2136
  145SAPE   H7X15968   1.267   0.159  10.056 -0.9501 -2.0435 -2.7752
  145SAPE   H7Y15969   1.432   0.126  10.007  1.0794  0.5079  1.4429
  145SAPE   C3815970   1.315   0.277   9.892 -0.2064  0.2054 -1.0179
  145SAPE   H8X15971   1.387   0.352   9.852  0.0704 -0.8755 -2.6495
  145SAPE   H8Y15972   1.225   0.340   9.912 -0.2865  0.9126 -3.3435
  145SAPE   C3915973   1.278   0.179   9.785  0.4395  0.2977 -0.3003
  145SAPE   H9X15974   1.211   0.097   9.818  2.9149 -2.1463 -0.9215
  145SAPE   H9Y15975   1.367   0.124   9.747 -1.2009 -0.3323 -3.6661
  145SAPE  C31015976   1.204   0.239   9.668 -0.3367 -0.1133  0.4081
  145SAPE  H10X15977   1.245   0.341   9.653  2.2000 -1.2968 -1.3223
  145SAPE  H10Y15978   1.100   0.258   9.704 -0.1090  0.2585  0.8842
  145SAPE  C31115979   1.211   0.163   9.539 -0.0254 -0.8876 -0.0519
  145SAPE  H11X15980   1.145   0.075   9.552 -2.5034  1.1352  2.2045
  145SAPE  H11Y15981   1.313   0.121   9.523  1.0964  1.5716  0.2150
  145SAPE  C31215982   1.166   0.250   9.418  0.6053 -0.3108 -0.6461
  145SAPE  H12X15983   1.210   0.352   9.418 -0.6902  0.2738  0.0439
  145SAPE  H12Y15984   1.055   0.260   9.428  0.6568  0.9595 -1.1653
  145SAPE  C31315985   1.196   0.189   9.286 -0.1217 -1.0881  0.3908
  145SAPE  H13X15986   1.152   0.089   9.262  0.3947 -1.1009 -0.5569
  145SAPE  H13Y15987   1.306   0.183   9.267  0.4288  0.0899  2.8245
  145SAPE  C31415988   1.142   0.277   9.168 -0.8598 -0.3624 -0.1692
  145SAPE  H14X15989   1.193   0.375   9.175 -1.3030 -0.2526  3.2816
  145SAPE  H14Y15990   1.033   0.295   9.183 -0.4833 -0.2554  2.9690
  145SAPE  C31515991   1.175   0.222   9.029 -0.1153 -0.4576  0.2887
  145SAPE  H15X15992   1.129   0.121   9.019 -0.6767 -0.1204 -0.8064
  145SAPE  H15Y15993   1.284   0.201   9.028 -0.2922 -1.5223  1.2252
  145SAPE  C31615994   1.126   0.306   8.911 -0.1811 -0.4693 -0.3334
  145SAPE  H16X15995   1.168   0.409   8.912  0.0695 -0.5575 -0.9153
  145SAPE  H16Y15996   1.016   0.308   8.924 -0.2677 -1.9063 -0.6656
  145SAPE  C31715997   1.160   0.258   8.769 -0.4096 -0.2441 -0.5387
  145SAPE  H17X15998   1.104   0.319   8.695  0.8110  1.3848 -0.1709
  145SAPE  H17Y15999   1.129   0.152   8.758  0.6606 -0.7058  0.5905
  145SAPE  C31816000   1.316   0.273   8.759  0.4285 -0.0586 -0.6387
  145SAPE  H18X16001   1.362   0.351   8.823  0.9519 -0.4035 -0.5851
  145SAPE  H18Y16002   1.350   0.283   8.653  0.8241 -1.3571 -0.6594
  145SAPE  H18Z16003   1.357   0.174   8.791 -1.9095 -0.3039  1.8728
  146SAPE     N16004   6.222   0.263  10.876  0.7616  0.6473 -0.3399
  146SAPE   HN116005   6.205   0.362  10.851 -1.4941 -0.1342 -2.3587
  146SAPE   HN216006   6.167   0.242  10.961 -1.3509  0.7036 -1.6343
  146SAPE   HN316007   6.325   0.250  10.884  0.5223 -1.7681 -0.3145
  146SAPE   C1216008   6.154   0.155  10.791 -0.6045 -0.5982  0.7689
  146SAPE  H12A16009   6.215   0.137  10.700 -0.0652 -2.2076  1.4036
  146SAPE  H12B16010   6.059   0.188  10.745  0.6534 -0.5794 -1.9537
  146SAPE   C1116011   6.122   0.033  10.879 -0.0908 -0.4538  0.2576
  146SAPE  H11A16012   6.066  -0.047  10.827  0.6053 -1.5866  1.2171
  146SAPE  H11B16013   6.054   0.066  10.961  1.1239 -0.7131  1.3947
  146SAPE     P16014   6.323  -0.127  10.874  0.1504 -0.0095  0.4172
  146SAPE   O1316015   6.353  -0.076  10.738  0.6238 -0.5354 -0.0500
  146SAPE   O1416016   6.439  -0.154  10.960 -0.6745 -0.2377 -0.7756
  146SAPE   O1216017   6.235  -0.023  10.950  0.0966  0.2702  0.4643
  146SAPE   O1116018   6.232  -0.262  10.873 -0.3029 -0.8308  0.0300
  146SAPE    C116019   6.216  -0.357  10.769 -0.3938 -0.7572 -0.1411
  146SAPE    HA16020   6.301  -0.350  10.697 -0.9915  2.0316 -0.7099
  146SAPE    HB16021   6.235  -0.458  10.811  0.1345  0.3844  2.5393
  146SAPE    C216022   6.079  -0.339  10.685  0.0142  0.5404  0.0418
  146SAPE    HS16023   6.079  -0.424  10.614  0.6662  0.5202  0.0650
  146SAPE   O2116024   6.066  -0.212  10.623  0.2715  0.4909 -0.1643
  146SAPE   C2116025   6.156  -0.193  10.524 -0.6767  0.5623  0.3194
  146SAPE   O2216026   6.251  -0.263  10.492  0.4548  0.1275  0.1333
  146SAPE   C2216027   6.114  -0.066  10.453 -0.2675  0.6165  0.5500
  146SAPE   H2R16028   6.051  -0.009  10.525  1.3330  0.1222  2.4527
  146SAPE   H2S16029   6.211  -0.016  10.432  0.7406 -1.3707  0.2130
  146SAPE    C316030   5.960  -0.358  10.783 -0.7873  0.0656 -0.2507
  146SAPE    HX16031   5.959  -0.264  10.843 -2.0350  1.4149 -2.2550
  146SAPE    HY16032   5.975  -0.446  10.849  2.4930  0.6934  0.0217
  146SAPE   O3116033   5.834  -0.364  10.720  0.0029  0.0415 -0.0070
  146SAPE   C3116034   5.812  -0.468  10.636 -0.2351 -0.1376 -0.1374
  146SAPE   O3216035   5.890  -0.564  10.617  0.2946  0.0476 -0.6693
  146SAPE   C3216036   5.679  -0.463  10.572  0.2292  0.1754 -0.1617
  146SAPE   H2X16037   5.629  -0.367  10.597 -1.0575 -0.5773  0.2538
  146SAPE   H2Y16038   5.611  -0.545  10.603  2.0037 -1.6056 -0.7722
  146SAPE   C2316039   6.036  -0.092  10.327 -0.5834 -0.1741  0.1936
  146SAPE   H3R16040   5.942  -0.034  10.338 -1.1539 -1.1983  0.8482
  146SAPE   H3S16041   5.997  -0.196  10.331  0.9204 -0.8339 -1.0305
  146SAPE   C2416042   6.107  -0.055  10.193  0.2699  0.0452 -0.2836
  146SAPE   H4R16043   6.135   0.053  10.193  1.7523 -0.1945  3.3250
  146SAPE   H4S16044   6.038  -0.081  10.110  0.8518  1.3889 -1.2374
  146SAPE   C2516045   6.234  -0.145  10.182  0.3517 -0.0261 -0.0596
  146SAPE   H5R16046   6.327  -0.098  10.218 -0.5548  0.9727  1.0661
  146SAPE   C2616047   6.234  -0.277  10.153  0.0260 -0.2189 -0.0449
  146SAPE   H6R16048   6.328  -0.335  10.154 -0.8196 -1.6698 -1.1147
  146SAPE   C2716049   6.109  -0.352  10.123  0.6004  0.1903 -0.0020
  146SAPE   H7R16050   6.115  -0.386  10.018 -0.2465  0.1565 -0.0416
  146SAPE   H7S16051   6.016  -0.291  10.117 -0.8302 -1.3113  3.7541
  146SAPE   C2816052   6.081  -0.472  10.208 -0.1167 -0.0656  0.5026
  146SAPE   H8R16053   6.079  -0.448  10.315 -0.4473  1.3202  0.2064
  146SAPE   C2916054   6.059  -0.595  10.160  0.7240 -0.0951 -0.3089
  146SAPE   H9R16055   6.030  -0.678  10.225  1.3125 -1.1525 -1.3624
  146SAPE  C21016056   6.065  -0.645  10.018 -0.6876 -0.1436  0.0748
  146SAPE  H10R16057   6.170  -0.655   9.984 -0.8083 -1.2095 -0.0323
  146SAPE  H10S16058   6.014  -0.569   9.956 -2.2280 -0.8081  0.4743
  146SAPE  C21116059   5.996  -0.782  10.006  0.8074 -0.1603 -0.5383
  146SAPE  H11R16060   6.001  -0.860  10.084 -2.5879 -0.6776 -0.6808
  146SAPE  C21216061   5.913  -0.804   9.898 -0.1222 -0.3787  0.4444
  146SAPE  H12R16062   5.858  -0.899   9.889  0.1375 -0.4927  0.0238
  146SAPE  C21316063   5.886  -0.713   9.785  0.4286  0.5385 -0.2700
  146SAPE  H13R16064   5.863  -0.616   9.834  0.0932 -0.3872  1.4619
  146SAPE  H13S16065   5.789  -0.745   9.741  0.2233 -0.3023  0.7660
  146SAPE  C21416066   5.998  -0.706   9.684 -0.2208 -0.2675 -0.2059
  146SAPE  H14R16067   6.099  -0.693   9.726  0.8139  0.3716 -2.7120
  146SAPE  C21516068   5.986  -0.715   9.549 -0.3086 -0.2263 -0.0072
  146SAPE  H15R16069   6.074  -0.696   9.486 -0.7575  0.0176 -0.5669
  146SAPE  C21616070   5.865  -0.739   9.467 -0.5866 -0.3699  0.2521
  146SAPE  H16R16071   5.777  -0.746   9.534 -0.7982 -2.2358 -0.1688
  146SAPE  H16S16072   5.866  -0.836   9.414 -2.1642  0.2588 -1.0024
  146SAPE  C21716073   5.836  -0.618   9.379  0.0372 -0.2531  0.3158
  146SAPE  H17R16074   5.829  -0.521   9.432  1.4746  0.2751 -0.4117
  146SAPE  H17S16075   5.734  -0.636   9.337 -0.3427  0.6688  0.8202
  146SAPE  C21816076   5.930  -0.604   9.257 -0.5013  0.2092 -0.3726
  146SAPE  H18R16077   5.938  -0.705   9.210  2.0315 -0.4073  1.2101
  146SAPE  H18S16078   6.036  -0.589   9.287  0.4406 -2.2068 -2.0998
  146SAPE  C21916079   5.882  -0.505   9.148 -0.2373  0.4744  0.1115
  146SAPE  H19R16080   5.881  -0.406   9.199  2.6776  0.6100  0.0628
  146SAPE  H19S16081   5.776  -0.517   9.119 -0.5676 -3.1988  2.2948
  146SAPE  C22016082   5.979  -0.503   9.029  0.2357  0.8942 -0.2275
  146SAPE  H20R16083   6.085  -0.494   9.061 -0.3839  1.7254  1.7197
  146SAPE  H20S16084   5.959  -0.422   8.955 -1.5673 -0.3775 -1.1946
  146SAPE  H20T16085   5.979  -0.599   8.973  1.1366  0.6477  0.1693
  146SAPE   C3316086   5.691  -0.472  10.419  0.9474  0.3927 -0.2006
  146SAPE   H3X16087   5.749  -0.563  10.393  1.0341  0.6702 -0.9928
  146SAPE   H3Y16088   5.758  -0.389  10.389 -0.5183  2.5090  2.0103
  146SAPE   C3416089   5.554  -0.464  10.340 -0.0314 -0.5457 -0.2355
  146SAPE   H4X16090   5.511  -0.369  10.379  0.5387  1.2477 -3.5696
  146SAPE   H4Y16091   5.485  -0.550  10.359 -1.0339  0.1820 -0.5068
  146SAPE   C3516092   5.574  -0.455  10.191 -0.4736  0.0165  0.5928
  146SAPE   H5X16093   5.477  -0.429  10.144  0.7704 -0.2039 -2.3467
  146SAPE   H5Y16094   5.620  -0.544  10.142  1.8893  2.1838 -1.4171
  146SAPE   C3616095   5.671  -0.344  10.139  0.5767  0.1989 -0.1540
  146SAPE   H6X16096   5.773  -0.387  10.139  0.6137  0.2730  0.4816
  146SAPE   H6Y16097   5.664  -0.265  10.216  1.2114 -0.8584  1.0269
  146SAPE   C3716098   5.647  -0.278  10.003  0.4261  0.1283  0.0978
  146SAPE   H7X16099   5.544  -0.240   9.988 -0.1133 -1.2011  0.2298
  146SAPE   H7Y16100   5.666  -0.357   9.926  0.0349  0.6793 -0.5792
  146SAPE   C3816101   5.742  -0.169   9.969  0.3064 -0.0274 -0.0006
  146SAPE   H8X16102   5.849  -0.197   9.976  0.3270  0.1044  0.2406
  146SAPE   H8Y16103   5.722  -0.101  10.055  1.6491 -0.2490  0.5034
  146SAPE   C3916104   5.701  -0.093   9.838 -0.7077  0.7720 -0.0319
  146SAPE   H9X16105   5.753   0.006   9.839  0.4296  0.1923 -0.6025
  146SAPE   H9Y16106   5.591  -0.084   9.842 -0.7527 -0.1462  1.8054
  146SAPE  C31016107   5.755  -0.168   9.714  0.4756 -0.4634  0.1699
  146SAPE  H10X16108   5.733  -0.277   9.710  1.3473 -0.6874  1.2062
  146SAPE  H10Y16109   5.864  -0.149   9.724  0.3483  0.7017 -0.4740
  146SAPE  C31116110   5.712  -0.099   9.582  0.2847 -0.0936 -0.3709
  146SAPE  H11X16111   5.734   0.009   9.598  0.0597 -0.0750 -0.1794
  146SAPE  H11Y16112   5.602  -0.110   9.583  0.2627 -0.1212 -1.6700
  146SAPE  C31216113   5.766  -0.152   9.459 -0.9174  0.6869  1.2052
  146SAPE  H12X16114   5.743  -0.261   9.453 -1.3866  0.7653  1.5230
  146SAPE  H12Y16115   5.877  -0.151   9.462 -0.8820 -0.4754  0.9511
  146SAPE  C31316116   5.715  -0.077   9.335 -0.6916  0.2771 -0.2862
  146SAPE  H13X16117   5.775   0.016   9.340 -0.5064  0.0981  1.2734
  146SAPE  H13Y16118   5.605  -0.060   9.335 -0.6602  0.6547 -1.9281
  146SAPE  C31416119   5.756  -0.141   9.197  0.4095 -0.6391  0.0796
  146SAPE  H14X16120   5.720  -0.246   9.190 -0.3425 -0.3195 -1.1183
  146SAPE  H14Y16121   5.867  -0.140   9.207  0.6127 -1.0857 -1.7317
  146SAPE  C31516122   5.713  -0.054   9.083 -0.0983  0.3946  0.6412
  146SAPE  H15X16123   5.735   0.054   9.082  0.8649  0.3169 -3.3378
  146SAPE  H15Y16124   5.602  -0.058   9.084 -0.0939 -2.8128  1.7398
  146SAPE  C31616125   5.771  -0.103   8.951  0.3793 -0.2909  0.7010
  146SAPE  H16X16126   5.875  -0.136   8.972  0.2996 -1.2226 -0.2838
  146SAPE  H16Y16127   5.781  -0.018   8.880 -0.5292  0.7541  1.7725
  146SAPE  C31716128   5.692  -0.222   8.881 -0.7332  0.4227  0.4222
  146SAPE  H17X16129   5.585  -0.194   8.867 -0.4629  1.5835  0.5605
  146SAPE  H17Y16130   5.696  -0.312   8.946 -0.5670 -0.7053 -1.1050
  146SAPE  C31816131   5.750  -0.266   8.748 -0.4181  0.1781 -0.4814
  146SAPE  H18X16132   5.682  -0.345   8.710 -3.0333  1.2132  1.7305
  146SAPE  H18Y16133   5.853  -0.302   8.769 -0.5122  0.2706  0.1568
  146SAPE  H18Z16134   5.769  -0.181   8.679 -0.1599 -0.8771 -1.7664
  147SAPE     N16135   1.292   2.264   5.964 -0.5768  0.2058  0.2490
  147SAPE   HN116136   1.347   2.320   5.896 -0.0628 -0.4684  0.0902
  147SAPE   HN216137   1.321   2.164   5.955 -0.4542  0.1972  0.7075
  147SAPE   HN316138   1.192   2.265   5.939 -0.5545 -0.2353  0.1347
  147SAPE   C1216139   1.320   2.310   6.107 -0.2051 -0.3748 -0.0107
  147SAPE  H12A16140   1.252   2.395   6.129  1.6882  0.6960  2.1346
  147SAPE  H12B16141   1.424   2.348   6.117 -1.4594  3.1853  1.0601
  147SAPE   C1116142   1.296   2.192   6.210 -0.4186 -0.8977  0.5322
  147SAPE  H11A16143   1.190   2.165   6.191 -0.6019 -1.2819  1.9719
  147SAPE  H11B16144   1.322   2.228   6.312  1.5305 -0.5039 -0.0728
  147SAPE     P16145   1.395   1.962   6.255 -0.0739  0.1343  0.0343
  147SAPE   O1316146   1.253   1.919   6.280  0.1238 -0.1395  0.3378
  147SAPE   O1416147   1.478   1.857   6.190  0.4037 -0.0478  0.4714
  147SAPE   O1216148   1.387   2.095   6.169  0.2314 -0.2742  0.3794
  147SAPE   O1116149   1.473   2.011   6.381  0.1233 -0.3740  0.6345
  147SAPE    C116150   1.615   2.039   6.374 -0.2020  0.0269  0.6700
  147SAPE    HA16151   1.672   1.945   6.389 -1.1954 -0.8238 -0.6655
  147SAPE    HB16152   1.646   2.075   6.273 -1.7618 -0.5499 -0.0490
  147SAPE    C216153   1.667   2.131   6.490 -0.1893  0.0570 -0.1456
  147SAPE    HS16154   1.777   2.124   6.503  0.2420  4.3205  0.0655
  147SAPE   O2116155   1.587   2.103   6.609 -0.4794 -0.6901 -0.7124
  147SAPE   C2116156   1.611   1.989   6.663 -0.6137 -0.5533  0.0304
  147SAPE   O2216157   1.684   1.896   6.627  0.1858 -0.2548 -0.6713
  147SAPE   C2216158   1.544   1.989   6.803  0.1939  0.0484  0.7130
  147SAPE   H2R16159   1.465   2.066   6.817  0.0203 -0.5252  3.3151
  147SAPE   H2S16160   1.500   1.888   6.820  0.0821  0.0277  0.3291
  147SAPE    C316161   1.637   2.282   6.451  0.2344 -0.3430 -0.3782
  147SAPE    HX16162   1.535   2.276   6.406 -0.4889 -0.6763  1.2232
  147SAPE    HY16163   1.699   2.301   6.361 -0.3047 -0.4694 -0.7784
  147SAPE   O3116164   1.644   2.388   6.552 -0.5542  0.7254  0.0594
  147SAPE   C3116165   1.767   2.420   6.590 -0.2587 -0.3159  0.6775
  147SAPE   O3216166   1.866   2.358   6.564  0.7324 -0.2208 -0.4225
  147SAPE   C3216167   1.751   2.537   6.687 -0.2172  0.7623 -0.0254
  147SAPE   H2X16168   1.736   2.500   6.790  1.3891  0.9069  0.2757
  147SAPE   H2Y16169   1.665   2.590   6.641 -0.3080  0.7922  0.1780
  147SAPE   C2316170   1.659   2.009   6.913 -0.1991 -0.1373 -0.2301
  147SAPE   H3R16171   1.733   1.926   6.902  0.4418  0.1125  1.7171
  147SAPE   H3S16172   1.614   1.994   7.014 -0.5484  0.3603 -0.3085
  147SAPE   C2416173   1.730   2.149   6.917 -0.6124  0.5835  0.4248
  147SAPE   H4R16174   1.779   2.155   6.818 -0.2666 -0.6764  0.4985
  147SAPE   H4S16175   1.806   2.143   6.997 -0.4346 -2.9685  0.1563
  147SAPE   C2516176   1.637   2.262   6.930 -0.4439 -0.2185 -0.4342
  147SAPE   H5R16177   1.602   2.308   6.836  0.3743  1.3353 -0.0202
  147SAPE   C2616178   1.597   2.314   7.047 -0.9592  0.2438 -0.9252
  147SAPE   H6R16179   1.525   2.396   7.047 -2.4375 -1.0102 -0.5466
  147SAPE   C2716180   1.630   2.266   7.186 -0.0674 -0.0189 -0.0837
  147SAPE   H7R16181   1.622   2.157   7.168 -3.0416  0.3978 -1.9130
  147SAPE   H7S16182   1.546   2.296   7.252  0.5838 -1.9264  1.7275
  147SAPE   C2816183   1.767   2.307   7.240 -0.4593 -0.4992 -0.8152
  147SAPE   H8R16184   1.848   2.351   7.180 -0.8461  0.5602 -0.5942
  147SAPE   C2916185   1.789   2.313   7.372 -0.1478  0.2081  0.1231
  147SAPE   H9R16186   1.886   2.355   7.401 -0.2933 -0.3074  1.4603
  147SAPE  C21016187   1.681   2.285   7.479 -0.0161  0.5668  0.7379
  147SAPE  H10R16188   1.588   2.246   7.433  0.4381  0.8539 -0.4576
  147SAPE  H10S16189   1.654   2.386   7.517 -1.6262  0.2996  0.4046
  147SAPE  C21116190   1.736   2.193   7.589 -0.1300 -0.1673 -0.0883
  147SAPE  H11R16191   1.785   2.102   7.550  2.5918  0.3982  1.7327
  147SAPE  C21216192   1.756   2.227   7.717 -0.6344  0.3064  0.1207
  147SAPE  H12R16193   1.805   2.152   7.781  0.5270  0.6434 -0.3691
  147SAPE  C21316194   1.712   2.350   7.792 -0.4093 -1.1955  1.0392
  147SAPE  H13R16195   1.707   2.434   7.719 -4.0033 -3.9278 -2.2669
  147SAPE  H13S16196   1.794   2.371   7.864 -0.9134  0.5045  1.1778
  147SAPE  C21416197   1.578   2.345   7.859 -0.2525  0.2689 -0.5178
  147SAPE  H14R16198   1.487   2.361   7.799 -0.8762 -0.3144  0.2529
  147SAPE  C21516199   1.558   2.304   7.987 -0.1208 -0.7363  0.5816
  147SAPE  H15R16200   1.456   2.303   8.028  0.0220 -0.1240  0.9567
  147SAPE  C21616201   1.652   2.263   8.098 -0.6255 -0.1805 -0.6334
  147SAPE  H16R16202   1.642   2.332   8.184  0.3372 -0.0836 -0.5822
  147SAPE  H16S16203   1.757   2.272   8.062 -1.8064  2.7979 -3.7503
  147SAPE  C21716204   1.625   2.120   8.155 -0.7934 -0.1062 -0.1843
  147SAPE  H17R16205   1.707   2.114   8.230 -1.3475  2.3949  0.7460
  147SAPE  H17S16206   1.647   2.045   8.076  3.4007  0.7601 -0.0645
  147SAPE  C21816207   1.486   2.090   8.207  0.0882 -0.6709 -0.7123
  147SAPE  H18R16208   1.430   2.075   8.113  0.1506  2.1651 -1.2712
  147SAPE  H18S16209   1.451   2.183   8.257  1.2290  0.6667 -2.3351
  147SAPE  C21916210   1.478   1.962   8.295 -0.1950 -0.3078  0.5984
  147SAPE  H19R16211   1.557   1.962   8.373 -0.4651  0.4954  0.8857
  147SAPE  H19S16212   1.492   1.876   8.226 -0.7381 -1.0195  1.3489
  147SAPE  C22016213   1.341   1.951   8.364  0.5102  0.2653 -0.4200
  147SAPE  H20R16214   1.335   2.027   8.445  0.5457  0.4834 -0.6198
  147SAPE  H20S16215   1.309   1.851   8.400 -0.2524  1.1680  1.5947
  147SAPE  H20T16216   1.267   1.979   8.286 -0.7714 -3.0997 -0.5770
  147SAPE   C3316217   1.882   2.626   6.677  0.1247 -0.0993  0.4151
  147SAPE   H3X16218   1.891   2.671   6.576  2.7768 -1.2338  0.0706
  147SAPE   H3Y16219   1.971   2.563   6.697  0.0874 -0.8256 -1.5287
  147SAPE   C3416220   1.878   2.743   6.777  0.3100  0.1193 -0.5703
  147SAPE   H4X16221   1.784   2.799   6.758 -1.1590 -1.6778  1.0808
  147SAPE   H4Y16222   1.977   2.785   6.749  0.6629 -1.1746 -1.3713
  147SAPE   C3516223   1.892   2.698   6.925  0.6973  0.0380  0.3254
  147SAPE   H5X16224   1.993   2.659   6.950  0.6043 -0.4670 -0.0737
  147SAPE   H5Y16225   1.812   2.623   6.944  0.5053 -0.5073 -2.2923
  147SAPE   C3616226   1.857   2.818   7.020 -0.1942 -0.2840  0.1296
  147SAPE   H6X16227   1.751   2.837   6.992 -0.5897 -3.6303 -1.1705
  147SAPE   H6Y16228   1.929   2.903   7.020  0.9521 -1.2153  0.8280
  147SAPE   C3716229   1.854   2.769   7.175  0.3929  0.6566  0.2498
  147SAPE   H7X16230   1.774   2.693   7.186  0.6637  0.5067  1.2551
  147SAPE   H7Y16231   1.805   2.852   7.229 -0.7462 -0.7015  1.3852
  147SAPE   C3816232   1.979   2.712   7.242 -0.1777  0.0667  0.4047
  147SAPE   H8X16233   2.058   2.790   7.252 -0.4843  0.6368 -1.3644
  147SAPE   H8Y16234   2.025   2.630   7.182  0.8422  0.4031  0.7117
  147SAPE   C3916235   1.953   2.640   7.379 -0.3238 -0.2201  0.3760
  147SAPE   H9X16236   2.016   2.550   7.389  2.6814  1.7108 -0.0050
  147SAPE   H9Y16237   1.849   2.601   7.391 -0.4585  0.5705  2.1751
  147SAPE  C31016238   1.971   2.726   7.506  0.0848 -0.0219 -0.0362
  147SAPE  H10X16239   1.911   2.816   7.483  0.8712  0.7063  0.6554
  147SAPE  H10Y16240   2.076   2.756   7.526 -0.8493  3.9803 -0.2674
  147SAPE  C31116241   1.913   2.666   7.632 -0.3803 -0.0401 -0.4460
  147SAPE  H11X16242   1.981   2.602   7.692  0.3180  0.0379 -1.1278
  147SAPE  H11Y16243   1.823   2.603   7.615  0.9636 -2.8152  1.8408
  147SAPE  C31216244   1.871   2.780   7.724  0.0244  0.3094 -0.2953
  147SAPE  H12X16245   1.793   2.841   7.673  0.9037  3.9337  2.3030
  147SAPE  H12Y16246   1.954   2.852   7.740  0.0569 -0.0388  1.2015
  147SAPE  C31316247   1.816   2.730   7.859 -0.0192 -0.0770 -0.4852
  147SAPE  H13X16248   1.758   2.637   7.842  2.0776 -1.5768  0.0689
  147SAPE  H13Y16249   1.742   2.798   7.905 -1.0724  0.0203 -2.2322
  147SAPE  C31416250   1.931   2.708   7.957  0.5480 -0.2485 -0.8577
  147SAPE  H14X16251   1.970   2.810   7.975 -1.4725  0.7084 -1.5827
  147SAPE  H14Y16252   2.009   2.649   7.905 -0.5063 -0.6720 -2.0149
  147SAPE  C31516253   1.887   2.629   8.081  0.4619 -0.7366  0.1951
  147SAPE  H15X16254   1.797   2.573   8.048 -1.8139  2.1423  1.1624
  147SAPE  H15Y16255   1.841   2.703   8.149 -1.4378 -1.1367 -0.6105
  147SAPE  C31616256   1.983   2.536   8.160 -0.2465  0.2752  1.1620
  147SAPE  H16X16257   2.032   2.469   8.085 -1.9583 -1.7930  1.7713
  147SAPE  H16Y16258   1.929   2.471   8.232  0.8764 -0.3267  1.4790
  147SAPE  C31716259   2.096   2.615   8.231  0.3402 -0.4409  0.0202
  147SAPE  H17X16260   2.124   2.703   8.170  0.2338 -0.8050 -0.5670
  147SAPE  H17Y16261   2.188   2.551   8.229  1.1706  0.7098 -2.0935
  147SAPE  C31816262   2.059   2.653   8.368 -0.1870 -0.1843 -0.6429
  147SAPE  H18X16263   1.956   2.693   8.361  0.0943  0.5726 -0.6195
  147SAPE  H18Y16264   2.116   2.739   8.410 -0.7602 -0.9990  1.9657
  147SAPE  H18Z16265   2.051   2.574   8.445  0.3288  0.7077  0.3540
  148SAPE     N16266   5.779   1.072   6.552 -0.2444  0.3540 -0.5558
  148SAPE   HN116267   5.864   1.052   6.496 -1.1080 -2.7085 -0.9339
  148SAPE   HN216268   5.712   1.131   6.497 -1.9647 -0.7052  0.3096
  148SAPE   HN316269   5.806   1.123   6.639 -0.6030  0.5356 -0.5475
  148SAPE   C1216270   5.724   0.935   6.585 -0.1656 -0.3409 -0.1696
  148SAPE  H12A16271   5.712   0.871   6.495 -2.1524 -0.8802  0.4419
  148SAPE  H12B16272   5.624   0.950   6.630  0.2159  0.7981  0.3605
  148SAPE   C1116273   5.811   0.872   6.692  0.0453 -0.1132  0.0481
  148SAPE  H11A16274   5.767   0.779   6.734  1.7542 -0.7322  0.5647
  148SAPE  H11B16275   5.813   0.941   6.779 -0.5540 -1.6463  1.3320
  148SAPE     P16276   6.000   0.737   6.570 -0.1685  0.1128 -0.2847
  148SAPE   O1316277   5.906   0.707   6.467 -0.1022  0.2895  0.1182
  148SAPE   O1416278   6.139   0.776   6.534  0.0873  0.0199  0.0972
  148SAPE   O1216279   5.944   0.853   6.651 -0.6080 -0.0435 -0.8386
  148SAPE   O1116280   6.003   0.618   6.674  0.7133  0.0601  0.3244
  148SAPE    C116281   6.060   0.633   6.802  0.0291  0.2227 -0.2438
  148SAPE    HA16282   6.165   0.669   6.802 -0.5108  2.0125  2.2084
  148SAPE    HB16283   6.000   0.703   6.863  1.0144  0.2467  0.7296
  148SAPE    C216284   6.055   0.501   6.883 -0.3056  0.2318  0.1630
  148SAPE    HS16285   6.125   0.431   6.833  2.5827  1.0157  2.8009
  148SAPE   O2116286   5.923   0.448   6.901  0.3054  0.2391 -0.0978
  148SAPE   C2116287   5.883   0.351   6.816  0.0747 -0.5261  0.5558
  148SAPE   O2216288   5.943   0.313   6.716 -0.5571 -0.5348 -0.0936
  148SAPE   C2216289   5.740   0.315   6.849 -0.2629  0.3124 -0.2180
  148SAPE   H2R16290   5.699   0.403   6.903  0.3065  1.2129 -1.2041
  148SAPE   H2S16291   5.689   0.311   6.750 -0.9191 -3.7489  0.1164
  148SAPE    C316292   6.114   0.524   7.029  0.2175 -0.1620  0.1903
  148SAPE    HX16293   6.034   0.576   7.084 -0.7152 -0.6389 -0.6929
  148SAPE    HY16294   6.203   0.590   7.017 -0.5488  0.8443 -0.0041
  148SAPE   O3116295   6.158   0.409   7.113  0.3427 -0.0334 -0.1353
  148SAPE   C3116296   6.280   0.367   7.089 -0.1584 -1.0055 -0.3459
  148SAPE   O3216297   6.365   0.421   7.018  0.1508  0.7599 -0.3201
  148SAPE   C3216298   6.306   0.254   7.180  0.1279  0.0173 -0.0219
  148SAPE   H2X16299   6.397   0.202   7.144 -0.1187 -0.4019 -0.0377
  148SAPE   H2Y16300   6.218   0.187   7.187  1.5637 -1.9117  0.5398
  148SAPE   C2316301   5.740   0.181   6.918  0.1731 -0.2651 -0.0321
  148SAPE   H3R16302   5.808   0.106   6.871 -0.6095 -0.8384 -0.2650
  148SAPE   H3S16303   5.642   0.129   6.914  0.4016 -0.8504  1.4638
  148SAPE   C2416304   5.783   0.200   7.071  0.8282  0.2535  0.1319
  148SAPE   H4R16305   5.719   0.275   7.122 -1.4932 -1.5873  0.0856
  148SAPE   H4S16306   5.891   0.226   7.071  0.9593 -0.2786  0.2259
  148SAPE   C2516307   5.758   0.062   7.143 -0.0388 -0.2799  0.8683
  148SAPE   H5R16308   5.696  -0.014   7.092  0.5526 -1.4999  1.9051
  148SAPE   C2616309   5.795   0.016   7.261 -0.2904 -0.2949 -0.5518
  148SAPE   H6R16310   5.760  -0.080   7.301 -0.0926  0.1131  0.6561
  148SAPE   C2716311   5.870   0.096   7.368  0.4001 -0.0937 -0.1700
  148SAPE   H7R16312   5.806   0.126   7.454  1.0350 -1.1545  0.7065
  148SAPE   H7S16313   5.912   0.185   7.317 -0.9602 -0.2401 -1.5978
  148SAPE   C2816314   5.983   0.012   7.423  0.5680 -0.4422 -0.2489
  148SAPE   H8R16315   6.051  -0.022   7.343 -1.1905  0.8444 -2.4248
  148SAPE   C2916316   6.009  -0.006   7.556 -0.1444  0.1853  0.1248
  148SAPE   H9R16317   6.092  -0.073   7.585  0.2576  0.5267 -0.2162
  148SAPE  C21016318   5.938   0.052   7.671  0.1145  0.1512 -0.2470
  148SAPE  H10R16319   5.837   0.006   7.665  1.5732 -3.5239  0.0908
  148SAPE  H10S16320   5.916   0.160   7.669  1.0000  0.3243 -1.4929
  148SAPE  C21116321   6.001   0.032   7.812  0.1649  0.4138 -0.4210
  148SAPE  H11R16322   6.087   0.090   7.847 -0.4476  0.2427  1.5310
  148SAPE  C21216323   5.953  -0.056   7.908  0.1700  0.1689  0.6893
  148SAPE  H12R16324   6.005  -0.063   8.005 -0.9810  0.4228  1.3470
  148SAPE  C21316325   5.839  -0.151   7.877  0.3761 -0.2113 -0.2660
  148SAPE  H13R16326   5.836  -0.182   7.771  3.5863  0.7846 -0.7443
  148SAPE  H13S16327   5.747  -0.092   7.897 -0.4525 -0.8675 -1.9547
  148SAPE  C21416328   5.838  -0.273   7.960 -0.4617  0.9706  0.4506
  148SAPE  H14R16329   5.890  -0.362   7.922 -0.9297  0.6489  0.5601
  148SAPE  C21516330   5.771  -0.294   8.074  0.1336  0.3670 -0.4531
  148SAPE  H15R16331   5.769  -0.399   8.107 -1.2029 -0.1020 -1.8983
  148SAPE  C21616332   5.692  -0.179   8.140  0.2595  0.9541  0.5627
  148SAPE  H16R16333   5.585  -0.178   8.113 -0.0561 -1.6078  1.4551
  148SAPE  H16S16334   5.742  -0.084   8.112  1.5358  0.7998  2.1399
  148SAPE  C21716335   5.686  -0.194   8.298 -0.8516 -0.5704 -0.1771
  148SAPE  H17R16336   5.645  -0.104   8.349 -1.4645 -0.8913 -0.0875
  148SAPE  H17S16337   5.795  -0.186   8.317 -1.0305  1.5589  0.1585
  148SAPE  C21816338   5.637  -0.327   8.349 -0.2064 -0.9126 -1.5688
  148SAPE  H18R16339   5.665  -0.328   8.457 -0.3277  0.2707 -1.5230
  148SAPE  H18S16340   5.695  -0.404   8.293 -0.5676  0.3241 -3.7495
  148SAPE  C21916341   5.483  -0.332   8.328  0.2907 -0.6358 -0.1528
  148SAPE  H19R16342   5.459  -0.304   8.223  0.0698 -2.4937 -0.6297
  148SAPE  H19S16343   5.442  -0.259   8.400  1.4539  0.6636 -0.7596
  148SAPE  C22016344   5.434  -0.474   8.362 -1.1901 -0.2438  0.1666
  148SAPE  H20R16345   5.515  -0.549   8.345 -1.0123  0.6222 -3.9961
  148SAPE  H20S16346   5.365  -0.521   8.288  0.8524 -3.5834  0.1764
  148SAPE  H20T16347   5.395  -0.478   8.465 -0.8570  0.9332  0.3501
  148SAPE   C3316348   6.327   0.299   7.328 -0.0002  0.6773 -0.1161
  148SAPE   H3X16349   6.409   0.370   7.351  0.4431 -0.1088  0.7805
  148SAPE   H3Y16350   6.359   0.203   7.373 -0.2735  0.2066 -0.9126
  148SAPE   C3416351   6.206   0.330   7.411  0.3467 -0.1712  0.0143
  148SAPE   H4X16352   6.248   0.328   7.514 -0.4452 -2.0844  0.3377
  148SAPE   H4Y16353   6.124   0.256   7.414 -0.9924  1.2645  2.3147
  148SAPE   C3516354   6.161   0.474   7.399 -0.6516  0.3029  0.1394
  148SAPE   H5X16355   6.073   0.473   7.332  0.4770 -0.3741 -1.4048
  148SAPE   H5Y16356   6.236   0.533   7.343 -2.5225  2.1347 -0.5342
  148SAPE   C3616357   6.136   0.539   7.533 -0.7130  0.8702  0.4130
  148SAPE   H6X16358   6.090   0.639   7.513 -3.3648 -0.6430 -1.7584
  148SAPE   H6Y16359   6.231   0.549   7.590  0.4495  1.1362 -1.4646
  148SAPE   C3716360   6.038   0.465   7.619 -0.4077  0.7486 -0.2390
  148SAPE   H7X16361   6.093   0.372   7.644  0.8316  0.9172 -2.1281
  148SAPE   H7Y16362   5.943   0.433   7.570  0.4315 -1.5410 -0.4626
  148SAPE   C3816363   6.005   0.533   7.750  0.5168  0.2238  0.3305
  148SAPE   H8X16364   5.968   0.637   7.736 -2.6511 -0.3789  3.0735
  148SAPE   H8Y16365   6.089   0.541   7.822  2.4253 -1.4223 -1.6019
  148SAPE   C3916366   5.884   0.462   7.811  0.1647 -0.2550 -0.8101
  148SAPE   H9X16367   5.924   0.359   7.826  0.5179 -0.1638 -1.1027
  148SAPE   H9Y16368   5.795   0.459   7.746 -1.2515  1.5640  0.9148
  148SAPE  C31016369   5.862   0.514   7.958  0.3994 -0.2182  0.6627
  148SAPE  H10X16370   5.954   0.566   7.993 -0.7391  1.1428  1.7503
  148SAPE  H10Y16371   5.824   0.440   8.031 -1.7287 -0.7352 -0.8649
  148SAPE  C31116372   5.759   0.627   7.959  0.3979 -0.0329 -0.3866
  148SAPE  H11X16373   5.656   0.589   7.942  1.1248 -1.6774 -1.2983
  148SAPE  H11Y16374   5.793   0.700   7.883  2.1720 -0.0015  0.3838
  148SAPE  C31216375   5.760   0.702   8.094 -0.6327 -0.2975  0.1886
  148SAPE  H12X16376   5.696   0.792   8.078 -1.3696 -0.6201  1.2061
  148SAPE  H12Y16377   5.861   0.742   8.117 -0.7150  0.6171 -0.9314
  148SAPE  C31316378   5.714   0.622   8.210  0.4986  0.4132  0.0412
  148SAPE  H13X16379   5.781   0.534   8.214 -0.0831 -0.1913 -2.0918
  148SAPE  H13Y16380   5.607   0.593   8.204  0.2276  1.3613  0.1415
  148SAPE  C31416381   5.736   0.700   8.345  0.3220  0.2829  0.3411
  148SAPE  H14X16382   5.689   0.799   8.330 -2.1620 -1.0634 -1.6538
  148SAPE  H14Y16383   5.842   0.717   8.372  0.2805 -0.5597  1.1108
  148SAPE  C31516384   5.670   0.616   8.453 -0.0883 -0.0076  0.2419
  148SAPE  H15X16385   5.572   0.576   8.420  0.9142 -0.6905 -2.1214
  148SAPE  H15Y16386   5.649   0.679   8.542  0.6365  1.6159 -0.6902
  148SAPE  C31616387   5.764   0.497   8.486 -0.1528  0.1599 -0.4099
  148SAPE  H16X16388   5.860   0.544   8.515  1.4272 -2.2636 -1.3521
  148SAPE  H16Y16389   5.776   0.433   8.396  1.7400 -1.5524  0.9552
  148SAPE  C31716390   5.714   0.414   8.592  0.2770 -0.0554 -0.2946
  148SAPE  H17X16391   5.632   0.354   8.547  0.6571 -2.8406  2.3831
  148SAPE  H17Y16392   5.662   0.462   8.677 -0.6395 -2.7224  0.7796
  148SAPE  C31816393   5.827   0.317   8.647  1.0372 -0.0629 -0.9448
  148SAPE  H18X16394   5.800   0.223   8.595  0.9434 -1.1539  0.9799
  148SAPE  H18Y16395   5.806   0.306   8.756  3.3718  1.6363 -0.2363
  148SAPE  H18Z16396   5.924   0.363   8.619 -0.0234  1.2560 -2.6707
  149SAPE     N16397   6.021   2.819   6.334 -0.1711  0.0503  0.3586
  149SAPE   HN116398   6.059   2.728   6.302  0.6411  0.8653 -1.0829
  149SAPE   HN216399   5.963   2.804   6.419 -2.5311  2.5642 -0.6399
  149SAPE   HN316400   5.964   2.863   6.259 -0.1994  0.1950  0.4652
  149SAPE   C1216401   6.145   2.900   6.361  0.6579  0.2230  0.3774
  149SAPE  H12A16402   6.196   2.926   6.265 -1.0886 -3.4468 -1.7842
  149SAPE  H12B16403   6.214   2.835   6.418  3.3905  0.3717 -2.4809
  149SAPE   C1116404   6.101   3.030   6.439 -0.6347 -0.2280  0.1757
  149SAPE  H11A16405   6.191   3.084   6.474 -0.6230 -0.8881  1.2217
  149SAPE  H11B16406   6.051   3.004   6.535  0.0931 -4.2174 -0.3542
  149SAPE     P16407   5.874   3.114   6.329  0.4381  0.5233  0.0178
  149SAPE   O1316408   5.831   3.255   6.323  0.0322  0.3527  0.4257
  149SAPE   O1416409   5.852   3.027   6.213 -0.5392 -0.5675 -0.6427
  149SAPE   O1216410   6.032   3.111   6.349 -0.3492  0.0903 -0.4550
  149SAPE   O1116411   5.816   3.046   6.449  0.1730  0.0555  0.2536
  149SAPE    C116412   5.738   3.110   6.555 -0.6135 -0.4401  0.3795
  149SAPE    HA16413   5.680   3.196   6.515 -0.7409 -0.7781 -0.1694
  149SAPE    HB16414   5.663   3.034   6.584 -0.0273 -1.3868 -0.5049
  149SAPE    C216415   5.817   3.160   6.677  0.3014  0.4507  0.5967
  149SAPE    HS16416   5.908   3.212   6.642  1.9502 -1.9332  1.1743
  149SAPE   O2116417   5.854   3.040   6.753 -0.2935  0.5275  1.1771
  149SAPE   C2116418   5.958   3.074   6.832  0.3620 -0.0030  0.4782
  149SAPE   O2216419   6.009   3.187   6.837 -0.0482 -0.5617  0.5137
  149SAPE   C2216420   5.978   2.972   6.936 -0.1773  0.4649 -0.5254
  149SAPE   H2R16421   5.991   2.872   6.890 -2.1424  0.7096 -1.7524
  149SAPE   H2S16422   6.072   3.000   6.987 -0.7302 -0.0254  0.8088
  149SAPE    C316423   5.734   3.258   6.769 -0.0062  0.1488  0.3751
  149SAPE    HX16424   5.710   3.353   6.717 -1.0129  0.4672  1.3938
  149SAPE    HY16425   5.803   3.288   6.851 -0.0070  0.1781  0.3652
  149SAPE   O3116426   5.612   3.191   6.826 -0.2625  0.1965  0.0493
  149SAPE   C3116427   5.496   3.218   6.765 -0.2394 -0.7129  0.0676
  149SAPE   O3216428   5.479   3.301   6.675 -0.5979 -0.3183 -0.1003
  149SAPE   C3216429   5.384   3.137   6.828 -0.1474  0.4661 -0.2580
  149SAPE   H2X16430   5.393   3.127   6.938 -1.7487 -0.1966 -0.1723
  149SAPE   H2Y16431   5.404   3.038   6.782  0.4346 -0.3562  1.6588
  149SAPE   C2316432   5.869   2.967   7.045 -0.0190  0.0989  0.1632
  149SAPE   H3R16433   5.880   2.874   7.105 -0.7368  0.0813  0.2715
  149SAPE   H3S16434   5.772   2.963   6.991 -0.1491 -1.8560  0.4523
  149SAPE   C2416435   5.870   3.088   7.140 -0.3453 -0.0999 -0.3027
  149SAPE   H4R16436   5.901   3.177   7.081  2.5983 -0.3401  0.7266
  149SAPE   H4S16437   5.952   3.075   7.215 -1.8400 -2.7555  1.0350
  149SAPE   C2516438   5.736   3.124   7.203 -0.6325 -0.2722 -0.0865
  149SAPE   H5R16439   5.658   3.175   7.145 -2.4620 -2.5727  0.2365
  149SAPE   C2616440   5.715   3.116   7.338  0.2007 -0.0491  0.6048
  149SAPE   H6R16441   5.619   3.156   7.373 -0.0827 -1.1035  1.0674
  149SAPE   C2716442   5.805   3.069   7.451 -0.0053  0.7112  0.0731
  149SAPE   H7R16443   5.868   3.154   7.484 -0.9248  1.2203  0.5491
  149SAPE   H7S16444   5.882   2.994   7.424 -1.7139 -0.0169 -3.4678
  149SAPE   C2816445   5.729   3.014   7.566 -0.0146 -0.3285  0.3747
  149SAPE   H8R16446   5.744   2.905   7.572  1.7484 -0.0811  0.8055
  149SAPE   C2916447   5.677   3.085   7.669  0.2965 -0.0142 -0.2236
  149SAPE   H9R16448   5.638   3.028   7.754 -0.8738  1.4387  0.2527
  149SAPE  C21016449   5.677   3.236   7.691 -0.3624 -0.0807  0.6479
  149SAPE  H10R16450   5.695   3.276   7.589 -1.6102 -1.0272  0.0320
  149SAPE  H10S16451   5.751   3.261   7.770 -0.7705 -1.6782  1.5740
  149SAPE  C21116452   5.535   3.273   7.719 -0.0054 -0.0390 -0.1406
  149SAPE  H11R16453   5.476   3.291   7.628  1.4130  1.3939 -0.8284
  149SAPE  C21216454   5.486   3.304   7.842 -0.3682  0.0642  0.2511
  149SAPE  H12R16455   5.383   3.344   7.845 -0.2848  0.2636  0.4467
  149SAPE  C21316456   5.559   3.303   7.974  0.3367  0.4611  0.3109
  149SAPE  H13R16457   5.668   3.291   7.956 -0.2497 -0.7955 -3.2406
  149SAPE  H13S16458   5.529   3.218   8.040  0.0310 -1.4719 -2.1821
  149SAPE  C21416459   5.558   3.427   8.056  1.1718 -1.0053  0.4524
  149SAPE  H14R16460   5.544   3.522   8.002  2.7134 -0.2043  1.3924
  149SAPE  C21516461   5.579   3.440   8.185 -1.3165  0.3192 -0.0256
  149SAPE  H15R16462   5.561   3.537   8.233 -3.6697 -1.0723  2.1400
  149SAPE  C21616463   5.603   3.336   8.290  0.1456  0.2267 -0.4977
  149SAPE  H16R16464   5.703   3.365   8.328  0.1353 -1.8763  1.3307
  149SAPE  H16S16465   5.598   3.234   8.246  1.2477 -0.2850  0.5244
  149SAPE  C21716466   5.513   3.337   8.416  0.2359 -0.9145 -0.4200
  149SAPE  H17R16467   5.537   3.433   8.468 -0.1105 -0.4159 -1.1623
  149SAPE  H17S16468   5.549   3.267   8.495  2.7415  0.0870 -0.5843
  149SAPE  C21816469   5.362   3.328   8.396  0.4405  0.2903  0.4514
  149SAPE  H18R16470   5.336   3.424   8.346  0.6001 -1.3129 -3.0620
  149SAPE  H18S16471   5.309   3.331   8.493 -2.5164 -0.5662 -1.0165
  149SAPE  C21916472   5.314   3.203   8.317  0.0063  0.0738 -0.5080
  149SAPE  H19R16473   5.334   3.113   8.380  0.1792 -0.5471 -1.4392
  149SAPE  H19S16474   5.360   3.195   8.217 -0.0737 -1.6741 -0.4278
  149SAPE  C22016475   5.157   3.206   8.309  0.5538 -0.0478  0.6006
  149SAPE  H20R16476   5.126   3.293   8.247 -2.9524 -1.9220 -0.5583
  149SAPE  H20S16477   5.113   3.231   8.408 -0.2073  0.5444  0.1250
  149SAPE  H20T16478   5.120   3.108   8.273  2.1113 -0.0816 -1.1040
  149SAPE   C3316479   5.240   3.193   6.795 -0.0938  0.4576  0.5147
  149SAPE   H3X16480   5.216   3.183   6.687 -1.9113 -0.4176  0.9719
  149SAPE   H3Y16481   5.231   3.299   6.826  0.6315  0.1740  1.7604
  149SAPE   C3416482   5.134   3.112   6.874  0.8599 -0.1219  0.5895
  149SAPE   H4X16483   5.149   3.111   6.984 -0.8012  0.2432  0.8508
  149SAPE   H4Y16484   5.127   3.006   6.840  2.4611 -0.3916  1.0350
  149SAPE   C3516485   4.989   3.168   6.851  0.3696  0.0161  0.5771
  149SAPE   H5X16486   4.983   3.223   6.755 -0.8625 -2.1851 -0.7070
  149SAPE   H5Y16487   4.975   3.247   6.928  1.8366  0.9060 -0.0453
  149SAPE   C3616488   4.881   3.060   6.858  0.1436  1.6196  0.5166
  149SAPE   H6X16489   4.913   2.988   6.780 -2.6473  0.5612  0.2090
  149SAPE   H6Y16490   4.778   3.094   6.833 -0.7841 -0.3898  1.4162
  149SAPE   C3716491   4.871   2.991   7.002 -0.3737  0.6992  0.2724
  149SAPE   H7X16492   4.971   2.944   7.012 -1.2670 -1.3798 -0.0356
  149SAPE   H7Y16493   4.802   2.904   6.998  1.3884 -0.7193 -0.4159
  149SAPE   C3816494   4.852   3.081   7.126  0.1869  0.1896 -0.7442
  149SAPE   H8X16495   4.760   3.142   7.119 -0.2116 -0.1991  0.7832
  149SAPE   H8Y16496   4.937   3.152   7.137  0.3266 -0.0342 -0.3734
  149SAPE   C3916497   4.833   2.996   7.256 -0.4196  0.7007 -1.1728
  149SAPE   H9X16498   4.902   2.911   7.274 -3.7408 -1.7828  1.1249
  149SAPE   H9Y16499   4.736   2.941   7.246  1.1079 -2.2549 -0.8696
  149SAPE  C31016500   4.825   3.087   7.377 -0.3787  0.3917 -0.2057
  149SAPE  H10X16501   4.752   3.166   7.347 -0.8109 -0.3256 -1.1040
  149SAPE  H10Y16502   4.919   3.140   7.351  0.4171 -1.0407 -0.3457
  149SAPE  C31116503   4.822   3.022   7.510 -0.4121 -0.5693  0.3897
  149SAPE  H11X16504   4.902   2.945   7.509 -0.1679 -0.3219 -1.2980
  149SAPE  H11Y16505   4.724   2.980   7.542 -0.8638 -0.0106 -0.2239
  149SAPE  C31216506   4.852   3.125   7.620  0.6814  0.5310 -0.1389
  149SAPE  H12X16507   4.799   3.222   7.609 -0.7909 -0.4381 -2.1423
  149SAPE  H12Y16508   4.961   3.146   7.613  0.4701  1.4081 -0.9302
  149SAPE  C31316509   4.829   3.073   7.759 -1.0306 -0.6239 -0.0649
  149SAPE  H13X16510   4.902   2.990   7.771  1.9464  2.0138  1.9369
  149SAPE  H13Y16511   4.735   3.016   7.772  0.3493 -2.8450  0.8694
  149SAPE  C31416512   4.850   3.165   7.883  0.4160 -0.2336  0.0902
  149SAPE  H14X16513   4.794   3.259   7.869 -0.2778 -0.3957  1.6219
  149SAPE  H14Y16514   4.960   3.185   7.880  0.2342  0.9604  0.8850
  149SAPE  C31516515   4.795   3.112   8.016 -0.3057 -0.8127  0.1966
  149SAPE  H15X16516   4.847   3.020   8.049 -1.3130 -1.5922 -0.3542
  149SAPE  H15Y16517   4.690   3.082   8.000 -1.4501  3.0611 -0.5502
  149SAPE  C31616518   4.809   3.230   8.116  0.4192  0.1211  0.1232
  149SAPE  H16X16519   4.749   3.313   8.074 -0.5538 -0.3403  0.5852
  149SAPE  H16Y16520   4.914   3.266   8.124  0.0916  1.1605 -0.0637
  149SAPE  C31716521   4.756   3.197   8.260  0.1079  0.3998 -0.2071
  149SAPE  H17X16522   4.797   3.100   8.294  0.6985  0.4023 -0.8864
  149SAPE  H17Y16523   4.646   3.191   8.246 -0.0291  1.1036  0.4986
  149SAPE  C31816524   4.786   3.300   8.372 -0.0707  0.4007  1.1121
  149SAPE  H18X16525   4.894   3.289   8.399 -0.0767 -0.0458  0.9750
  149SAPE  H18Y16526   4.722   3.280   8.461  0.0045 -0.8523  0.9111
  149SAPE  H18Z16527   4.763   3.398   8.327 -0.6039 -0.4545 -0.5533
  150SAPE     N16528   5.790   2.146   6.194 -0.0651  0.0506  0.3730
  150SAPE   HN116529   5.751   2.158   6.099 -0.5942  0.1939  0.6030
  150SAPE   HN216530   5.792   2.232   6.253  0.4305 -0.1843  0.7117
  150SAPE   HN316531   5.885   2.105   6.182 -0.5011 -0.4987 -1.4196
  150SAPE   C1216532   5.704   2.039   6.258  0.3756 -0.1297 -0.1563
  150SAPE  H12A16533   5.764   2.013   6.348 -0.0030  0.8077  0.3855
  150SAPE  H12B16534   5.700   1.948   6.194  0.4884  0.6181 -1.2521
  150SAPE   C1116535   5.561   2.078   6.289  0.4541 -0.0233  0.2338
  150SAPE  H11A16536   5.551   2.152   6.371 -1.0415  0.2528 -0.1706
  150SAPE  H11B16537   5.498   1.998   6.334 -2.2694  1.8991  0.1408
  150SAPE     P16538   5.397   2.229   6.147 -0.1744 -0.2320  0.1200
  150SAPE   O1316539   5.484   2.345   6.127 -0.0355 -0.5333 -0.3774
  150SAPE   O1416540   5.306   2.179   6.037 -0.0993 -0.3897  0.5378
  150SAPE   O1216541   5.499   2.113   6.168  0.0785  0.3391 -0.8575
  150SAPE   O1116542   5.304   2.242   6.273  0.3897  0.2583  0.1996
  150SAPE    C116543   5.224   2.125   6.307  0.5781 -0.0987  0.5636
  150SAPE    HA16544   5.136   2.137   6.240  0.6125  0.1724  0.5659
  150SAPE    HB16545   5.276   2.030   6.283  2.0804  0.3855  1.7374
  150SAPE    C216546   5.185   2.120   6.456 -0.3733 -0.2371  0.1901
  150SAPE    HS16547   5.156   2.222   6.488 -0.0027 -0.1636  0.2910
  150SAPE   O2116548   5.309   2.083   6.524 -0.0722 -0.1255 -0.8879
  150SAPE   C2116549   5.308   2.100   6.650 -0.2482  0.3824  0.0801
  150SAPE   O2216550   5.226   2.171   6.715 -0.6271 -0.0546  0.7209
  150SAPE   C2216551   5.435   2.021   6.709 -0.2004  0.6709  0.7882
  150SAPE   H2R16552   5.413   1.913   6.693 -0.9025  0.8436  0.5368
  150SAPE   H2S16553   5.524   2.052   6.651 -1.1859  1.3640 -0.3977
  150SAPE    C316554   5.067   2.022   6.471 -0.2912 -0.2560 -0.4019
  150SAPE    HX16555   5.106   1.919   6.455 -0.6515 -0.5773  0.7048
  150SAPE    HY16556   4.995   2.040   6.388 -0.6266  1.4934  0.2246
  150SAPE   O3116557   4.997   2.017   6.600 -0.0025 -0.1465  0.3700
  150SAPE   C3116558   4.904   2.108   6.615 -0.2944 -0.4657  0.0498
  150SAPE   O3216559   4.870   2.195   6.535  0.2252 -0.4034  0.2826
  150SAPE   C3216560   4.840   2.090   6.752  0.5572  0.1203  0.5586
  150SAPE   H2X16561   4.918   2.049   6.820  0.4435  0.1238  0.6914
  150SAPE   H2Y16562   4.764   2.010   6.740 -0.6064  1.0864  1.3358
  150SAPE   C2316563   5.475   2.065   6.851 -0.4709  0.5330 -0.0212
  150SAPE   H3R16564   5.510   2.169   6.863  1.1957 -0.0694  0.5424
  150SAPE   H3S16565   5.570   2.016   6.881 -0.9498 -0.0687  0.5664
  150SAPE   C2416566   5.373   2.024   6.958  0.5186 -0.0450  0.6250
  150SAPE   H4R16567   5.278   2.079   6.942  0.6363 -0.5635 -2.4358
  150SAPE   H4S16568   5.407   2.048   7.061 -1.8686 -0.3631  1.5520
  150SAPE   C2516569   5.333   1.877   6.948  0.1091 -0.0095  0.5868
  150SAPE   H5R16570   5.273   1.842   6.864  1.4687 -3.0165  0.7327
  150SAPE   C2616571   5.374   1.787   7.042  0.4867 -0.7005  0.5286
  150SAPE   H6R16572   5.347   1.681   7.031  0.7092 -0.6935 -0.1279
  150SAPE   C2716573   5.454   1.801   7.169  0.1030 -0.1226  0.6645
  150SAPE   H7R16574   5.397   1.771   7.260 -0.1291  1.3407  1.0310
  150SAPE   H7S16575   5.476   1.907   7.191 -0.7136  0.6146 -1.6936
  150SAPE   C2816576   5.580   1.726   7.169 -0.0833 -0.4050  0.5836
  150SAPE   H8R16577   5.633   1.741   7.074 -1.5360  0.4639 -0.1238
  150SAPE   C2916578   5.643   1.649   7.259 -0.0837  0.2811  0.6550
  150SAPE   H9R16579   5.744   1.615   7.232 -0.4118  1.3856 -2.3303
  150SAPE  C21016580   5.611   1.613   7.406  0.0582 -0.0783  0.3182
  150SAPE  H10R16581   5.626   1.702   7.471 -0.5692  0.0053  0.3537
  150SAPE  H10S16582   5.685   1.534   7.432 -0.7453 -1.2195 -0.7899
  150SAPE  C21116583   5.472   1.559   7.430  0.1194 -0.0116  0.7824
  150SAPE  H11R16584   5.395   1.579   7.355  1.8905 -2.8898 -2.0412
  150SAPE  C21216585   5.439   1.481   7.535 -0.1773  0.3978 -0.0785
  150SAPE  H12R16586   5.337   1.441   7.537 -1.6989  3.8284 -1.3820
  150SAPE  C21316587   5.525   1.423   7.649 -0.0201  0.8192 -0.3166
  150SAPE  H13R16588   5.613   1.479   7.685  0.2939 -0.2880  0.7419
  150SAPE  H13S16589   5.564   1.330   7.602 -1.2403 -0.8729  1.7794
  150SAPE  C21416590   5.445   1.388   7.774 -0.5303  0.9591 -0.0680
  150SAPE  H14R16591   5.419   1.281   7.784  1.9997  0.2929  0.2170
  150SAPE  C21516592   5.393   1.469   7.870 -0.1990  0.6625  0.1141
  150SAPE  H15R16593   5.340   1.421   7.954 -0.2793  0.9539  0.2310
  150SAPE  C21616594   5.413   1.613   7.862  0.1757  0.1081  0.0886
  150SAPE  H16R16595   5.495   1.646   7.794 -0.8787 -0.5163 -1.5485
  150SAPE  H16S16596   5.447   1.645   7.963 -3.1222 -1.0634  1.7041
  150SAPE  C21716597   5.285   1.692   7.819  0.0568 -0.1496 -0.9274
  150SAPE  H17R16598   5.236   1.641   7.733  0.0144  1.0256 -1.6300
  150SAPE  H17S16599   5.310   1.795   7.784 -0.6576  0.8010  1.2398
  150SAPE  C21816600   5.177   1.694   7.929 -0.3264 -0.3921 -0.9344
  150SAPE  H18R16601   5.172   1.600   7.989 -3.0009  1.0935  1.4249
  150SAPE  H18S16602   5.075   1.709   7.888 -0.1126  2.3546 -0.6221
  150SAPE  C21916603   5.197   1.807   8.033 -0.3898  0.3423 -0.2909
  150SAPE  H19R16604   5.213   1.903   7.979 -0.9018  0.7944  0.3450
  150SAPE  H19S16605   5.282   1.776   8.097 -0.5787  1.1193  0.3662
  150SAPE  C22016606   5.082   1.828   8.128 -0.2913 -0.1514 -0.3275
  150SAPE  H20R16607   5.119   1.865   8.226 -0.7826  0.8386 -0.5004
  150SAPE  H20S16608   5.035   1.732   8.159 -1.3376 -0.0274 -1.4503
  150SAPE  H20T16609   4.998   1.885   8.083 -1.2142 -0.7797  0.5398
  150SAPE   C3316610   4.775   2.216   6.806  0.2076 -0.0369 -0.6171
  150SAPE   H3X16611   4.819   2.309   6.764  0.2775  0.5071  0.5869
  150SAPE   H3Y16612   4.805   2.230   6.912  2.1306 -1.5833 -0.9064
  150SAPE   C3416613   4.622   2.215   6.788  0.0581 -0.1985  0.1741
  150SAPE   H4X16614   4.610   2.190   6.680  0.6083 -2.7412  0.6390
  150SAPE   H4Y16615   4.579   2.316   6.803 -1.5029 -0.6596 -0.9532
  150SAPE   C3516616   4.560   2.112   6.887  0.4157 -0.1600 -0.1207
  150SAPE   H5X16617   4.629   2.025   6.900  3.4098  2.2409  1.2299
  150SAPE   H5Y16618   4.476   2.059   6.837  0.8846 -2.0238  0.9702
  150SAPE   C3616619   4.521   2.173   7.026 -0.8867  0.6436  0.5651
  150SAPE   H6X16620   4.434   2.239   7.010 -1.1114  0.7846  2.1899
  150SAPE   H6Y16621   4.611   2.228   7.061 -0.1356  0.8319 -1.5158
  150SAPE   C3716622   4.491   2.067   7.129  0.0430 -0.1669 -0.3148
  150SAPE   H7X16623   4.580   1.999   7.132  0.9957  1.0527 -0.1702
  150SAPE   H7Y16624   4.392   2.021   7.111 -0.2291  0.1323  0.4149
  150SAPE   C3816625   4.484   2.130   7.272  0.6053  0.7114 -0.2089
  150SAPE   H8X16626   4.439   2.041   7.321  1.3512 -1.0864 -2.5411
  150SAPE   H8Y16627   4.421   2.221   7.264 -0.3600 -0.0956 -3.6296
  150SAPE   C3916628   4.620   2.157   7.344  0.3549 -0.1946  0.2925
  150SAPE   H9X16629   4.686   2.225   7.286 -0.0335  0.4888  0.6409
  150SAPE   H9Y16630   4.674   2.064   7.372  0.3228 -0.0594  0.8114
  150SAPE  C31016631   4.611   2.237   7.483 -0.5467  0.1656 -0.0704
  150SAPE  H10X16632   4.601   2.343   7.452  0.2715  0.2922  0.0657
  150SAPE  H10Y16633   4.710   2.220   7.530 -0.0168  1.7597 -0.5667
  150SAPE  C31116634   4.504   2.182   7.566 -0.1702  1.0078  0.3630
  150SAPE  H11X16635   4.496   2.071   7.561  0.5939  0.9912 -0.8069
  150SAPE  H11Y16636   4.407   2.226   7.534 -0.4587  0.0255 -0.1659
  150SAPE  C31216637   4.524   2.211   7.712 -0.5148 -0.3016 -0.1790
  150SAPE  H12X16638   4.620   2.171   7.752 -0.2100  1.0961  0.5409
  150SAPE  H12Y16639   4.445   2.159   7.769  0.2094  1.9665  3.2075
  150SAPE  C31316640   4.517   2.356   7.756  0.5360  1.2141  0.1141
  150SAPE  H13X16641   4.414   2.393   7.737 -0.6289 -1.2460  1.2023
  150SAPE  H13Y16642   4.587   2.415   7.693 -0.8437  3.4566  0.5541
  150SAPE  C31416643   4.550   2.371   7.906  0.4322  0.8861  0.2320
  150SAPE  H14X16644   4.538   2.479   7.929 -1.8628  0.4400  1.3985
  150SAPE  H14Y16645   4.656   2.343   7.921  0.3164 -1.9496 -3.0029
  150SAPE  C31516646   4.447   2.303   8.004 -0.5799 -0.0794 -0.5375
  150SAPE  H15X16647   4.448   2.193   7.988  2.4152 -0.0794 -0.9859
  150SAPE  H15Y16648   4.346   2.342   7.980 -0.8543  0.0063  0.6738
  150SAPE  C31616649   4.473   2.335   8.150  0.3652  0.2531  0.5211
  150SAPE  H16X16650   4.460   2.445   8.144  1.2435  0.3166 -0.5352
  150SAPE  H16Y16651   4.576   2.310   8.183  1.4127  0.4496 -2.3228
  150SAPE  C31716652   4.360   2.279   8.238  0.5000  0.6913 -0.0005
  150SAPE  H17X16653   4.357   2.172   8.209  0.9157  0.1769  1.7873
  150SAPE  H17Y16654   4.260   2.323   8.216 -0.7595 -0.3416  3.2034
  150SAPE  C31816655   4.377   2.306   8.385  0.3358  0.3898 -0.2915
  150SAPE  H18X16656   4.284   2.306   8.445  0.1159 -0.9836 -0.5928
  150SAPE  H18Y16657   4.429   2.404   8.384  0.9317  0.1466 -3.4190
  150SAPE  H18Z16658   4.459   2.247   8.432  1.5270  1.5869 -0.8086
  151SAPE     N16659   2.818   1.209   6.070 -0.7588 -0.5444  0.1627
  151SAPE   HN116660   2.887   1.267   6.019 -0.4984 -1.1905 -0.2379
  151SAPE   HN216661   2.818   1.115   6.025  0.4504  0.3724 -1.8690
  151SAPE   HN316662   2.723   1.242   6.044 -0.0831  1.5843  0.2293
  151SAPE   C1216663   2.849   1.194   6.218 -0.1133  0.2393 -0.3003
  151SAPE  H12A16664   2.814   1.288   6.267  0.0126 -0.4594  1.1887
  151SAPE  H12B16665   2.957   1.171   6.219 -0.1837 -0.0978 -0.4488
  151SAPE   C1116666   2.782   1.070   6.278 -0.5019 -0.4612  1.1351
  151SAPE  H11A16667   2.790   1.058   6.388 -0.3904  1.4496  1.3574
  151SAPE  H11B16668   2.832   0.985   6.226 -1.7708  0.5631 -2.0432
  151SAPE     P16669   2.571   0.911   6.239 -0.1240  0.0194  0.0830
  151SAPE   O1316670   2.498   0.889   6.114 -0.0665 -0.8556 -0.6869
  151SAPE   O1416671   2.675   0.803   6.256  0.5996  0.6297  0.0957
  151SAPE   O1216672   2.643   1.052   6.239 -0.9053  0.5895 -0.3620
  151SAPE   O1116673   2.473   0.905   6.362 -0.2135  0.4839 -0.0170
  151SAPE    C116674   2.402   1.033   6.399 -0.1686  0.4667  0.0141
  151SAPE    HA16675   2.363   1.086   6.309  0.8875  4.0386  1.4914
  151SAPE    HB16676   2.311   1.001   6.454 -0.8447 -1.7798 -2.2123
  151SAPE    C216677   2.483   1.120   6.498 -0.2903  0.2221 -0.0984
  151SAPE    HS16678   2.574   1.159   6.449 -1.4021  3.1921  0.0105
  151SAPE   O2116679   2.506   1.043   6.624  0.3770 -0.5584  0.3812
  151SAPE   C2116680   2.590   1.095   6.711 -0.2410  0.3615  0.3834
  151SAPE   O2216681   2.661   1.189   6.685 -0.2301 -0.6327  0.3704
  151SAPE   C2216682   2.582   1.018   6.838  0.5879  0.0538  0.0587
  151SAPE   H2R16683   2.476   0.997   6.863  0.2046  0.5927 -1.0599
  151SAPE   H2S16684   2.633   0.921   6.820  0.7977  0.1293  0.2391
  151SAPE    C316685   2.400   1.250   6.522 -0.1167 -0.2947  0.1985
  151SAPE    HX16686   2.411   1.329   6.445  1.2661  1.6234  2.2413
  151SAPE    HY16687   2.448   1.295   6.611 -1.1046 -1.8679  1.5890
  151SAPE   O3116688   2.263   1.212   6.547 -0.5011 -0.2602  0.1561
  151SAPE   C3116689   2.223   1.210   6.673  0.0569  0.4448  0.4005
  151SAPE   O3216690   2.293   1.229   6.770  0.2264  0.2703 -0.3108
  151SAPE   C3216691   2.088   1.149   6.679 -0.1775  0.2746  0.2365
  151SAPE   H2X16692   2.110   1.042   6.695  0.1561  0.3929  0.5633
  151SAPE   H2Y16693   2.051   1.155   6.574  2.5245 -1.3846 -0.9085
  151SAPE   C2316694   2.647   1.098   6.949 -0.0838 -0.3470 -0.2879
  151SAPE   H3R16695   2.742   1.144   6.915  0.3482 -1.0547 -0.0520
  151SAPE   H3S16696   2.684   1.040   7.036  0.0791  0.6364  0.3233
  151SAPE   C2416697   2.569   1.227   7.000  0.1573  0.1873 -0.2715
  151SAPE   H4R16698   2.530   1.283   6.912  3.2643  0.0648 -1.8691
  151SAPE   H4S16699   2.641   1.285   7.061 -0.7197  0.9773  0.0278
  151SAPE   C2516700   2.457   1.171   7.080  0.8541 -0.2111 -0.6110
  151SAPE   H5R16701   2.369   1.139   7.022 -1.0527  2.1261  0.8227
  151SAPE   C2616702   2.448   1.156   7.214 -0.3753  0.5014 -0.0487
  151SAPE   H6R16703   2.359   1.113   7.263  1.5151 -1.2598  2.1028
  151SAPE   C2716704   2.554   1.199   7.320  0.7593 -0.0935  0.0408
  151SAPE   H7R16705   2.510   1.280   7.383  0.8627 -1.1981  1.5786
  151SAPE   H7S16706   2.643   1.243   7.270 -0.3705  1.6852 -0.5221
  151SAPE   C2816707   2.596   1.086   7.415 -0.2490  0.4238  0.1186
  151SAPE   H8R16708   2.664   1.014   7.367  1.0181  2.2744 -1.0052
  151SAPE   C2916709   2.576   1.083   7.552 -0.7866  0.7168  0.4300
  151SAPE   H9R16710   2.618   1.002   7.613 -0.2252  0.0715 -0.7785
  151SAPE  C21016711   2.505   1.185   7.641 -0.0531 -0.0957  0.4022
  151SAPE  H10R16712   2.514   1.281   7.587  1.6293 -0.4614 -0.0273
  151SAPE  H10S16713   2.559   1.197   7.737 -1.7264  0.9032  1.2687
  151SAPE  C21116714   2.361   1.154   7.665 -0.2370  0.7845  0.3853
  151SAPE  H11R16715   2.297   1.185   7.581 -0.4645  0.2417  0.3531
  151SAPE  C21216716   2.307   1.099   7.775  0.9341  0.2331  0.2736
  151SAPE  H12R16717   2.198   1.086   7.778  1.2729 -3.5297  1.1795
  151SAPE  C21316718   2.377   1.055   7.901  0.8843 -0.1717  0.3359
  151SAPE  H13R16719   2.315   1.066   7.993  0.3373  2.0337 -0.2468
  151SAPE  H13S16720   2.463   1.118   7.930 -0.3243  0.1042  3.8588
  151SAPE  C21416721   2.420   0.912   7.887  0.6424  0.1537  0.1775
  151SAPE  H14R16722   2.464   0.884   7.791 -0.0021  0.4839 -0.2214
  151SAPE  C21516723   2.411   0.822   7.991  0.1050 -0.2416  0.2559
  151SAPE  H15R16724   2.448   0.719   7.979  0.7751 -0.0784  0.8492
  151SAPE  C21616725   2.372   0.840   8.137  0.0315 -0.0931  0.2068
  151SAPE  H16R16726   2.352   0.736   8.172  1.5933 -0.1329  1.1008
  151SAPE  H16S16727   2.276   0.886   8.167 -0.1905 -0.6900  0.4229
  151SAPE  C21716728   2.486   0.892   8.218  0.1299  0.1859 -0.6483
  151SAPE  H17R16729   2.514   0.994   8.185  0.1221  0.9611  1.5834
  151SAPE  H17S16730   2.574   0.824   8.209 -0.1020 -0.3254  0.7074
  151SAPE  C21816731   2.447   0.908   8.365 -0.2811 -0.5528 -0.3383
  151SAPE  H18R16732   2.435   0.804   8.400 -1.3583 -0.4665 -0.4342
  151SAPE  H18S16733   2.352   0.965   8.371  1.1735  1.9287  1.5196
  151SAPE  C21916734   2.545   0.996   8.438 -0.3345 -0.1010  0.9931
  151SAPE  H19R16735   2.544   1.095   8.387 -0.4329 -0.4059  0.3938
  151SAPE  H19S16736   2.644   0.948   8.420 -0.2092 -1.2943  4.2603
  151SAPE  C22016737   2.528   1.013   8.591 -0.3653  0.4754 -0.0311
  151SAPE  H20R16738   2.549   0.919   8.647 -0.4250  0.7695  0.4906
  151SAPE  H20S16739   2.588   1.096   8.633  0.1737 -0.2605  0.6856
  151SAPE  H20T16740   2.425   1.050   8.610 -0.2954  0.1602  1.0322
  151SAPE   C3316741   1.984   1.210   6.778  0.1967  0.3614  0.0356
  151SAPE   H3X16742   1.877   1.181   6.768 -0.2582  1.7753  0.5123
  151SAPE   H3Y16743   1.982   1.321   6.777  0.8198  0.3972 -2.0830
  151SAPE   C3416744   2.018   1.180   6.927 -0.9556  0.7143  0.6735
  151SAPE   H4X16745   2.128   1.194   6.939 -0.2896 -1.3519 -2.1366
  151SAPE   H4Y16746   2.004   1.074   6.958  0.3498  0.0500 -0.8727
  151SAPE   C3516747   1.944   1.276   7.026 -0.2938 -0.0044 -0.0588
  151SAPE   H5X16748   1.835   1.260   7.041 -0.6849  0.9597 -1.5683
  151SAPE   H5Y16749   1.952   1.379   6.987  0.3561  0.1346  0.4376
  151SAPE   C3616750   2.003   1.280   7.171  0.3441  0.4129 -0.6795
  151SAPE   H6X16751   2.095   1.342   7.176  0.1514  0.5859  1.6039
  151SAPE   H6Y16752   2.044   1.180   7.198 -1.2684  0.0935  0.7526
  151SAPE   C3716753   1.908   1.335   7.277  0.5067  0.2878 -0.4921
  151SAPE   H7X16754   1.804   1.295   7.274 -0.6408  2.9906  0.2382
  151SAPE   H7Y16755   1.893   1.445   7.271 -1.4260  0.0329 -0.8960
  151SAPE   C3816756   1.957   1.304   7.429  0.8561 -0.1343  0.9949
  151SAPE   H8X16757   2.052   1.357   7.451  0.3226  0.0526  3.1031
  151SAPE   H8Y16758   1.963   1.193   7.427 -1.9752 -0.3509  0.2361
  151SAPE   C3916759   1.850   1.340   7.529  0.4941 -0.5908 -0.7613
  151SAPE   H9X16760   1.760   1.279   7.506 -0.4636  0.6521 -0.4201
  151SAPE   H9Y16761   1.822   1.446   7.511  1.7095 -0.2253 -0.6055
  151SAPE  C31016762   1.905   1.318   7.672  0.0529 -0.0125  0.2817
  151SAPE  H10X16763   1.952   1.217   7.673 -3.1909 -1.6503 -0.5245
  151SAPE  H10Y16764   1.820   1.315   7.744 -1.5893 -1.4170 -1.6253
  151SAPE  C31116765   2.010   1.423   7.719 -0.5123  0.2576  0.1537
  151SAPE  H11X16766   1.979   1.530   7.711 -1.8677 -0.2165 -1.9273
  151SAPE  H11Y16767   2.092   1.405   7.647 -1.1458  1.2635 -0.8604
  151SAPE  C31216768   2.057   1.389   7.856  0.1783 -0.0148 -0.1078
  151SAPE  H12X16769   2.074   1.281   7.872 -1.6245 -0.2857  0.0886
  151SAPE  H12Y16770   1.979   1.411   7.931 -0.1177 -2.3515  0.3346
  151SAPE  C31316771   2.190   1.457   7.889  0.2466 -0.5219  0.2040
  151SAPE  H13X16772   2.189   1.558   7.845  0.6928 -2.0458 -3.7217
  151SAPE  H13Y16773   2.276   1.414   7.833 -0.1387  2.2497 -2.7765
  151SAPE  C31416774   2.224   1.458   8.039  0.0254  0.4633  0.1678
  151SAPE  H14X16775   2.134   1.488   8.097 -0.6606 -2.0534  0.5529
  151SAPE  H14Y16776   2.306   1.532   8.051  0.5894  0.2843 -2.2287
  151SAPE  C31516777   2.270   1.318   8.091 -0.4693  0.5461 -0.0026
  151SAPE  H15X16778   2.358   1.282   8.034 -0.0349  2.2228 -0.4285
  151SAPE  H15Y16779   2.189   1.247   8.063  0.7289 -0.5591 -0.7843
  151SAPE  C31616780   2.296   1.296   8.244 -0.4399  0.1991  0.2595
  151SAPE  H16X16781   2.389   1.350   8.271  1.1912 -0.7826 -2.8371
  151SAPE  H16Y16782   2.309   1.186   8.254  0.1752  0.2319 -0.1276
  151SAPE  C31716783   2.183   1.345   8.344 -0.3483 -0.3149  0.0510
  151SAPE  H17X16784   2.090   1.284   8.339 -1.0470  0.7901 -0.7676
  151SAPE  H17Y16785   2.154   1.449   8.319  0.7821 -0.3835 -1.6991
  151SAPE  C31816786   2.242   1.335   8.484  0.2818 -0.4210 -0.8776
  151SAPE  H18X16787   2.316   1.253   8.497 -2.3388 -3.0625 -1.5600
  151SAPE  H18Y16788   2.166   1.330   8.565  1.4745 -0.0445  0.3192
  151SAPE  H18Z16789   2.288   1.434   8.505  1.8538 -1.6456  2.0864
  152SAPE     N16790   0.453   2.134   6.112  0.2600 -0.3079 -0.0849
  152SAPE   HN116791   0.527   2.203   6.136 -0.4065  0.1994  0.5585
  152SAPE   HN216792   0.498   2.041   6.105 -0.9328 -0.9796  0.7458
  152SAPE   HN316793   0.420   2.163   6.018  0.8115 -2.2060 -0.8991
  152SAPE   C1216794   0.337   2.130   6.205 -0.2573  0.3037 -0.2740
  152SAPE  H12A16795   0.284   2.226   6.187  0.2633  0.8010  0.7373
  152SAPE  H12B16796   0.375   2.137   6.309  0.2032  0.7511 -0.4619
  152SAPE   C1116797   0.252   2.012   6.168  0.1232  0.4054 -0.3757
  152SAPE  H11A16798   0.314   1.923   6.146 -1.1505 -0.4745 -0.4935
  152SAPE  H11B16799   0.200   2.024   6.070  1.5856  1.0983 -1.1053
  152SAPE     P16800   0.035   2.057   6.307  0.0851  0.0230  0.2893
  152SAPE   O1316801   0.073   2.200   6.285  0.4109 -0.1326  0.1402
  152SAPE   O1416802  -0.073   2.002   6.226  0.0536  0.4958 -0.0921
  152SAPE   O1216803   0.165   1.972   6.277  0.4041 -0.1878  0.0382
  152SAPE   O1116804   0.023   2.034   6.463  0.2404 -0.1928  0.3595
  152SAPE    C116805  -0.088   2.077   6.551  0.5783 -0.5649  0.0369
  152SAPE    HA16806  -0.162   2.140   6.497 -0.4249 -1.5890  0.1675
  152SAPE    HB16807  -0.129   1.984   6.597  0.9337 -1.3698 -1.2178
  152SAPE    C216808  -0.049   2.173   6.669  0.3305 -0.6476  0.5415
  152SAPE    HS16809   0.005   2.260   6.627  0.6055 -1.5396 -1.0372
  152SAPE   O2116810   0.029   2.106   6.769  0.0150 -0.0353  0.6729
  152SAPE   C2116811   0.107   2.184   6.846 -0.0251 -0.6539 -0.3391
  152SAPE   O2216812   0.103   2.307   6.845  0.6019  0.4026  0.5223
  152SAPE   C2216813   0.174   2.088   6.945  0.2039  0.3518 -0.5806
  152SAPE   H2R16814   0.098   2.014   6.977  0.6043 -0.4758 -1.4868
  152SAPE   H2S16815   0.258   2.045   6.887  0.1315  1.5383 -1.6098
  152SAPE    C316816  -0.183   2.236   6.736 -1.1764 -0.5791  0.2351
  152SAPE    HX16817  -0.231   2.278   6.645 -1.3431 -2.6576 -0.7142
  152SAPE    HY16818  -0.156   2.319   6.805 -0.7293 -1.1958  0.8182
  152SAPE   O3116819  -0.265   2.136   6.801 -0.6402  0.5718  0.0662
  152SAPE   C3116820  -0.251   2.125   6.937 -1.1318  0.1807  0.0016
  152SAPE   O3216821  -0.161   2.186   6.995  0.4563 -0.3466 -0.2343
  152SAPE   C3216822  -0.355   2.026   7.005 -0.4875 -0.1750  0.4461
  152SAPE   H2X16823  -0.291   1.940   7.036 -0.3127 -0.2192 -0.0268
  152SAPE   H2Y16824  -0.416   1.989   6.920  0.3504  0.1932 -0.3364
  152SAPE   C2316825   0.205   2.158   7.085 -0.4726  0.2047 -0.1032
  152SAPE   H3R16826   0.117   2.218   7.118 -1.9230 -1.0094 -1.5798
  152SAPE   H3S16827   0.301   2.212   7.066  0.6824 -2.0341 -0.9452
  152SAPE   C2416828   0.233   2.057   7.197  0.0850 -0.0728 -0.3030
  152SAPE   H4R16829   0.290   1.968   7.162  0.7016 -0.2025  1.0147
  152SAPE   H4S16830   0.139   2.002   7.220 -0.1670  0.4986  0.0400
  152SAPE   C2516831   0.282   2.115   7.326  0.8246 -0.8416  0.6738
  152SAPE   H5R16832   0.377   2.169   7.315 -0.8990  2.6621  1.6962
  152SAPE   C2616833   0.219   2.119   7.441 -0.2089 -0.7763 -0.9611
  152SAPE   H6R16834   0.262   2.171   7.527 -1.2726 -1.8979  0.2983
  152SAPE   C2716835   0.082   2.053   7.477  0.2020 -0.5639 -0.5466
  152SAPE   H7R16836   0.017   2.045   7.388  1.7497  0.0462 -1.7608
  152SAPE   H7S16837   0.021   2.111   7.550  0.5907 -0.4141 -0.3359
  152SAPE   C2816838   0.102   1.916   7.538 -0.5309 -0.2767  0.3622
  152SAPE   H8R16839   0.167   1.854   7.474 -0.5260  1.6610 -1.6143
  152SAPE   C2916840   0.058   1.870   7.658 -0.1260 -1.1327 -0.1282
  152SAPE   H9R16841   0.071   1.764   7.682 -0.6920 -0.5156  3.4605
  152SAPE  C21016842  -0.030   1.954   7.748  0.5340  0.2477  0.1560
  152SAPE  H10R16843  -0.129   1.920   7.712  0.9327  1.7233 -2.6222
  152SAPE  H10S16844  -0.020   2.064   7.740 -1.4049  0.5623  1.3672
  152SAPE  C21116845  -0.023   1.908   7.889  0.3510  0.4904  0.3809
  152SAPE  H11R16846   0.029   1.811   7.898 -1.1541 -0.5011 -0.9994
  152SAPE  C21216847  -0.067   1.971   8.002 -0.0111 -0.1203 -0.4650
  152SAPE  H12R16848  -0.062   1.927   8.103  1.1202  0.3152 -0.3193
  152SAPE  C21316849  -0.149   2.100   8.008 -0.1520 -0.2561  0.1019
  152SAPE  H13R16850  -0.250   2.068   8.041  0.0198 -0.1213  0.7738
  152SAPE  H13S16851  -0.161   2.143   7.907 -0.0541  0.2933  0.3184
  152SAPE  C21416852  -0.074   2.208   8.088  0.5121  0.5141 -0.0021
  152SAPE  H14R16853   0.004   2.259   8.029 -1.4673  1.9950 -1.4499
  152SAPE  C21516854  -0.101   2.251   8.214 -0.1260 -0.6187  0.4691
  152SAPE  H15R16855  -0.041   2.331   8.261  1.3426 -0.7235 -1.1558
  152SAPE  C21616856  -0.210   2.189   8.299 -0.4365  0.0958 -0.8435
  152SAPE  H16R16857  -0.159   2.142   8.385  0.1092 -1.4926 -1.9843
  152SAPE  H16S16858  -0.251   2.101   8.245  2.7441 -1.0683 -1.5639
  152SAPE  C21716859  -0.329   2.281   8.331  1.0000 -0.3293 -0.4651
  152SAPE  H17R16860  -0.381   2.312   8.237  0.7279 -0.5476 -0.3892
  152SAPE  H17S16861  -0.294   2.375   8.378  1.0128 -1.1427  1.2239
  152SAPE  C21816862  -0.421   2.212   8.435 -0.3385 -0.4003 -0.2879
  152SAPE  H18R16863  -0.439   2.107   8.403  1.3405  0.0395 -2.9502
  152SAPE  H18S16864  -0.520   2.261   8.446  0.1596  0.0563  3.2879
  152SAPE  C21916865  -0.347   2.214   8.565 -0.4069  0.3530 -0.2769
  152SAPE  H19R16866  -0.319   2.321   8.580  0.5441  0.2046 -0.9239
  152SAPE  H19S16867  -0.249   2.164   8.570  0.0492  1.2094 -0.4229
  152SAPE  C22016868  -0.429   2.161   8.682 -0.3375 -0.2389 -0.2074
  152SAPE  H20R16869  -0.371   2.100   8.753 -0.7258 -0.2626  0.0900
  152SAPE  H20S16870  -0.517   2.100   8.654 -0.4282  0.0347 -0.5363
  152SAPE  H20T16871  -0.458   2.243   8.751 -0.3392 -0.9388  0.6352
  152SAPE   C3316872  -0.441   2.064   7.128 -0.8504  0.2422  0.4561
  152SAPE   H3X16873  -0.382   2.049   7.220 -1.7233 -0.7894  0.8738
  152SAPE   H3Y16874  -0.524   1.991   7.140  1.3963 -2.4124  0.8702
  152SAPE   C3416875  -0.507   2.203   7.117 -0.5212  0.1637  0.8496
  152SAPE   H4X16876  -0.525   2.222   7.009  0.4554 -1.1322  0.4386
  152SAPE   H4Y16877  -0.437   2.281   7.156  0.7028  0.5250 -1.8425
  152SAPE   C3516878  -0.645   2.219   7.190 -0.2189  0.7203  0.4559
  152SAPE   H5X16879  -0.734   2.173   7.142 -0.8580 -0.0134  2.2802
  152SAPE   H5Y16880  -0.667   2.327   7.207  0.7470  1.3063 -1.5926
  152SAPE   C3616881  -0.654   2.153   7.330 -0.2270 -0.0625  0.5957
  152SAPE   H6X16882  -0.553   2.132   7.371 -0.6865  0.1650  1.8902
  152SAPE   H6Y16883  -0.709   2.057   7.322 -0.4428  0.1538 -0.7535
  152SAPE   C3716884  -0.728   2.250   7.420  0.3858  0.3943  0.4549
  152SAPE   H7X16885  -0.833   2.268   7.391  0.4120  0.8798  0.6476
  152SAPE   H7Y16886  -0.670   2.343   7.436  1.1770  0.2217 -1.1721
  152SAPE   C3816887  -0.738   2.191   7.560 -0.1689  0.0455  0.6149
  152SAPE   H8X16888  -0.642   2.138   7.573  0.6445  1.2501 -0.2997
  152SAPE   H8Y16889  -0.821   2.118   7.551  0.7707 -0.7684 -4.7229
  152SAPE   C3916890  -0.785   2.291   7.668  0.4933  0.0268 -0.2088
  152SAPE   H9X16891  -0.892   2.315   7.647 -0.2913 -1.7260  1.4840
  152SAPE   H9Y16892  -0.742   2.394   7.663 -1.0711  0.7960  1.1304
  152SAPE  C31016893  -0.774   2.253   7.811 -1.4377 -0.3887  0.3250
  152SAPE  H10X16894  -0.669   2.232   7.842 -0.6623  1.4768 -0.8765
  152SAPE  H10Y16895  -0.821   2.155   7.835  2.1196 -1.9466  1.7288
  152SAPE  C31116896  -0.841   2.356   7.896  0.7201 -0.0494 -0.0100
  152SAPE  H11X16897  -0.945   2.363   7.858  0.9797  0.5369 -0.6281
  152SAPE  H11Y16898  -0.799   2.457   7.874  2.2285 -1.4286 -4.3857
  152SAPE  C31216899  -0.838   2.309   8.040 -0.1237 -0.4057 -0.1161
  152SAPE  H12X16900  -0.878   2.394   8.100 -0.0564  0.7637 -1.6706
  152SAPE  H12Y16901  -0.729   2.295   8.055  0.2443  0.5767 -1.6093
  152SAPE  C31316902  -0.925   2.193   8.085 -0.1084  0.6289 -0.2173
  152SAPE  H13X16903  -0.905   2.099   8.031 -1.0634 -0.4237  1.1817
  152SAPE  H13Y16904  -1.036   2.207   8.080 -0.1940 -0.5120 -2.0181
  152SAPE  C31416905  -0.906   2.127   8.227  0.0761 -0.6300 -0.3830
  152SAPE  H14X16906  -0.799   2.100   8.240 -0.4590 -2.2615  0.9153
  152SAPE  H14Y16907  -0.960   2.031   8.223 -0.9467 -0.0942  0.2923
  152SAPE  C31516908  -0.941   2.218   8.338  0.3947 -0.1654 -0.2683
  152SAPE  H15X16909  -1.048   2.225   8.367  0.9860  2.1749  1.6917
  152SAPE  H15Y16910  -0.906   2.321   8.313 -0.2510 -0.1189 -1.0129
  152SAPE  C31616911  -0.863   2.199   8.470 -0.0153  0.7066  0.2053
  152SAPE  H16X16912  -0.758   2.232   8.451  0.4436 -1.0219 -0.4476
  152SAPE  H16Y16913  -0.867   2.091   8.496 -0.2272  1.0347  1.6098
  152SAPE  C31716914  -0.920   2.279   8.590  0.6468  0.0673  0.2726
  152SAPE  H17X16915  -1.017   2.229   8.614  1.1536 -0.9233  0.3161
  152SAPE  H17Y16916  -0.935   2.386   8.567 -0.1901 -0.1894 -0.4643
  152SAPE  C31816917  -0.836   2.277   8.721  0.0487  0.6299  0.2806
  152SAPE  H18X16918  -0.771   2.367   8.716  2.4110 -0.9745  0.4630
  152SAPE  H18Y16919  -0.763   2.195   8.703 -0.2057  0.2697  0.8624
  152SAPE  H18Z16920  -0.892   2.265   8.817  0.0619  2.1700  0.5002
  153SAPE     N16921   1.110   5.687   6.410 -0.0694 -0.1110 -0.0769
  153SAPE   HN116922   1.202   5.679   6.362 -0.0261  2.2450 -0.5081
  153SAPE   HN216923   1.033   5.680   6.341 -2.0905  0.1131  2.0485
  153SAPE   HN316924   1.112   5.781   6.454 -2.9847  0.4996 -1.0200
  153SAPE   C1216925   1.097   5.597   6.526 -0.8586  0.6844  0.4570
  153SAPE  H12A16926   0.987   5.577   6.534 -0.8216 -0.7675 -1.6230
  153SAPE  H12B16927   1.150   5.645   6.611  2.8966  0.0739 -1.3348
  153SAPE   C1116928   1.179   5.464   6.479  0.2573 -0.4819  0.3613
  153SAPE  H11A16929   1.183   5.392   6.564 -1.4834  2.4117  3.1302
  153SAPE  H11B16930   1.285   5.495   6.470 -0.3249  1.6021  0.1829
  153SAPE     P16931   1.185   5.317   6.254 -0.0077  0.2366  0.0397
  153SAPE   O1316932   1.073   5.238   6.193  0.0023  0.2042 -0.6171
  153SAPE   O1416933   1.256   5.400   6.154  0.6833 -0.0124  0.0997
  153SAPE   O1216934   1.116   5.415   6.361 -0.3654  0.0587  0.4192
  153SAPE   O1116935   1.275   5.226   6.345 -0.3223 -0.0590 -0.6954
  153SAPE    C116936   1.237   5.099   6.404 -0.5641  0.6199 -0.5403
  153SAPE    HA16937   1.139   5.059   6.369 -1.3380  2.6122 -0.7836
  153SAPE    HB16938   1.313   5.027   6.368 -1.8101 -0.5985 -0.8105
  153SAPE    C216939   1.251   5.098   6.563  0.3832  0.5581 -0.1917
  153SAPE    HS16940   1.246   4.991   6.594 -1.4939  0.4712 -0.7149
  153SAPE   O2116941   1.145   5.167   6.629 -0.7538  0.2077 -0.2365
  153SAPE   C2116942   1.030   5.117   6.611 -0.2126  0.8817  0.3048
  153SAPE   O2216943   1.004   5.006   6.567 -0.3440 -0.7304 -0.0002
  153SAPE   C2216944   0.913   5.201   6.661 -0.3169  0.6318 -0.6764
  153SAPE   H2R16945   0.850   5.214   6.571 -0.2424 -1.7491 -1.1269
  153SAPE   H2S16946   0.857   5.138   6.733  0.7026  1.2402  0.6971
  153SAPE    C316947   1.387   5.170   6.604 -0.0683 -0.6975 -0.6085
  153SAPE    HX16948   1.387   5.272   6.562  2.4881 -1.1102 -1.7907
  153SAPE    HY16949   1.468   5.106   6.563 -0.2859 -2.2417  1.1859
  153SAPE   O3116950   1.397   5.164   6.747  0.0362  0.3596  0.1304
  153SAPE   C3116951   1.353   5.269   6.813 -0.3249 -0.0524  0.2655
  153SAPE   O3216952   1.330   5.379   6.768 -0.0615  0.1126 -0.9385
  153SAPE   C3216953   1.345   5.244   6.960  0.6941 -0.3491  0.1157
  153SAPE   H2X16954   1.429   5.180   6.996 -0.7196 -1.4021  1.7191
  153SAPE   H2Y16955   1.256   5.183   6.986 -0.1538  0.8157 -0.0013
  153SAPE   C2316956   0.942   5.329   6.742 -0.4681  0.2388 -0.4406
  153SAPE   H3R16957   1.016   5.377   6.675  0.7698 -3.4984 -2.0280
  153SAPE   H3S16958   1.004   5.302   6.830  0.7543 -0.1265 -1.3905
  153SAPE   C2416959   0.814   5.409   6.773  0.4163  0.3983 -0.8139
  153SAPE   H4R16960   0.767   5.422   6.673 -0.7947  0.3959 -0.2574
  153SAPE   H4S16961   0.851   5.508   6.806 -0.4840  1.0823 -1.7958
  153SAPE   C2516962   0.720   5.338   6.867 -0.7715  0.2725 -0.0363
  153SAPE   H5R16963   0.639   5.284   6.816  0.6278 -1.2631 -0.7277
  153SAPE   C2616964   0.727   5.341   6.997  0.9174 -0.6782  0.5899
  153SAPE   H6R16965   0.637   5.307   7.050 -0.1889  0.1101 -0.7454
  153SAPE   C2716966   0.822   5.421   7.084 -0.0384 -0.6787  0.1606
  153SAPE   H7R16967   0.825   5.529   7.057  0.0703 -0.8201 -0.3927
  153SAPE   H7S16968   0.928   5.399   7.057 -0.2300 -1.1476 -0.2095
  153SAPE   C2816969   0.802   5.395   7.235  0.2466 -0.3947  0.4387
  153SAPE   H8R16970   0.805   5.290   7.269  2.2078  0.3049  2.7071
  153SAPE   C2916971   0.778   5.488   7.330 -0.4363 -0.1340 -0.1746
  153SAPE   H9R16972   0.794   5.453   7.433  1.0351  0.7684 -0.0749
  153SAPE  C21016973   0.757   5.635   7.307  0.0256 -0.0673  0.0243
  153SAPE  H10R16974   0.809   5.666   7.214 -1.4019  2.4487 -0.0142
  153SAPE  H10S16975   0.810   5.696   7.383  2.5789  0.0439 -1.7172
  153SAPE  C21116976   0.610   5.663   7.304 -0.2736 -0.8302  0.1063
  153SAPE  H11R16977   0.571   5.632   7.206  0.0023  1.0718 -0.6503
  153SAPE  C21216978   0.541   5.728   7.402  0.3526  0.0359 -0.1979
  153SAPE  H12R16979   0.436   5.755   7.384  0.5699  1.0607 -0.0041
  153SAPE  C21316980   0.591   5.789   7.533  0.4100 -0.0117 -0.3061
  153SAPE  H13R16981   0.503   5.831   7.586  0.0232  1.3269 -1.9163
  153SAPE  H13S16982   0.657   5.873   7.503  1.1453 -0.2343  0.6511
  153SAPE  C21416983   0.657   5.691   7.630 -0.4367  0.2298  0.3818
  153SAPE  H14R16984   0.765   5.702   7.647  0.0779 -0.3524 -2.1260
  153SAPE  C21516985   0.598   5.597   7.701  0.2265  0.6585 -0.4052
  153SAPE  H15R16986   0.653   5.531   7.770 -0.3547  0.1251 -0.4471
  153SAPE  C21616987   0.455   5.561   7.695 -0.1368 -0.5762 -0.0237
  153SAPE  H16R16988   0.438   5.452   7.685  1.6652 -1.2281  2.7232
  153SAPE  H16S16989   0.394   5.603   7.612 -0.4867 -0.2183  0.4118
  153SAPE  C21716990   0.386   5.602   7.818  1.0882 -0.3747 -0.9250
  153SAPE  H17R16991   0.407   5.707   7.849 -1.6971  0.5176 -1.7664
  153SAPE  H17S16992   0.423   5.543   7.905 -2.7821  0.5248  1.5992
  153SAPE  C21816993   0.226   5.568   7.823 -0.0774 -0.0798 -0.2865
  153SAPE  H18R16994   0.220   5.460   7.848  0.4259  0.1122  0.7669
  153SAPE  H18S16995   0.183   5.592   7.724 -0.1879  1.7238  0.1677
  153SAPE  C21916996   0.153   5.653   7.930 -0.4005 -0.0393 -0.0648
  153SAPE  H19R16997   0.042   5.649   7.929 -0.5655  2.4144  0.8768
  153SAPE  H19S16998   0.180   5.760   7.920  0.6369 -0.2786  0.0800
  153SAPE  C22016999   0.200   5.608   8.075  0.4755  0.6330  0.4148
  153SAPE  H20R17000   0.310   5.595   8.090 -0.0160 -1.2346  3.1004
  153SAPE  H20S17001   0.156   5.509   8.098  1.6978 -0.5675 -2.0461
  153SAPE  H20T17002   0.172   5.685   8.150  1.6565  0.1450  1.3937
  153SAPE   C3317003   1.340   5.369   7.052  0.0736 -0.3399 -0.7159
  153SAPE   H3X17004   1.432   5.430   7.037  0.4354 -0.6247  0.2300
  153SAPE   H3Y17005   1.350   5.326   7.154  2.0452  1.9704  0.1773
  153SAPE   C3417006   1.212   5.454   7.039 -0.2614  0.1070  0.2320
  153SAPE   H4X17007   1.127   5.386   7.017  0.3068 -0.6371  0.3106
  153SAPE   H4Y17008   1.232   5.520   6.952 -0.3122  0.0837  0.2024
  153SAPE   C3517009   1.183   5.539   7.162  0.8624  0.3932  0.0539
  153SAPE   H5X17010   1.279   5.553   7.217  1.3715 -0.4771 -0.5692
  153SAPE   H5Y17011   1.122   5.482   7.235  0.4271  1.6996  0.7326
  153SAPE   C3617012   1.125   5.672   7.126  0.0017 -0.0444  0.4126
  153SAPE   H6X17013   1.031   5.663   7.066 -1.3385 -0.3057  2.4506
  153SAPE   H6Y17014   1.209   5.724   7.075  0.2353  0.8732  1.7003
  153SAPE   C3717015   1.096   5.758   7.245  0.0439  0.3707  0.5873
  153SAPE   H7X17016   1.189   5.799   7.290  0.9191 -0.2166 -0.6121
  153SAPE   H7Y17017   1.047   5.688   7.316  1.7795 -1.6496 -0.0702
  153SAPE   C3817018   1.026   5.892   7.229 -0.1317  0.2324  0.9383
  153SAPE   H8X17019   0.919   5.875   7.204 -0.0687 -1.2853  1.5768
  153SAPE   H8Y17020   1.066   5.946   7.140 -0.3260 -0.3803  0.4680
  153SAPE   C3917021   1.040   5.979   7.358 -0.1808  1.0416 -0.4677
  153SAPE   H9X17022   1.013   6.078   7.316 -0.3813  0.2746 -2.2464
  153SAPE   H9Y17023   1.144   5.985   7.396 -0.5829  1.7702  0.5576
  153SAPE  C31017024   0.949   5.924   7.476 -0.1981  0.1888  0.9098
  153SAPE  H10X17025   0.994   5.828   7.511  1.3139 -0.4758 -2.4666
  153SAPE  H10Y17026   0.853   5.896   7.429  1.2287  0.2367 -2.2840
  153SAPE  C31117027   0.943   6.027   7.591  0.1174 -0.0670  0.2520
  153SAPE  H11X17028   0.897   6.124   7.562  1.3197  1.8435  4.0461
  153SAPE  H11Y17029   1.049   6.058   7.601 -0.1451  0.3921  1.8789
  153SAPE  C31217030   0.874   5.969   7.711 -0.2549 -0.7702 -0.0634
  153SAPE  H12X17031   0.906   5.867   7.742 -3.2131 -1.7360  0.1321
  153SAPE  H12Y17032   0.766   5.953   7.686 -0.5137  0.2958  0.3132
  153SAPE  C31317033   0.866   6.071   7.831 -0.2260  0.6731 -0.0739
  153SAPE  H13X17034   0.842   6.172   7.792  0.6558  0.8788 -0.0986
  153SAPE  H13Y17035   0.969   6.091   7.868  0.3186 -0.1135 -1.0749
  153SAPE  C31417036   0.771   6.016   7.942 -0.3651 -0.0848  0.6238
  153SAPE  H14X17037   0.819   5.925   7.983  0.1618  0.1489  0.5487
  153SAPE  H14Y17038   0.674   5.991   7.895 -0.1461  2.2114 -1.2696
  153SAPE  C31517039   0.757   6.125   8.055 -0.3870  0.5264 -0.5116
  153SAPE  H15X17040   0.727   6.219   8.004 -1.1445  0.5409 -0.0430
  153SAPE  H15Y17041   0.861   6.139   8.091 -0.5234 -0.4970  0.3139
  153SAPE  C31617042   0.674   6.087   8.174  0.0064 -0.0006 -0.1868
  153SAPE  H16X17043   0.722   5.995   8.213  1.5161  1.6054  1.9729
  153SAPE  H16Y17044   0.573   6.057   8.138  0.6355 -0.9239 -1.2715
  153SAPE  C31717045   0.681   6.194   8.282  0.5525 -0.2895 -0.1925
  153SAPE  H17X17046   0.618   6.160   8.368  0.1271  1.4007  0.2061
  153SAPE  H17Y17047   0.631   6.285   8.243  0.5453  1.2995  3.0917
  153SAPE  C31817048   0.811   6.233   8.338 -0.2548 -0.3323  0.6936
  153SAPE  H18X17049   0.795   6.315   8.411  0.8545 -0.5674  1.2136
  153SAPE  H18Y17050   0.889   6.262   8.265 -0.3124 -1.2147  0.2743
  153SAPE  H18Z17051   0.850   6.143   8.390  1.8612 -0.8907 -1.6874
  154SAPE     N17052   0.533   2.740   6.522  0.0931 -0.6933 -0.2007
  154SAPE   HN117053   0.485   2.653   6.490 -2.0474 -0.5097  2.2310
  154SAPE   HN217054   0.537   2.738   6.626 -2.2572 -0.0590 -0.0508
  154SAPE   HN317055   0.467   2.819   6.507  1.0697  0.3226  0.6932
  154SAPE   C1217056   0.665   2.755   6.463 -0.2204 -0.3383  0.2222
  154SAPE  H12A17057   0.730   2.816   6.529 -0.4296  0.5392 -0.3455
  154SAPE  H12B17058   0.665   2.814   6.368  2.3396 -0.5646  0.0110
  154SAPE   C1117059   0.736   2.620   6.433 -0.2966  0.1545  0.4635
  154SAPE  H11A17060   0.658   2.558   6.384 -0.4286  0.8657 -0.2410
  154SAPE  H11B17061   0.770   2.588   6.534 -0.9760  0.4382  0.7889
  154SAPE     P17062   0.894   2.513   6.239 -0.2720 -0.4301  0.0050
  154SAPE   O1317063   0.833   2.516   6.106  0.5194  0.2173  0.1587
  154SAPE   O1417064   1.040   2.516   6.248  0.1491  0.4428  0.2695
  154SAPE   O1217065   0.848   2.626   6.332  0.3233 -1.0458 -0.2608
  154SAPE   O1117066   0.826   2.387   6.308 -0.7137 -0.5091  0.3951
  154SAPE    C117067   0.895   2.268   6.350 -0.0839  0.0715  0.3272
  154SAPE    HA17068   0.836   2.176   6.329 -0.3738  0.4263 -0.4635
  154SAPE    HB17069   0.993   2.247   6.302  0.4400 -1.7769  2.0735
  154SAPE    C217070   0.921   2.281   6.497  0.8140  0.5222 -0.4616
  154SAPE    HS17071   0.976   2.373   6.526 -1.8004  2.0540  0.0089
  154SAPE   O2117072   0.991   2.161   6.535 -0.1221 -0.2478  0.3775
  154SAPE   C2117073   1.124   2.178   6.556  0.7284  0.5924 -0.4996
  154SAPE   O2217074   1.177   2.284   6.545 -0.9712  0.2846  0.1652
  154SAPE   C2217075   1.174   2.050   6.611 -0.8303 -0.2079 -0.0904
  154SAPE   H2R17076   1.143   1.963   6.549 -2.0623  0.9977 -1.2194
  154SAPE   H2S17077   1.285   2.049   6.614 -0.7676  1.3312 -1.0781
  154SAPE    C317078   0.791   2.271   6.594 -0.7611 -0.2487 -0.3132
  154SAPE    HX17079   0.749   2.169   6.582 -1.8492 -0.0567  1.4990
  154SAPE    HY17080   0.726   2.355   6.561  1.1334  1.5801  0.3751
  154SAPE   O3117081   0.832   2.286   6.735 -0.0817  0.2006 -0.3563
  154SAPE   C3117082   0.747   2.306   6.826  0.7486 -0.0719  0.4300
  154SAPE   O3217083   0.627   2.333   6.813  0.1275  0.3723 -0.3638
  154SAPE   C3217084   0.819   2.276   6.958 -0.0185  0.1157 -0.3058
  154SAPE   H2X17085   0.881   2.363   6.989 -1.7850  1.9260 -1.5736
  154SAPE   H2Y17086   0.883   2.187   6.937 -0.0170 -0.0245  0.2675
  154SAPE   C2317087   1.121   2.031   6.753 -0.2449  0.1894  0.2598
  154SAPE   H3R17088   1.010   2.033   6.746 -0.3289 -1.0123  0.9808
  154SAPE   H3S17089   1.158   2.114   6.818 -1.0910 -0.5387  1.7157
  154SAPE   C2417090   1.175   1.896   6.812  0.0399  0.0093 -0.2041
  154SAPE   H4R17091   1.281   1.917   6.840  0.9404 -2.3537 -1.4913
  154SAPE   H4S17092   1.180   1.814   6.736  0.6293 -0.8914  0.7672
  154SAPE   C2517093   1.090   1.856   6.934 -0.5180 -0.3146  0.0490
  154SAPE   H5R17094   1.024   1.770   6.919 -0.9942  0.1366 -0.4872
  154SAPE   C2617095   1.101   1.919   7.056 -0.2606  0.4459  0.5109
  154SAPE   H6R17096   1.042   1.878   7.139  1.0697 -3.7880 -0.4044
  154SAPE   C2717097   1.188   2.038   7.090 -0.1152 -0.4442 -0.3067
  154SAPE   H7R17098   1.142   2.137   7.113 -0.4569 -0.4683 -0.8737
  154SAPE   H7S17099   1.255   2.066   7.006 -0.3662 -1.6706 -0.9347
  154SAPE   C2817100   1.280   1.996   7.199 -0.2079 -0.4546  0.4978
  154SAPE   H8R17101   1.370   1.945   7.161 -1.3142 -1.6386 -0.6176
  154SAPE   C2917102   1.258   2.001   7.332  0.1151  0.2650 -0.7181
  154SAPE   H9R17103   1.345   1.965   7.389  0.3264  2.5866  0.5628
  154SAPE  C21017104   1.130   2.042   7.397 -0.7447 -0.8803 -0.3190
  154SAPE  H10R17105   1.057   2.071   7.319 -0.2055 -0.2754 -0.6161
  154SAPE  H10S17106   1.148   2.136   7.453 -0.2807 -1.5998  0.7854
  154SAPE  C21117107   1.067   1.933   7.486  1.2558 -0.7456  0.2348
  154SAPE  H11R17108   1.023   1.852   7.427  2.3022  1.3142 -3.7244
  154SAPE  C21217109   1.049   1.936   7.618  0.3796  0.6194  0.1778
  154SAPE  H12R17110   1.013   1.848   7.673 -1.2696  1.5090  0.5592
  154SAPE  C21317111   1.079   2.054   7.711 -0.3130 -0.5136  0.4326
  154SAPE  H13R17112   0.986   2.088   7.761  0.9756  0.4937  2.2560
  154SAPE  H13S17113   1.131   2.141   7.667 -0.5288 -0.2550  0.6831
  154SAPE  C21417114   1.177   2.016   7.821  0.0774  0.1688 -0.0388
  154SAPE  H14R17115   1.282   2.047   7.811 -0.1731  0.9895 -0.1937
  154SAPE  C21517116   1.145   1.944   7.930 -0.2060 -0.0039 -0.0619
  154SAPE  H15R17117   1.221   1.915   8.004  0.1401 -0.6965 -0.6820
  154SAPE  C21617118   1.011   1.884   7.973 -0.2355  0.5077  0.2476
  154SAPE  H16R17119   0.961   1.838   7.885 -0.4750 -0.6053  0.9455
  154SAPE  H16S17120   0.948   1.971   8.001  0.8566  1.6081 -0.6031
  154SAPE  C21717121   1.035   1.805   8.102 -0.1459  0.0413 -0.2986
  154SAPE  H17R17122   0.939   1.774   8.149  0.2037 -0.6587 -0.0378
  154SAPE  H17S17123   1.088   1.864   8.181  1.3590  0.5079 -1.5910
  154SAPE  C21817124   1.107   1.669   8.068 -0.7287  0.0001  0.2827
  154SAPE  H18R17125   1.210   1.691   8.033 -1.5293  1.7821 -1.1066
  154SAPE  H18S17126   1.050   1.621   7.985  2.3079 -0.7553 -1.5051
  154SAPE  C21917127   1.121   1.564   8.180  0.2824 -0.1854  0.5703
  154SAPE  H19R17128   1.025   1.525   8.218  0.6440 -2.3807 -0.5729
  154SAPE  H19S17129   1.166   1.624   8.262 -0.8022 -0.0519  1.0839
  154SAPE  C22017130   1.216   1.457   8.139  0.5550  0.7500  0.4861
  154SAPE  H20R17131   1.232   1.382   8.220  0.6263 -0.0090 -0.2072
  154SAPE  H20S17132   1.308   1.509   8.104  0.5592 -1.4826 -3.4993
  154SAPE  H20T17133   1.183   1.406   8.046  0.8994  0.1586  0.6763
  154SAPE   C3317134   0.722   2.251   7.077 -0.0828 -0.4584 -0.2175
  154SAPE   H3X17135   0.660   2.162   7.051 -0.9381  0.1720 -0.3795
  154SAPE   H3Y17136   0.655   2.339   7.084 -1.2620 -1.2420 -1.2891
  154SAPE   C3417137   0.796   2.223   7.209  0.4754 -1.1145  0.7038
  154SAPE   H4X17138   0.890   2.168   7.185  0.5767  0.4144 -2.9413
  154SAPE   H4Y17139   0.744   2.157   7.282 -2.5062  1.2224  0.8505
  154SAPE   C3517140   0.817   2.358   7.272  0.3246  0.0883  0.2038
  154SAPE   H5X17141   0.711   2.391   7.283  0.9203  1.4377  2.5561
  154SAPE   H5Y17142   0.877   2.421   7.203  0.3952 -0.1540  0.0434
  154SAPE   C3617143   0.877   2.343   7.405 -1.0145 -0.7605 -0.4149
  154SAPE   H6X17144   0.986   2.326   7.395 -1.1739 -1.3257 -1.2743
  154SAPE   H6Y17145   0.832   2.259   7.462  0.5422 -1.1732  0.2596
  154SAPE   C3717146   0.856   2.466   7.502 -0.4491 -0.4112  0.2545
  154SAPE   H7X17147   0.749   2.494   7.498 -0.3202  0.2611  1.1856
  154SAPE   H7Y17148   0.917   2.557   7.482  0.4250 -1.3789 -1.8914
  154SAPE   C3817149   0.897   2.432   7.649  0.2664  0.0991  0.5027
  154SAPE   H8X17150   0.912   2.525   7.708 -2.6405  0.8192  0.2883
  154SAPE   H8Y17151   0.985   2.365   7.638 -0.3926 -0.6572 -0.3861
  154SAPE   C3917152   0.788   2.352   7.723  0.7400  0.5508 -0.2111
  154SAPE   H9X17153   0.817   2.298   7.816 -2.8544  0.1779  0.8544
  154SAPE   H9Y17154   0.747   2.274   7.654  3.8623 -2.6076  1.1823
  154SAPE  C31017155   0.678   2.451   7.782 -0.5783 -0.3654  0.8032
  154SAPE  H10X17156   0.664   2.536   7.712  2.0030 -0.9006 -0.4854
  154SAPE  H10Y17157   0.722   2.509   7.866  2.0632 -1.1254  0.0479
  154SAPE  C31117158   0.546   2.390   7.826 -0.5993  0.5769 -0.7339
  154SAPE  H11X17159   0.580   2.298   7.877 -0.6569 -0.0423 -1.7876
  154SAPE  H11Y17160   0.489   2.364   7.734 -0.7608  0.0199 -0.4779
  154SAPE  C31217161   0.466   2.470   7.919  0.0381 -0.4773 -0.1703
  154SAPE  H12X17162   0.425   2.555   7.860 -0.3670  0.9468  2.0320
  154SAPE  H12Y17163   0.541   2.519   7.985  0.2546 -0.7888 -0.1830
  154SAPE  C31317164   0.373   2.410   8.028 -0.1420  0.1287 -0.8361
  154SAPE  H13X17165   0.426   2.328   8.081 -0.9230  1.6545  2.5811
  154SAPE  H13Y17166   0.280   2.369   7.983 -1.2924  0.7659  0.8732
  154SAPE  C31417167   0.311   2.523   8.118  0.5507 -0.1846  0.9454
  154SAPE  H14X17168   0.271   2.592   8.041 -0.0833 -0.3213  1.1427
  154SAPE  H14Y17169   0.396   2.573   8.169  0.4083  2.1590 -0.9378
  154SAPE  C31517170   0.200   2.479   8.210 -0.0576 -0.1653  0.6030
  154SAPE  H15X17171   0.131   2.414   8.152 -0.8195  0.0093  1.3026
  154SAPE  H15Y17172   0.140   2.568   8.240 -0.7075 -0.3728 -0.0611
  154SAPE  C31617173   0.248   2.415   8.342 -0.2743  0.1806  0.3978
  154SAPE  H16X17174   0.292   2.317   8.314 -0.7748 -0.5276  2.0154
  154SAPE  H16Y17175   0.158   2.383   8.398 -0.9340 -0.1334 -0.8042
  154SAPE  C31717176   0.324   2.507   8.429 -0.2087  0.6927 -0.4761
  154SAPE  H17X17177   0.296   2.614   8.437  2.0121  1.2052  1.2817
  154SAPE  H17Y17178   0.427   2.497   8.389 -0.4785 -0.2354 -0.9702
  154SAPE  C31817179   0.316   2.460   8.579 -0.9305  0.6429  0.3783
  154SAPE  H18X17180   0.332   2.351   8.597 -1.7481  0.7909  2.2456
  154SAPE  H18Y17181   0.223   2.498   8.627  0.3422  0.0463  3.6129
  154SAPE  H18Z17182   0.395   2.520   8.629 -0.0815  1.2826 -1.6399
  155SAPE     N17183   2.447   3.664   5.895 -0.1161 -0.1940 -0.0723
  155SAPE   HN117184   2.494   3.611   5.819  0.2518  1.4525 -1.0369
  155SAPE   HN217185   2.478   3.629   5.988 -2.2688 -0.1212  0.7343
  155SAPE   HN317186   2.345   3.642   5.897 -0.1720  0.1085  0.9219
  155SAPE   C1217187   2.461   3.809   5.875  0.3680 -0.4133  0.0240
  155SAPE  H12A17188   2.429   3.827   5.770 -0.7882 -3.1342 -0.1738
  155SAPE  H12B17189   2.568   3.834   5.892  0.4145 -0.7489  0.2260
  155SAPE   C1117190   2.376   3.880   5.984 -0.2814 -0.5922 -0.5865
  155SAPE  H11A17191   2.393   3.990   5.984 -0.1437 -0.6123 -0.2673
  155SAPE  H11B17192   2.408   3.858   6.088 -0.6974  0.5238 -0.2043
  155SAPE     P17193   2.127   3.939   6.024 -0.2269  0.0675  0.1405
  155SAPE   O1317194   2.193   4.063   6.075 -0.5533  0.4417 -0.0578
  155SAPE   O1417195   2.015   3.959   5.932  0.2560 -0.0402  0.4053
  155SAPE   O1217196   2.241   3.847   5.967 -0.3920 -0.3616  0.2874
  155SAPE   O1117197   2.071   3.867   6.149  0.8817 -0.2558 -0.1636
  155SAPE    C117198   2.095   3.731   6.185  0.1761  0.1209  0.1299
  155SAPE    HA17199   2.005   3.668   6.167 -0.3345  0.8922 -0.0365
  155SAPE    HB17200   2.174   3.688   6.120 -0.8101 -1.9064  0.1995
  155SAPE    C217201   2.142   3.718   6.330 -0.1278  0.3736  0.3100
  155SAPE    HS17202   2.175   3.613   6.349  1.6511  0.9802  0.7268
  155SAPE   O2117203   2.041   3.767   6.424  0.0777 -0.6941  0.3346
  155SAPE   C2117204   2.014   3.683   6.520  0.3248  0.0216  0.1670
  155SAPE   O2217205   2.046   3.564   6.524 -0.9051 -0.2180 -0.0545
  155SAPE   C2217206   1.949   3.757   6.636  0.5853 -0.1434 -0.6400
  155SAPE   H2R17207   2.030   3.778   6.709 -0.5300 -1.7339  1.1618
  155SAPE   H2S17208   1.891   3.847   6.607  1.2033  1.2053  2.0416
  155SAPE    C317209   2.267   3.802   6.357 -0.9636 -0.2772  0.1634
  155SAPE    HX17210   2.241   3.907   6.333  1.9117  0.1494 -1.5281
  155SAPE    HY17211   2.346   3.775   6.284  1.1926  2.2768  1.3925
  155SAPE   O3117212   2.313   3.780   6.500  0.4343  0.3625 -0.2753
  155SAPE   C3117213   2.372   3.668   6.527 -1.1026  0.2664 -0.5096
  155SAPE   O3217214   2.394   3.577   6.446 -0.3691 -0.7195 -0.6785
  155SAPE   C3217215   2.421   3.678   6.672 -0.1134  0.7404  0.5293
  155SAPE   H2X17216   2.331   3.676   6.737 -0.9496  0.5861 -0.5902
  155SAPE   H2Y17217   2.474   3.774   6.688 -0.1887  0.8311  0.2519
  155SAPE   C2317218   1.839   3.671   6.704 -0.5045  1.0660 -0.2844
  155SAPE   H3R17219   1.862   3.564   6.684  1.1939  1.5323 -1.0307
  155SAPE   H3S17220   1.746   3.691   6.647  0.9679 -0.1627 -3.3262
  155SAPE   C2417221   1.816   3.708   6.857  0.2024  0.5097  0.4780
  155SAPE   H4R17222   1.772   3.810   6.863  2.0168  1.4282 -0.9121
  155SAPE   H4S17223   1.915   3.707   6.908  0.6925 -0.0528 -0.4515
  155SAPE   C2517224   1.717   3.604   6.921 -0.2135  0.1165 -0.4604
  155SAPE   H5R17225   1.636   3.572   6.854 -0.1850 -0.4209 -0.2503
  155SAPE   C2617226   1.713   3.563   7.046  0.3376  0.1592 -0.2694
  155SAPE   H6R17227   1.638   3.488   7.076  0.5344  1.0291  2.7738
  155SAPE   C2717228   1.809   3.603   7.156  0.3822  0.3423 -0.0117
  155SAPE   H7R17229   1.912   3.618   7.117 -0.2392 -2.1673 -3.0183
  155SAPE   H7S17230   1.814   3.513   7.221  1.3541 -0.5743 -1.3039
  155SAPE   C2817231   1.762   3.723   7.232 -0.2790 -0.3807  0.7490
  155SAPE   H8R17232   1.716   3.798   7.166 -0.5424 -0.8608  0.3772
  155SAPE   C2917233   1.762   3.742   7.365 -0.3913 -0.6053  0.0099
  155SAPE   H9R17234   1.728   3.837   7.408 -2.3819 -0.8663 -0.8421
  155SAPE  C21017235   1.797   3.625   7.455 -0.3313 -0.6577 -0.1184
  155SAPE  H10R17236   1.879   3.563   7.411  2.1112  0.9020  1.9171
  155SAPE  H10S17237   1.709   3.558   7.465 -1.8797  1.0937 -1.4803
  155SAPE  C21117238   1.838   3.676   7.596 -0.0682  0.6885 -0.3174
  155SAPE  H11R17239   1.921   3.749   7.599 -1.1823  1.9514  2.1768
  155SAPE  C21217240   1.781   3.646   7.709  0.5638 -0.2582 -0.2851
  155SAPE  H12R17241   1.838   3.689   7.793 -0.0203  2.2655 -1.0743
  155SAPE  C21317242   1.664   3.562   7.736  0.3102 -0.3162  0.3024
  155SAPE  H13R17243   1.707   3.462   7.757 -0.5925 -0.6430  0.6080
  155SAPE  H13S17244   1.594   3.554   7.651  1.4177  1.6750 -0.9014
  155SAPE  C21417245   1.577   3.605   7.852  0.5402  0.5063 -0.0216
  155SAPE  H14R17246   1.479   3.646   7.823 -1.0458 -1.5187  2.1097
  155SAPE  C21517247   1.596   3.583   7.981  0.3717 -0.0210 -1.0517
  155SAPE  H15R17248   1.525   3.622   8.056  0.5822  1.2687 -1.5051
  155SAPE  C21617249   1.712   3.520   8.045 -0.0993  0.2971 -0.2178
  155SAPE  H16R17250   1.737   3.582   8.134 -2.2790  1.9577 -0.7016
  155SAPE  H16S17251   1.804   3.529   7.984  0.9874 -2.6949  0.7508
  155SAPE  C21717252   1.705   3.369   8.068  0.2124 -0.0314  0.0603
  155SAPE  H17R17253   1.796   3.324   8.112 -0.4438 -0.1658  1.3296
  155SAPE  H17S17254   1.696   3.319   7.969 -1.4246 -0.8223  0.5557
  155SAPE  C21817255   1.583   3.322   8.150  0.4104 -0.7141 -0.5018
  155SAPE  H18R17256   1.580   3.211   8.148 -0.1126 -0.7509  0.9109
  155SAPE  H18S17257   1.491   3.362   8.104  0.8741 -0.7504 -1.4716
  155SAPE  C21917258   1.591   3.357   8.302 -0.2879 -0.0262  0.5109
  155SAPE  H19R17259   1.594   3.467   8.314 -0.5068  0.2753 -1.6825
  155SAPE  H19S17260   1.689   3.322   8.340 -0.3559 -1.1467 -0.2806
  155SAPE  C22017261   1.478   3.301   8.391 -0.0507 -0.0830 -0.5754
  155SAPE  H20R17262   1.384   3.349   8.359 -0.3198 -0.6832 -0.6852
  155SAPE  H20S17263   1.501   3.326   8.497 -0.7217  0.0341 -0.4560
  155SAPE  H20T17264   1.469   3.191   8.379  0.8769 -0.2187 -0.1361
  155SAPE   C3317265   2.512   3.560   6.727  0.5654  0.6295  0.2866
  155SAPE   H3X17266   2.589   3.538   6.650 -0.1760 -0.9838 -0.0427
  155SAPE   H3Y17267   2.465   3.459   6.732  2.7352 -0.4934 -0.7956
  155SAPE   C3417268   2.588   3.594   6.854 -0.0039 -0.1572  0.4313
  155SAPE   H4X17269   2.656   3.680   6.840  0.9060 -1.0761 -1.1123
  155SAPE   H4Y17270   2.657   3.514   6.888  3.7431  1.8591 -1.7035
  155SAPE   C3517271   2.485   3.623   6.963 -0.3582  0.5733 -0.0064
  155SAPE   H5X17272   2.415   3.537   6.957 -1.0539  1.1314  0.1257
  155SAPE   H5Y17273   2.419   3.712   6.960 -0.0205  0.9222  1.9776
  155SAPE   C3617274   2.542   3.615   7.104 -0.0789 -0.2901  0.6273
  155SAPE   H6X17275   2.597   3.710   7.122  1.4284 -1.0586  0.2626
  155SAPE   H6Y17276   2.617   3.533   7.100  1.5386  1.1607  0.3424
  155SAPE   C3717277   2.446   3.570   7.211 -0.4539 -0.0490  0.6225
  155SAPE   H7X17278   2.503   3.575   7.306  3.2305 -1.4898 -1.2752
  155SAPE   H7Y17279   2.397   3.471   7.203 -2.2226  0.8387  0.0191
  155SAPE   C3817280   2.332   3.676   7.225  0.4459  0.2510  0.3621
  155SAPE   H8X17281   2.276   3.668   7.130  0.3635 -0.5514  0.4647
  155SAPE   H8Y17282   2.361   3.783   7.226  0.4199  0.2582  1.0271
  155SAPE   C3917283   2.241   3.660   7.348  0.0741 -0.1005  0.4031
  155SAPE   H9X17284   2.181   3.566   7.349  1.4451 -1.0169  0.1890
  155SAPE   H9Y17285   2.172   3.746   7.340  1.1873  0.7080 -1.1286
  155SAPE  C31017286   2.321   3.663   7.475  0.4854  0.0507 -0.4101
  155SAPE  H10X17287   2.385   3.753   7.481 -1.1481  1.2821 -0.5669
  155SAPE  H10Y17288   2.386   3.574   7.479 -0.2811 -0.5759 -1.3806
  155SAPE  C31117289   2.224   3.662   7.599  0.4126  0.5157  0.3584
  155SAPE  H11X17290   2.177   3.562   7.609 -3.4900  2.1424  0.0148
  155SAPE  H11Y17291   2.139   3.729   7.572  0.5129  0.5844  0.2067
  155SAPE  C31217292   2.284   3.704   7.730 -0.2492  0.0693 -0.1536
  155SAPE  H12X17293   2.315   3.810   7.720 -0.9130  0.3290  0.4616
  155SAPE  H12Y17294   2.375   3.644   7.749 -0.2694  0.0580 -0.0902
  155SAPE  C31317295   2.199   3.691   7.856  0.0885  0.1709 -0.5642
  155SAPE  H13X17296   2.188   3.581   7.868  0.5221  0.0478 -1.2430
  155SAPE  H13Y17297   2.097   3.731   7.833  0.3053  0.2418 -1.4364
  155SAPE  C31417298   2.248   3.760   7.984 -1.0437  0.5017 -0.0830
  155SAPE  H14X17299   2.276   3.863   7.954  1.3270 -0.9509 -3.3765
  155SAPE  H14Y17300   2.345   3.713   8.013 -1.8386 -1.8594 -1.0533
  155SAPE  C31517301   2.150   3.762   8.099  0.0424  0.6129 -0.5494
  155SAPE  H15X17302   2.050   3.795   8.065 -0.2122 -0.5465 -0.9732
  155SAPE  H15Y17303   2.178   3.838   8.175 -0.5860  1.1617 -0.8613
  155SAPE  C31617304   2.117   3.628   8.174  0.0256  0.1619  0.2325
  155SAPE  H16X17305   2.206   3.588   8.227 -0.5459 -0.1493  0.9688
  155SAPE  H16Y17306   2.079   3.547   8.108 -1.3103 -0.4751  1.7352
  155SAPE  C31717307   2.013   3.664   8.282 -0.0023  0.2811  0.1562
  155SAPE  H17X17308   1.925   3.701   8.224  0.0240 -1.3030 -0.9432
  155SAPE  H17Y17309   2.049   3.752   8.339  0.8214 -0.6963  1.1683
  155SAPE  C31817310   1.957   3.546   8.357  0.5326 -0.4547 -0.9394
  155SAPE  H18X17311   1.848   3.563   8.364  0.8014  1.1300 -0.1995
  155SAPE  H18Y17312   1.992   3.538   8.462  0.6880  0.4251 -0.9210
  155SAPE  H18Z17313   1.975   3.444   8.316 -0.7424 -1.5562  1.0558
  156SAPE     N17314   6.253   3.332   6.218  0.1785 -0.3726  0.0925
  156SAPE   HN117315   6.258   3.246   6.159  0.6320  1.0372 -2.0503
  156SAPE   HN217316   6.316   3.404   6.179  1.3206 -0.7201  1.2382
  156SAPE   HN317317   6.278   3.325   6.318  2.7647 -0.7789 -0.5264
  156SAPE   C1217318   6.116   3.385   6.201  0.0112  0.4689  0.3822
  156SAPE  H12A17319   6.052   3.344   6.282 -3.1225  2.4535 -0.8976
  156SAPE  H12B17320   6.072   3.370   6.100 -0.7309  0.3414  0.7203
  156SAPE   C1117321   6.102   3.531   6.238 -0.3943 -0.3439 -0.2574
  156SAPE  H11A17322   6.131   3.545   6.345  1.1709 -2.9593 -0.2473
  156SAPE  H11B17323   5.993   3.551   6.234 -0.5329 -0.8487  0.6410
  156SAPE     P17324   6.191   3.773   6.159  0.0235  0.1483 -0.1844
  156SAPE   O1317325   6.307   3.809   6.077 -0.6075  0.1419 -0.7293
  156SAPE   O1417326   6.067   3.836   6.120 -0.8954 -0.8369 -0.1915
  156SAPE   O1217327   6.179   3.614   6.154 -0.5132  0.5052 -0.0628
  156SAPE   O1117328   6.217   3.797   6.311 -0.2170  0.4853 -0.2230
  156SAPE    C117329   6.348   3.815   6.367 -0.0278  1.1260  0.5868
  156SAPE    HA17330   6.424   3.784   6.292  0.4300  0.2858  1.3755
  156SAPE    HB17331   6.371   3.923   6.382 -0.1487  1.2157  0.1351
  156SAPE    C217332   6.368   3.737   6.502  0.2954  1.1253 -0.0389
  156SAPE    HS17333   6.380   3.628   6.487 -0.8475  0.9737  0.0803
  156SAPE   O2117334   6.260   3.794   6.581 -0.0827 -0.1468 -0.4211
  156SAPE   C2117335   6.219   3.700   6.667  0.7369 -0.2897 -0.1264
  156SAPE   O2217336   6.256   3.585   6.679  0.2166  0.0766  0.2517
  156SAPE   C2217337   6.122   3.776   6.769 -0.0834  0.5754  0.1271
  156SAPE   H2R17338   6.176   3.788   6.865  1.4740  0.5249 -0.6968
  156SAPE   H2S17339   6.080   3.873   6.735 -2.6899  0.1137  1.7931
  156SAPE    C317340   6.510   3.775   6.561  0.0881 -0.3501 -0.3923
  156SAPE    HX17341   6.520   3.885   6.563  0.3969 -0.3197 -2.0386
  156SAPE    HY17342   6.576   3.731   6.483 -0.5762 -0.5899 -0.8321
  156SAPE   O3117343   6.536   3.715   6.691 -0.0762  0.4085 -0.2788
  156SAPE   C3117344   6.666   3.705   6.716 -0.2232  0.1000 -0.6774
  156SAPE   O3217345   6.755   3.741   6.641  0.3300  0.4481  0.2425
  156SAPE   C3217346   6.686   3.630   6.853 -0.3553 -0.0781  0.2185
  156SAPE   H2X17347   6.688   3.522   6.828  1.6868 -0.8362  3.1282
  156SAPE   H2Y17348   6.606   3.651   6.927  0.0595 -1.1222  0.9803
  156SAPE   C2317349   5.988   3.690   6.797  0.7388 -0.0129  0.0221
  156SAPE   H3R17350   5.984   3.607   6.723  1.4088 -0.5523  0.5797
  156SAPE   H3S17351   5.899   3.757   6.788  1.5179  0.9566 -0.7937
  156SAPE   C2417352   5.987   3.605   6.933 -0.1182 -0.5209  0.3185
  156SAPE   H4R17353   6.087   3.556   6.933 -0.2427 -0.7947  0.9102
  156SAPE   H4S17354   5.921   3.517   6.917 -0.6205 -0.0826 -0.0397
  156SAPE   C2517355   5.958   3.684   7.062  0.3801  0.0535 -0.7521
  156SAPE   H5R17356   5.957   3.794   7.058 -1.1056  0.0919 -0.1219
  156SAPE   C2617357   5.929   3.624   7.180  0.4808  0.5876  0.0524
  156SAPE   H6R17358   5.884   3.680   7.263  2.8764  0.2422  1.6781
  156SAPE   C2717359   5.938   3.479   7.203  0.0601  0.2723  0.0549
  156SAPE   H7R17360   6.015   3.428   7.142 -1.2023  0.0885 -1.4706
  156SAPE   H7S17361   5.841   3.432   7.176 -0.4045 -0.8872  3.3385
  156SAPE   C2817362   5.946   3.441   7.351 -0.6990 -0.1788 -0.5164
  156SAPE   H8R17363   5.859   3.470   7.412 -1.1185 -0.1681 -1.1079
  156SAPE   C2917364   6.044   3.373   7.413  0.9876 -0.1107 -0.4725
  156SAPE   H9R17365   6.033   3.370   7.522 -0.3748  0.2286 -0.5726
  156SAPE  C21017366   6.171   3.301   7.363  0.8988 -0.9081  0.1207
  156SAPE  H10R17367   6.255   3.339   7.425 -0.3826  2.4643 -0.0272
  156SAPE  H10S17368   6.192   3.336   7.260 -0.1979 -0.9913 -0.1455
  156SAPE  C21117369   6.165   3.151   7.363  1.0177 -0.5377  0.0887
  156SAPE  H11R17370   6.152   3.119   7.259 -0.1344  2.7194 -0.8900
  156SAPE  C21217371   6.172   3.082   7.478  0.1007 -0.6433  0.8114
  156SAPE  H12R17372   6.152   2.975   7.459 -0.9067 -0.3370  0.0900
  156SAPE  C21317373   6.188   3.134   7.614 -0.5577  0.2025 -0.0053
  156SAPE  H13R17374   6.096   3.191   7.640 -1.5379 -0.3348 -2.1445
  156SAPE  H13S17375   6.276   3.201   7.626  0.9470 -1.5028 -0.9895
  156SAPE  C21417376   6.203   3.009   7.708 -0.4962 -0.3365  0.1312
  156SAPE  H14R17377   6.276   2.931   7.681 -1.9205 -1.7840  0.3572
  156SAPE  C21517378   6.153   2.995   7.825 -0.0433 -0.2657 -0.0459
  156SAPE  H15R17379   6.181   2.899   7.871 -0.7988 -0.2874  0.3886
  156SAPE  C21617380   6.058   3.092   7.902  0.3921  0.1937  0.4843
  156SAPE  H16R17381   5.958   3.043   7.912  0.4727 -0.8981 -2.8227
  156SAPE  H16S17382   6.051   3.200   7.878  3.4521  0.5661  0.8937
  156SAPE  C21717383   6.107   3.088   8.049 -0.3585  0.4502 -0.2754
  156SAPE  H17R17384   6.204   3.138   8.068 -0.2184 -0.9458  3.3831
  156SAPE  H17S17385   6.129   2.983   8.077 -0.8806  0.7513  1.3422
  156SAPE  C21817386   6.006   3.118   8.155 -0.1033 -0.6257 -0.1992
  156SAPE  H18R17387   6.054   3.082   8.249 -0.7842  0.2423  0.4989
  156SAPE  H18S17388   5.917   3.051   8.158 -0.1535 -0.5346  0.5494
  156SAPE  C21917389   5.959   3.267   8.170 -0.3450 -0.2792 -0.5424
  156SAPE  H19R17390   5.863   3.274   8.226  0.7607 -0.5123  1.4563
  156SAPE  H19S17391   5.935   3.282   8.062 -0.7446 -4.5758 -1.2502
  156SAPE  C22017392   6.055   3.370   8.226 -0.0555  0.1212 -0.1728
  156SAPE  H20R17393   5.999   3.466   8.236 -0.8049 -0.3275  0.0476
  156SAPE  H20S17394   6.138   3.380   8.153  0.4902 -0.0989  0.4146
  156SAPE  H20T17395   6.098   3.329   8.320 -0.9161 -1.3866 -0.4079
  156SAPE   C3317396   6.814   3.678   6.923 -0.3293  0.2260 -0.3271
  156SAPE   H3X17397   6.824   3.789   6.922 -0.6015  0.2643  0.3246
  156SAPE   H3Y17398   6.901   3.646   6.862 -0.8129 -1.7222 -0.0599
  156SAPE   C3417399   6.840   3.603   7.056 -0.1393 -0.4804 -0.2932
  156SAPE   H4X17400   6.834   3.493   7.047  4.7177 -1.0836  1.0155
  156SAPE   H4Y17401   6.759   3.643   7.121  0.9229  1.5773 -0.1459
  156SAPE   C3517402   6.971   3.639   7.124  0.6680  0.0963  0.9791
  156SAPE   H5X17403   6.993   3.747   7.118 -0.4015  0.3716  1.8149
  156SAPE   H5Y17404   7.048   3.597   7.055  0.3347  0.7229  0.2043
  156SAPE   C3617405   6.975   3.604   7.268  0.2226  0.0504  0.3410
  156SAPE   H6X17406   6.879   3.632   7.316  0.3124 -0.0094  0.5603
  156SAPE   H6Y17407   7.061   3.656   7.317 -0.5061 -0.8403  2.7021
  156SAPE   C3717408   7.006   3.455   7.298  0.4164 -0.0928  0.2299
  156SAPE   H7X17409   7.104   3.432   7.252  1.2906  1.1351  1.3927
  156SAPE   H7Y17410   6.931   3.396   7.242 -0.3416 -0.3670  1.5040
  156SAPE   C3817411   7.008   3.406   7.448 -1.0478  0.0803 -0.4380
  156SAPE   H8X17412   7.094   3.449   7.505 -1.6339 -0.5864  1.0116
  156SAPE   H8Y17413   7.052   3.304   7.451  0.0974  0.5263 -1.0989
  156SAPE   C3917414   6.875   3.430   7.527 -0.1390 -0.4994  0.6447
  156SAPE   H9X17415   6.786   3.382   7.482  0.1918  0.8104 -1.5171
  156SAPE   H9Y17416   6.841   3.535   7.514  0.4796 -0.3755 -0.0104
  156SAPE  C31017417   6.888   3.406   7.676  0.6010  0.3849 -0.4592
  156SAPE  H10X17418   6.937   3.310   7.705 -2.0408 -0.7823  0.4091
  156SAPE  H10Y17419   6.780   3.409   7.701  0.6517  1.5446 -0.3246
  156SAPE  C31117420   6.970   3.516   7.753 -0.1206  0.6884  0.1054
  156SAPE  H11X17421   6.911   3.610   7.755  1.8312  1.9707  2.2592
  156SAPE  H11Y17422   7.065   3.546   7.703 -0.3930  1.8588  0.2553
  156SAPE  C31217423   6.991   3.480   7.906 -0.0502  0.0967  0.2433
  156SAPE  H12X17424   7.034   3.571   7.953  0.3776  0.7426 -1.3351
  156SAPE  H12Y17425   7.063   3.397   7.923  0.2418  0.9813  4.2978
  156SAPE  C31317426   6.864   3.442   7.991  0.0549  0.0370  0.2196
  156SAPE  H13X17427   6.804   3.367   7.936 -0.6652  0.3385  0.5753
  156SAPE  H13Y17428   6.794   3.529   7.995  0.7655  0.5834  1.1992
  156SAPE  C31417429   6.890   3.402   8.139  0.1094 -0.4349  0.0452
  156SAPE  H14X17430   6.964   3.320   8.128  0.0524 -0.5235  0.3221
  156SAPE  H14Y17431   6.799   3.363   8.189 -0.2365 -0.6888 -0.7639
  156SAPE  C31517432   6.934   3.523   8.221 -1.1058  0.0504 -0.2617
  156SAPE  H15X17433   6.857   3.598   8.247  0.0699  0.8431  1.1116
  156SAPE  H15Y17434   7.016   3.575   8.167 -1.1490 -0.4262 -0.7894
  156SAPE  C31617435   6.997   3.479   8.353 -0.4552 -0.4161 -0.3077
  156SAPE  H16X17436   7.079   3.414   8.316  0.0619  0.2238 -0.3074
  156SAPE  H16Y17437   6.932   3.407   8.408  0.0159  0.5464  1.6016
  156SAPE  C31717438   7.052   3.594   8.439  0.1395  0.4730 -0.0193
  156SAPE  H17X17439   6.972   3.657   8.484 -0.6645 -1.3431  1.2010
  156SAPE  H17Y17440   7.115   3.665   8.380 -1.6369  0.4526 -2.0533
  156SAPE  C31817441   7.121   3.560   8.570 -0.5413  0.0862  0.1691
  156SAPE  H18X17442   7.051   3.537   8.653  0.9923  0.1344  1.5204
  156SAPE  H18Y17443   7.177   3.651   8.603  0.3253 -0.0145 -0.9550
  156SAPE  H18Z17444   7.178   3.469   8.544 -2.3130 -1.6103  1.9074
  157SAPE     N17445   1.966   6.243   5.929  0.0252 -0.9574 -0.3948
  157SAPE   HN117446   1.935   6.199   5.840 -0.9130  0.8180 -0.9951
  157SAPE   HN217447   1.987   6.344   5.913 -1.5959 -0.6446 -0.6836
  157SAPE   HN317448   2.055   6.194   5.952  1.2170 -0.9709 -4.2661
  157SAPE   C1217449   1.877   6.232   6.044  0.2733  0.0601  0.2780
  157SAPE  H12A17450   1.841   6.127   6.049 -1.2663  0.5458 -0.0124
  157SAPE  H12B17451   1.792   6.301   6.028 -2.1715 -2.9577 -0.8727
  157SAPE   C1117452   1.940   6.271   6.179  0.2728 -0.6115  0.8157
  157SAPE  H11A17453   1.863   6.275   6.259 -0.7812 -1.2653 -0.1263
  157SAPE  H11B17454   1.980   6.374   6.170 -1.4529 -0.0516 -1.2273
  157SAPE     P17455   2.036   6.062   6.284  0.1728 -0.3455 -0.2489
  157SAPE   O1317456   1.914   5.990   6.236 -0.0262  0.3541  0.6210
  157SAPE   O1417457   2.163   5.984   6.311 -0.2043 -1.0818 -0.4867
  157SAPE   O1217458   2.054   6.183   6.195 -0.0573 -0.1629  0.0063
  157SAPE   O1117459   2.001   6.135   6.420 -0.2993  0.4081 -0.4339
  157SAPE    C117460   2.099   6.183   6.514  0.6880  0.6771  0.2911
  157SAPE    HA17461   2.161   6.099   6.552 -2.6565 -0.8999  2.7193
  157SAPE    HB17462   2.159   6.261   6.463 -0.4851  1.3919 -0.0426
  157SAPE    C217463   2.028   6.246   6.634  0.1148  0.0954 -0.1692
  157SAPE    HS17464   2.088   6.260   6.726 -1.3289  1.6307  0.5873
  157SAPE   O2117465   1.912   6.167   6.665 -0.2459 -0.1310  0.2782
  157SAPE   C2117466   1.938   6.059   6.730  0.0161 -1.0521  0.2869
  157SAPE   O2217467   2.053   6.028   6.766  0.0336 -0.8634 -0.1161
  157SAPE   C2217468   1.804   5.976   6.754  0.2477 -0.4852 -0.2001
  157SAPE   H2R17469   1.726   6.050   6.785  1.9393  1.4975 -0.4332
  157SAPE   H2S17470   1.775   5.927   6.659 -0.5729 -0.6065  0.1040
  157SAPE    C317471   1.983   6.388   6.591  0.0889 -0.2747  0.1077
  157SAPE    HX17472   1.922   6.378   6.499 -3.2854  1.2047  2.0283
  157SAPE    HY17473   2.073   6.451   6.574 -1.1783  1.6718  0.3939
  157SAPE   O3117474   1.902   6.442   6.695 -0.0789  0.0632 -0.1488
  157SAPE   C3117475   1.879   6.576   6.695 -0.0205 -0.0404 -0.3026
  157SAPE   O3217476   1.933   6.652   6.621  0.4523 -0.2879  0.0908
  157SAPE   C3217477   1.790   6.603   6.813  0.1123 -0.1057  0.4665
  157SAPE   H2X17478   1.719   6.518   6.806  0.9466 -0.7366 -0.6939
  157SAPE   H2Y17479   1.744   6.702   6.793 -0.5225 -0.4496  0.1688
  157SAPE   C2317480   1.836   5.876   6.864 -0.1132 -0.6981  0.5841
  157SAPE   H3R17481   1.818   5.930   6.960  1.9783  0.0659  0.6083
  157SAPE   H3S17482   1.943   5.849   6.875  0.1685 -0.5688 -1.4787
  157SAPE   C2417483   1.767   5.740   6.847  0.2351 -0.2743  0.2368
  157SAPE   H4R17484   1.806   5.665   6.920  0.8263  0.0760  0.2842
  157SAPE   H4S17485   1.794   5.695   6.749 -0.8945 -0.5140  0.0141
  157SAPE   C2517486   1.612   5.754   6.849 -0.8816  0.6153 -0.4493
  157SAPE   H5R17487   1.566   5.769   6.750 -0.8605  0.3703 -0.4972
  157SAPE   C2617488   1.535   5.772   6.955  0.3783 -0.7019 -0.3039
  157SAPE   H6R17489   1.432   5.806   6.936 -0.0785  1.1126  4.3100
  157SAPE   C2717490   1.582   5.774   7.099 -0.0758  0.0172  0.9381
  157SAPE   H7R17491   1.519   5.842   7.161 -1.1431  0.2564 -0.3481
  157SAPE   H7S17492   1.689   5.802   7.105  0.6148 -2.2583  0.1517
  157SAPE   C2817493   1.575   5.634   7.152 -0.1740 -0.0082  0.5497
  157SAPE   H8R17494   1.553   5.557   7.076 -0.0005  0.1151  0.3734
  157SAPE   C2917495   1.576   5.588   7.279 -0.0329 -0.7151 -0.5863
  157SAPE   H9R17496   1.571   5.479   7.298 -1.0102 -0.6205 -0.2227
  157SAPE  C21017497   1.580   5.676   7.400  0.2341  0.0145  0.1642
  157SAPE  H10R17498   1.618   5.776   7.371  0.0652 -0.1241 -0.5775
  157SAPE  H10S17499   1.650   5.635   7.475  1.2906 -3.2045 -2.3272
  157SAPE  C21117500   1.442   5.698   7.463 -0.3215  0.3606 -0.6796
  157SAPE  H11R17501   1.366   5.763   7.417 -4.4208 -2.2119  1.7736
  157SAPE  C21217502   1.407   5.651   7.585 -0.9052 -0.1247  0.2123
  157SAPE  H12R17503   1.308   5.680   7.623  0.5456  0.5726  3.8870
  157SAPE  C21317504   1.494   5.578   7.688  1.0183 -0.0713  0.1413
  157SAPE  H13R17505   1.549   5.656   7.745 -0.9303  0.5569  1.2569
  157SAPE  H13S17506   1.568   5.515   7.635 -0.5176 -0.8799 -1.1216
  157SAPE  C21417507   1.422   5.493   7.789 -0.9119  0.5446  0.1528
  157SAPE  H14R17508   1.420   5.386   7.764 -2.3923  0.8823 -1.3328
  157SAPE  C21517509   1.367   5.537   7.904 -0.1582  0.2890 -0.2844
  157SAPE  H15R17510   1.312   5.456   7.954 -0.2683 -0.7297 -1.9657
  157SAPE  C21617511   1.352   5.683   7.955  0.3045  1.1261 -0.1037
  157SAPE  H16R17512   1.367   5.753   7.869  0.4700  2.4461  0.9566
  157SAPE  H16S17513   1.442   5.684   8.021 -0.3708  1.9303  0.8368
  157SAPE  C21717514   1.234   5.717   8.041  0.1780  0.6162 -0.5746
  157SAPE  H17R17515   1.232   5.651   8.131 -0.4424  1.0775 -0.2393
  157SAPE  H17S17516   1.143   5.702   7.979 -0.9328 -0.0998  1.1286
  157SAPE  C21817517   1.222   5.859   8.094 -0.0707 -0.2263  0.2700
  157SAPE  H18R17518   1.206   5.916   8.001  1.0487 -0.1149  0.1299
  157SAPE  H18S17519   1.317   5.895   8.139  0.7382 -0.6767 -1.0334
  157SAPE  C21917520   1.105   5.886   8.187  0.2799  0.4145 -0.1910
  157SAPE  H19R17521   1.062   5.788   8.215 -0.1975  0.0639 -2.0407
  157SAPE  H19S17522   1.024   5.935   8.129  0.2166 -0.6852 -1.0735
  157SAPE  C22017523   1.142   5.971   8.313  0.2092 -0.4346 -0.2707
  157SAPE  H20R17524   1.063   5.958   8.390 -2.3079 -0.7530 -2.7218
  157SAPE  H20S17525   1.140   6.080   8.292 -1.8389 -0.1100  1.2596
  157SAPE  H20T17526   1.240   5.936   8.351 -0.0778 -0.2552  0.6511
  157SAPE   C3317527   1.857   6.599   6.950 -0.7930  0.6276 -0.6355
  157SAPE   H3X17528   1.936   6.674   6.973  0.9520 -2.0384  3.0772
  157SAPE   H3Y17529   1.898   6.497   6.966  0.5997  1.2186 -0.2907
  157SAPE   C3417530   1.751   6.628   7.065 -0.5262  0.3238  0.0703
  157SAPE   H4X17531   1.671   6.553   7.044 -1.1004  0.2920  2.1620
  157SAPE   H4Y17532   1.706   6.729   7.053 -0.4537  0.3378 -0.0937
  157SAPE   C3517533   1.804   6.607   7.198  0.1015 -0.0085  0.1019
  157SAPE   H5X17534   1.914   6.605   7.186  0.2428 -1.5544  1.2140
  157SAPE   H5Y17535   1.785   6.506   7.240 -0.1510 -0.5076 -1.1679
  157SAPE   C3617536   1.786   6.716   7.304  0.0329 -0.5184  0.3269
  157SAPE   H6X17537   1.680   6.749   7.307 -0.5890 -2.1971 -1.3109
  157SAPE   H6Y17538   1.851   6.798   7.270  2.6398 -2.6559 -0.2009
  157SAPE   C3717539   1.833   6.680   7.443 -0.3151  0.1784 -0.4077
  157SAPE   H7X17540   1.936   6.640   7.453 -0.9970 -1.6510 -0.3152
  157SAPE   H7Y17541   1.774   6.588   7.464  0.2958  0.1635  1.3905
  157SAPE   C3817542   1.793   6.789   7.544  0.1445  0.3884 -0.9711
  157SAPE   H8X17543   1.690   6.828   7.544  0.4393  1.2893  0.9626
  157SAPE   H8Y17544   1.870   6.869   7.538  0.8082  0.1568  2.3502
  157SAPE   C3917545   1.818   6.732   7.685  0.1332 -0.2456 -0.6745
  157SAPE   H9X17546   1.917   6.688   7.709  0.2202  0.8043  1.0530
  157SAPE   H9Y17547   1.752   6.645   7.705  1.1486 -0.2190  3.8439
  157SAPE  C31017548   1.796   6.849   7.796  0.3787  0.2806  0.1099
  157SAPE  H10X17549   1.700   6.905   7.790  0.1373 -0.2367 -1.2249
  157SAPE  H10Y17550   1.872   6.930   7.792  0.3809  0.2961  0.5011
  157SAPE  C31117551   1.798   6.798   7.938  0.2619  0.3985  0.2813
  157SAPE  H11X17552   1.889   6.737   7.951 -0.3544 -1.1967 -2.2061
  157SAPE  H11Y17553   1.705   6.740   7.958 -2.8221  4.1113 -1.9072
  157SAPE  C31217554   1.788   6.908   8.036  0.1222 -0.0122  0.0757
  157SAPE  H12X17555   1.746   6.997   7.985  1.0371  2.1711  2.8529
  157SAPE  H12Y17556   1.890   6.944   8.064  0.1838 -0.3277  0.2602
  157SAPE  C31317557   1.713   6.866   8.164  0.6323 -0.5819 -0.1888
  157SAPE  H13X17558   1.775   6.791   8.218  0.9750 -0.2924 -0.1799
  157SAPE  H13Y17559   1.614   6.819   8.144 -0.0954  1.1958 -0.9846
  157SAPE  C31417560   1.702   6.987   8.261 -1.0435  0.5533  0.0563
  157SAPE  H14X17561   1.623   6.984   8.339 -1.7501  1.0282 -0.6144
  157SAPE  H14Y17562   1.684   7.077   8.197  1.2729  0.5315 -0.7272
  157SAPE  C31517563   1.842   7.006   8.333 -0.4775  0.5207  0.1556
  157SAPE  H15X17564   1.914   7.027   8.250 -0.2919 -0.4251  0.0647
  157SAPE  H15Y17565   1.870   6.908   8.377  1.1441  0.1286 -1.6063
  157SAPE  C31617566   1.851   7.122   8.431  0.0589 -0.7497  0.8415
  157SAPE  H16X17567   1.783   7.094   8.514  0.2928 -1.1459  0.9016
  157SAPE  H16Y17568   1.817   7.213   8.377  0.3500 -1.5676 -0.7704
  157SAPE  C31717569   1.983   7.134   8.497 -0.4934  0.6844 -0.4167
  157SAPE  H17X17570   2.061   7.154   8.421 -1.2119  0.0518 -1.3522
  157SAPE  H17Y17571   2.020   7.037   8.536  1.8504  2.2868  1.6379
  157SAPE  C31817572   1.991   7.241   8.605 -0.4780 -0.5986  0.8380
  157SAPE  H18X17573   1.935   7.201   8.692  2.5793 -1.4683  2.5647
  157SAPE  H18Y17574   1.943   7.336   8.572  2.8546  0.7962 -0.3813
  157SAPE  H18Z17575   2.092   7.251   8.651 -0.8098  1.2065  1.2814
  158SAPE     N17576   5.469   6.185   5.994  0.3198 -0.6432  0.0743
  158SAPE   HN117577   5.552   6.125   6.010  2.0527  1.6342  0.1777
  158SAPE   HN217578   5.393   6.134   5.945 -0.0030 -0.5497  0.4706
  158SAPE   HN317579   5.498   6.273   5.947  2.3039 -0.0597  2.1952
  158SAPE   C1217580   5.436   6.234   6.136 -0.4500  0.5069 -0.1486
  158SAPE  H12A17581   5.531   6.235   6.194 -1.0773 -0.8889  0.9789
  158SAPE  H12B17582   5.369   6.157   6.180 -0.1346  1.3121  1.8827
  158SAPE   C1117583   5.373   6.373   6.122 -0.8382 -0.2064  0.3788
  158SAPE  H11A17584   5.434   6.443   6.062 -1.2590  0.3496  0.5894
  158SAPE  H11B17585   5.361   6.403   6.229 -1.8786 -0.1475  0.2517
  158SAPE     P17586   5.111   6.418   6.115 -0.0387  0.3109 -0.3392
  158SAPE   O1317587   5.094   6.555   6.070 -0.2452 -0.4149  0.3242
  158SAPE   O1417588   5.011   6.317   6.080  0.0930  0.1374  0.6689
  158SAPE   O1217589   5.247   6.364   6.062 -0.7438  0.1335 -0.1927
  158SAPE   O1117590   5.123   6.421   6.273  0.3487 -0.7221 -0.3750
  158SAPE    C117591   5.145   6.312   6.354  0.1400  0.2851 -0.3659
  158SAPE    HA17592   5.129   6.217   6.298 -1.7684  1.0397 -1.2005
  158SAPE    HB17593   5.247   6.308   6.397 -0.6494 -0.9634  1.5260
  158SAPE    C217594   5.045   6.322   6.470 -0.0722  0.7227  0.6757
  158SAPE    HS17595   4.950   6.370   6.437 -2.0735 -2.6573  1.0899
  158SAPE   O2117596   5.106   6.393   6.577  0.5675 -0.5952  0.2108
  158SAPE   C2117597   5.116   6.532   6.563 -0.5739 -0.2130  0.5491
  158SAPE   O2217598   5.053   6.598   6.482 -0.2861  0.6049  0.3864
  158SAPE   C2217599   5.206   6.587   6.680  0.6826 -0.5484 -0.3875
  158SAPE   H2R17600   5.299   6.526   6.681  2.3709  1.8933  0.9479
  158SAPE   H2S17601   5.238   6.691   6.659 -1.3598  0.2224  0.1317
  158SAPE    C317602   5.003   6.175   6.516 -0.5717 -1.0767 -0.1682
  158SAPE    HX17603   5.103   6.127   6.530  1.4858  2.9271  0.5111
  158SAPE    HY17604   4.946   6.132   6.432 -1.4038 -0.4319  0.0571
  158SAPE   O3117605   4.937   6.176   6.645  0.0523 -0.4184 -0.0323
  158SAPE   C3117606   4.810   6.206   6.632 -0.2825 -0.4552 -0.1819
  158SAPE   O3217607   4.763   6.251   6.525 -0.0424  0.0414 -1.1537
  158SAPE   C3217608   4.737   6.188   6.766  0.5016  0.1299  0.4409
  158SAPE   H2X17609   4.715   6.080   6.775 -0.8714  0.3840  0.2920
  158SAPE   H2Y17610   4.643   6.246   6.756 -0.0439 -0.9297 -1.0620
  158SAPE   C2317611   5.128   6.592   6.809  1.0001  0.1945 -0.9497
  158SAPE   H3R17612   5.032   6.646   6.809  1.8433  1.7633 -1.7400
  158SAPE   H3S17613   5.184   6.658   6.879 -0.1483  0.6104 -0.3934
  158SAPE   C2417614   5.092   6.450   6.875 -0.1422 -0.2867  0.4812
  158SAPE   H4R17615   5.043   6.395   6.792  0.0180 -0.4187  0.4744
  158SAPE   H4S17616   5.017   6.467   6.955  1.3671  0.7212  1.7498
  158SAPE   C2517617   5.216   6.392   6.931 -0.2523 -0.3423 -0.1933
  158SAPE   H5R17618   5.259   6.322   6.857 -0.0575 -3.2723  2.4634
  158SAPE   C2617619   5.276   6.406   7.054  0.1773 -0.5631  0.5097
  158SAPE   H6R17620   5.372   6.358   7.075  1.5094  1.5263 -0.4656
  158SAPE   C2717621   5.225   6.493   7.169 -0.3060 -0.1425  0.0106
  158SAPE   H7R17622   5.268   6.450   7.263  1.2336 -0.8899 -1.0052
  158SAPE   H7S17623   5.114   6.500   7.180 -0.2502  1.5579 -0.2979
  158SAPE   C2817624   5.262   6.638   7.152  0.0972  0.1987 -0.4007
  158SAPE   H8R17625   5.215   6.687   7.066 -0.5796  0.2120 -0.0234
  158SAPE   C2917626   5.340   6.707   7.238 -0.7531  0.7227 -0.4091
  158SAPE   H9R17627   5.373   6.809   7.213  0.7135  0.3942  0.0637
  158SAPE  C21017628   5.414   6.645   7.351  0.2751 -0.1857  0.0933
  158SAPE  H10R17629   5.477   6.563   7.311  0.0721  0.4250 -1.5354
  158SAPE  H10S17630   5.347   6.596   7.425  1.4833 -3.6876 -0.9529
  158SAPE  C21117631   5.512   6.738   7.424 -0.5985 -0.2274  0.0428
  158SAPE  H11R17632   5.548   6.830   7.374  0.7687 -1.5937 -1.6226
  158SAPE  C21217633   5.558   6.714   7.548  0.0786 -0.5373 -0.0111
  158SAPE  H12R17634   5.633   6.783   7.588  1.0955  0.9214 -3.9424
  158SAPE  C21317635   5.532   6.601   7.632 -0.2996  0.7748 -0.0765
  158SAPE  H13R17636   5.623   6.541   7.655 -0.9000  0.6973  2.4489
  158SAPE  H13S17637   5.470   6.523   7.584  2.0131 -0.5719 -1.0506
  158SAPE  C21417638   5.469   6.654   7.762 -1.5024  0.5476 -0.2931
  158SAPE  H14R17639   5.536   6.710   7.830  2.0099 -0.8588 -2.2943
  158SAPE  C21517640   5.358   6.614   7.821 -0.1526  0.2817  0.0255
  158SAPE  H15R17641   5.337   6.662   7.918  2.5538  0.9288  0.3706
  158SAPE  C21617642   5.271   6.510   7.757 -0.5277 -0.0264  0.4723
  158SAPE  H16R17643   5.274   6.516   7.646 -3.1194  2.0973  0.4153
  158SAPE  H16S17644   5.165   6.528   7.783 -0.9226 -1.2213 -0.2192
  158SAPE  C21717645   5.306   6.377   7.820 -0.2353  1.2469 -0.3173
  158SAPE  H17R17646   5.411   6.376   7.857  0.7002  0.2662 -2.8338
  158SAPE  H17S17647   5.292   6.295   7.748 -1.6857  0.5214  0.7476
  158SAPE  C21817648   5.223   6.344   7.944  0.0620 -0.0524  0.1223
  158SAPE  H18R17649   5.118   6.345   7.907 -0.0019 -2.1506  0.1613
  158SAPE  H18S17650   5.241   6.413   8.030 -0.5770 -2.2567  2.1478
  158SAPE  C21917651   5.250   6.201   7.992  0.7689  0.7868 -0.2416
  158SAPE  H19R17652   5.348   6.186   8.042 -0.3441 -0.7445  1.5790
  158SAPE  H19S17653   5.236   6.137   7.902  0.0799 -0.3788  0.6616
  158SAPE  C22017654   5.141   6.149   8.087 -0.2901  0.1726  0.7562
  158SAPE  H20R17655   5.166   6.043   8.107  0.3831 -0.2044 -1.6976
  158SAPE  H20S17656   5.036   6.159   8.053  0.3072  4.9052 -0.3609
  158SAPE  H20T17657   5.141   6.183   8.193  0.4103 -0.3627  0.9354
  158SAPE   C3317658   4.829   6.240   6.875  0.4364  0.0040 -0.2020
  158SAPE   H3X17659   4.836   6.350   6.865  3.1191  0.1146  1.8405
  158SAPE   H3Y17660   4.929   6.193   6.866  0.7526  0.7204 -0.4674
  158SAPE   C3417661   4.770   6.210   7.015  0.0873 -0.3919  0.8405
  158SAPE   H4X17662   4.748   6.105   7.043 -1.9300  0.0423  1.0260
  158SAPE   H4Y17663   4.670   6.255   7.032 -1.7288 -3.6595 -0.4587
  158SAPE   C3517664   4.855   6.271   7.128 -0.0463 -0.3224  0.1353
  158SAPE   H5X17665   4.877   6.377   7.104  0.5130  0.0404  2.0848
  158SAPE   H5Y17666   4.949   6.219   7.154  0.5640  0.2597 -0.8167
  158SAPE   C3617667   4.788   6.278   7.264  0.2434 -0.6796  0.0234
  158SAPE   H6X17668   4.762   6.184   7.319 -2.2761  0.0776  0.2604
  158SAPE   H6Y17669   4.704   6.350   7.262  0.6768 -0.0259  2.1573
  158SAPE   C3717670   4.878   6.351   7.367 -0.0634  0.3276  0.0896
  158SAPE   H7X17671   4.979   6.305   7.373 -0.4492 -0.9174 -2.1081
  158SAPE   H7Y17672   4.895   6.459   7.347  0.6138  1.0302  3.6379
  158SAPE   C3817673   4.807   6.352   7.507 -0.1959 -0.8722  0.4127
  158SAPE   H8X17674   4.772   6.247   7.523 -2.7537 -0.8252 -3.4103
  158SAPE   H8Y17675   4.716   6.410   7.479  1.4320  1.0210 -1.2166
  158SAPE   C3917676   4.880   6.427   7.618 -0.9209  0.9962 -0.4192
  158SAPE   H9X17677   4.894   6.532   7.583 -1.9354  1.0718 -0.6480
  158SAPE   H9Y17678   4.980   6.382   7.631 -1.5135  0.4415  3.0545
  158SAPE  C31017679   4.823   6.438   7.761 -0.2059  0.0204  0.2415
  158SAPE  H10X17680   4.727   6.494   7.757 -0.8735 -0.7964  2.7554
  158SAPE  H10Y17681   4.897   6.498   7.819  1.9363 -0.8707 -1.4080
  158SAPE  C31117682   4.803   6.299   7.813  0.4874  0.4421 -0.0889
  158SAPE  H11X17683   4.903   6.256   7.792  0.5857 -0.5190  2.0205
  158SAPE  H11Y17684   4.730   6.236   7.758  1.7014 -0.0647 -1.1596
  158SAPE  C31217685   4.792   6.277   7.966 -0.2428  0.3346  0.3327
  158SAPE  H12X17686   4.858   6.354   8.011 -2.5169  2.5531  0.0932
  158SAPE  H12Y17687   4.823   6.173   7.991 -0.0498  0.5219  0.8758
  158SAPE  C31317688   4.649   6.301   8.011 -0.3086  0.1800  0.4064
  158SAPE  H13X17689   4.578   6.258   7.936 -0.6730  0.5709  0.5237
  158SAPE  H13Y17690   4.636   6.411   8.002 -1.0396  0.0415 -0.3678
  158SAPE  C31417691   4.617   6.241   8.145  0.3164 -0.1121 -0.3555
  158SAPE  H14X17692   4.607   6.131   8.136  3.6575 -0.3920 -2.1171
  158SAPE  H14Y17693   4.515   6.282   8.163 -0.9857 -3.8438  1.8582
  158SAPE  C31517694   4.709   6.278   8.253 -0.2047 -0.3993  0.2975
  158SAPE  H15X17695   4.725   6.388   8.251 -2.8032  0.0716  1.6574
  158SAPE  H15Y17696   4.804   6.224   8.228 -1.2914 -2.4486  0.3680
  158SAPE  C31617697   4.663   6.235   8.396  0.5611 -0.2728  0.4860
  158SAPE  H16X17698   4.645   6.127   8.378  3.5238 -0.6562 -0.8205
  158SAPE  H16Y17699   4.568   6.286   8.421  1.0279  1.2429 -0.6413
  158SAPE  C31717700   4.750   6.259   8.514  0.0817 -0.1619  0.2932
  158SAPE  H17X17701   4.724   6.203   8.607 -1.9321  0.7127  0.3146
  158SAPE  H17Y17702   4.743   6.368   8.532  2.3524  0.3111 -1.2695
  158SAPE  C31817703   4.898   6.231   8.489  0.1920  0.6411  0.7206
  158SAPE  H18X17704   4.946   6.234   8.589  0.4298  1.9085  0.5894
  158SAPE  H18Y17705   4.952   6.311   8.434  0.3465  1.0397  1.4376
  158SAPE  H18Z17706   4.908   6.137   8.430 -2.3124  0.1880  0.9068
  159SAPE     N17707   2.440   6.612   5.783  0.2333 -0.5260  0.0607
  159SAPE   HN117708   2.543   6.598   5.774  0.3856  1.7598 -3.9692
  159SAPE   HN217709   2.397   6.518   5.776  1.0600 -0.9520  0.5424
  159SAPE   HN317710   2.422   6.667   5.697  2.5589  1.5518  0.7692
  159SAPE   C1217711   2.411   6.692   5.902  0.6534 -0.1197  0.0838
  159SAPE  H12A17712   2.307   6.669   5.933  1.0637 -2.5098 -0.1853
  159SAPE  H12B17713   2.416   6.798   5.868 -1.6961 -0.1674 -0.5706
  159SAPE   C1117714   2.493   6.659   6.031  0.0416 -0.1084 -0.0080
  159SAPE  H11A17715   2.466   6.554   6.055 -1.7554 -0.4070 -2.9294
  159SAPE  H11B17716   2.450   6.713   6.119 -0.0488 -0.6830  0.3063
  159SAPE     P17717   2.694   6.823   5.984  0.1208  0.4188 -0.2856
  159SAPE   O1317718   2.840   6.819   5.989  0.1321 -1.0675  0.0933
  159SAPE   O1417719   2.645   6.863   5.850  0.2277  0.2683  0.1841
  159SAPE   O1217720   2.633   6.679   6.025 -0.1625  0.0363  0.2879
  159SAPE   O1117721   2.623   6.921   6.084  0.7224 -0.5069  0.1083
  159SAPE    C117722   2.685   6.982   6.193 -0.1294 -0.6980  0.7139
  159SAPE    HA17723   2.778   7.028   6.156 -1.4032  0.0975 -1.6854
  159SAPE    HB17724   2.622   7.063   6.236  0.9397 -0.2180  1.3879
  159SAPE    C217725   2.718   6.881   6.311 -0.1280 -0.1972  0.2591
  159SAPE    HS17726   2.800   6.817   6.272  0.7437  2.5146 -2.7397
  159SAPE   O2117727   2.607   6.794   6.348 -0.6344 -0.1756  0.1665
  159SAPE   C2117728   2.638   6.695   6.429  0.3094  0.1850 -0.5261
  159SAPE   O2217729   2.747   6.666   6.475 -0.3589 -0.8887  0.8720
  159SAPE   C2217730   2.524   6.626   6.481 -0.1184 -0.5461 -0.2197
  159SAPE   H2R17731   2.524   6.651   6.589  0.1965 -0.1021 -0.3189
  159SAPE   H2S17732   2.433   6.676   6.441 -0.4044  0.3483  1.4431
  159SAPE    C317733   2.784   6.956   6.429  0.2189 -0.3549  0.1733
  159SAPE    HX17734   2.877   7.009   6.401  1.2669 -1.7446  0.8805
  159SAPE    HY17735   2.814   6.882   6.507  1.0248 -0.4047 -0.1743
  159SAPE   O3117736   2.686   7.046   6.475  0.3560 -0.2018 -0.0111
  159SAPE   C3117737   2.716   7.110   6.586 -0.3803  0.1850  0.6054
  159SAPE   O3217738   2.820   7.095   6.645  0.0320 -0.3283 -0.2200
  159SAPE   C3217739   2.601   7.209   6.607 -0.1963 -0.2509  0.5128
  159SAPE   H2X17740   2.618   7.284   6.526  3.0993  0.5666  1.8087
  159SAPE   H2Y17741   2.624   7.273   6.695  0.4287 -1.3103  1.1318
  159SAPE   C2317742   2.520   6.474   6.466 -0.3223 -0.5404  0.5110
  159SAPE   H3R17743   2.618   6.423   6.477 -0.3033 -1.2470 -2.3769
  159SAPE   H3S17744   2.498   6.459   6.359 -0.6934 -1.3210  0.6910
  159SAPE   C2417745   2.417   6.395   6.541 -0.0697  0.1635 -0.6438
  159SAPE   H4R17746   2.400   6.305   6.478 -0.5941 -0.7524  0.7439
  159SAPE   H4S17747   2.323   6.454   6.531  0.6385  1.3113 -0.7447
  159SAPE   C2517748   2.437   6.361   6.690 -0.0647  0.4714  0.4136
  159SAPE   H5R17749   2.507   6.276   6.701 -1.1940 -1.0107 -2.6084
  159SAPE   C2617750   2.375   6.407   6.801  0.2171 -0.3807  0.3664
  159SAPE   H6R17751   2.422   6.389   6.899 -0.7027 -0.7291  0.7540
  159SAPE   C2717752   2.266   6.513   6.806 -0.7521 -0.1307  0.8843
  159SAPE   H7R17753   2.184   6.482   6.874 -1.2747  1.1528  0.8674
  159SAPE   H7S17754   2.217   6.524   6.708  0.2679  0.2741  0.4086
  159SAPE   C2817755   2.304   6.655   6.839 -0.3914 -0.2430 -0.0499
  159SAPE   H8R17756   2.360   6.708   6.761 -0.2968 -1.2267 -0.6774
  159SAPE   C2917757   2.287   6.726   6.947  0.4342 -0.1641  0.9393
  159SAPE   H9R17758   2.334   6.825   6.956 -3.0796  1.5883  1.6168
  159SAPE  C21017759   2.226   6.671   7.072 -0.2631 -0.4320  0.0500
  159SAPE  H10R17760   2.134   6.609   7.073 -0.7650  0.3036 -0.0641
  159SAPE  H10S17761   2.191   6.758   7.131 -1.2158 -0.1553 -0.8980
  159SAPE  C21117762   2.337   6.603   7.159  0.4204  0.0815 -0.2415
  159SAPE  H11R17763   2.414   6.562   7.092  0.8020  0.6820 -0.1800
  159SAPE  C21217764   2.352   6.609   7.291  0.7293  0.9636  0.1039
  159SAPE  H12R17765   2.435   6.561   7.345 -1.0038  1.1830  3.2047
  159SAPE  C21317766   2.251   6.662   7.390 -0.3615 -0.5820 -0.8303
  159SAPE  H13R17767   2.233   6.591   7.473 -0.9683  0.0741 -0.3905
  159SAPE  H13S17768   2.148   6.673   7.348 -0.7821 -0.1620  0.2914
  159SAPE  C21417769   2.294   6.797   7.442 -1.3427  1.0684 -0.1072
  159SAPE  H14R17770   2.338   6.858   7.362  2.1861  0.1119  0.9125
  159SAPE  C21517771   2.306   6.829   7.571 -0.1741 -0.7878  0.2408
  159SAPE  H15R17772   2.344   6.928   7.599 -1.9689  0.0645 -0.1927
  159SAPE  C21617773   2.253   6.748   7.692  0.2882  0.5157  0.2921
  159SAPE  H16R17774   2.300   6.648   7.696 -0.3855  0.2166  0.8234
  159SAPE  H16S17775   2.145   6.724   7.687  1.0282 -3.0383 -0.8072
  159SAPE  C21717776   2.292   6.825   7.829 -0.2112  0.4550 -0.2106
  159SAPE  H17R17777   2.271   6.932   7.807 -0.0147  0.8908  1.5690
  159SAPE  H17S17778   2.401   6.824   7.853  0.0432  0.8453 -1.2634
  159SAPE  C21817779   2.200   6.793   7.945 -0.1450 -0.2454 -0.5935
  159SAPE  H18R17780   2.225   6.688   7.973  2.6430  0.4358 -0.2503
  159SAPE  H18S17781   2.092   6.806   7.922 -0.6682 -2.7225  0.1442
  159SAPE  C21917782   2.241   6.875   8.073  0.4620  0.3682  1.0323
  159SAPE  H19R17783   2.226   6.981   8.043 -0.9370 -0.4941 -1.6797
  159SAPE  H19S17784   2.350   6.874   8.098  1.4511  1.6639 -2.5482
  159SAPE  C22017785   2.157   6.842   8.200 -0.1038  1.1126  0.2767
  159SAPE  H20R17786   2.051   6.868   8.183 -1.0558 -1.6087  1.4017
  159SAPE  H20S17787   2.196   6.892   8.291  0.5602  2.5768 -0.7631
  159SAPE  H20T17788   2.163   6.733   8.223 -1.4110  1.2766  1.5087
  159SAPE   C3317789   2.462   7.152   6.618  0.2187  0.2137 -0.4661
  159SAPE   H3X17790   2.438   7.073   6.544  2.7491 -1.1857  0.1022
  159SAPE   H3Y17791   2.389   7.235   6.618 -1.3091 -1.0432  1.0188
  159SAPE   C3417792   2.436   7.080   6.759 -0.7684 -0.4688  0.1738
  159SAPE   H4X17793   2.522   7.017   6.791  1.7358  3.0804  1.1476
  159SAPE   H4Y17794   2.345   7.016   6.759  0.0486 -1.7197  1.6850
  159SAPE   C3517795   2.422   7.174   6.874  0.1511  0.3739 -0.1037
  159SAPE   H5X17796   2.335   7.241   6.857 -1.0177 -1.0999 -0.1623
  159SAPE   H5Y17797   2.512   7.240   6.870  1.2762 -1.1463 -1.0804
  159SAPE   C3617798   2.386   7.104   7.000 -0.0558 -0.2840 -0.1440
  159SAPE   H6X17799   2.461   7.025   7.021  0.0568  0.0384  0.7052
  159SAPE   H6Y17800   2.288   7.051   6.991  1.0348 -2.4168 -0.0387
  159SAPE   C3717801   2.392   7.205   7.114 -0.2195 -0.0285  0.2838
  159SAPE   H7X17802   2.317   7.278   7.078 -0.2484 -0.1286  0.1420
  159SAPE   H7Y17803   2.489   7.260   7.111 -1.0590  1.4920 -1.6304
  159SAPE   C3817804   2.364   7.145   7.252 -0.2208  0.1799  0.2825
  159SAPE   H8X17805   2.453   7.087   7.284  0.9476  1.7452 -0.0041
  159SAPE   H8Y17806   2.281   7.070   7.253 -0.7039  0.7059  1.5917
  159SAPE   C3917807   2.335   7.245   7.365 -0.0611  0.1120 -0.0720
  159SAPE   H9X17808   2.240   7.296   7.335 -0.1029 -0.3686 -0.7793
  159SAPE   H9Y17809   2.422   7.314   7.372  0.6266 -0.7865  0.4181
  159SAPE  C31017810   2.305   7.186   7.503 -0.8366 -0.2822  0.3228
  159SAPE  H10X17811   2.394   7.121   7.521 -1.1967 -0.6211  0.8963
  159SAPE  H10Y17812   2.219   7.116   7.499 -3.1441  2.3971  0.1945
  159SAPE  C31117813   2.280   7.287   7.617 -0.7873  0.0436 -0.3662
  159SAPE  H11X17814   2.230   7.373   7.567  0.0878  0.0981 -1.1613
  159SAPE  H11Y17815   2.378   7.320   7.656  0.6687 -2.4314 -1.6606
  159SAPE  C31217816   2.201   7.228   7.737  0.6628  0.2912 -0.4150
  159SAPE  H12X17817   2.271   7.164   7.795 -0.6881  0.2174  1.2325
  159SAPE  H12Y17818   2.125   7.157   7.697 -1.0367  0.8345  1.6203
  159SAPE  C31317819   2.125   7.333   7.817 -0.5285  0.0236  0.1654
  159SAPE  H13X17820   2.041   7.387   7.769 -0.0941  1.0072  0.4878
  159SAPE  H13Y17821   2.199   7.413   7.839  0.2526 -0.8087  0.6611
  159SAPE  C31417822   2.063   7.288   7.957 -0.5891 -0.6719  0.2278
  159SAPE  H14X17823   2.123   7.203   7.995  0.8518  0.0450 -0.3711
  159SAPE  H14Y17824   1.959   7.254   7.937 -1.3318  0.7950  1.4644
  159SAPE  C31517825   2.057   7.408   8.060 -0.2270 -0.2550  0.3782
  159SAPE  H15X17826   2.024   7.500   8.008 -0.5231  0.2184  1.3710
  159SAPE  H15Y17827   2.160   7.432   8.092 -0.7580  2.7169  0.2094
  159SAPE  C31617828   1.975   7.362   8.183  0.6480 -0.8432 -0.5867
  159SAPE  H16X17829   2.021   7.276   8.236  0.2454 -0.7528 -0.0775
  159SAPE  H16Y17830   1.881   7.321   8.139  0.1497  0.4914 -0.7917
  159SAPE  C31717831   1.958   7.474   8.281 -0.1352  0.2304  0.7482
  159SAPE  H17X17832   1.868   7.445   8.339  1.1515 -1.3313  2.0728
  159SAPE  H17Y17833   1.920   7.573   8.247  1.6157  1.6004  2.5670
  159SAPE  C31817834   2.078   7.505   8.372  0.0862 -0.0776 -0.4074
  159SAPE  H18X17835   2.147   7.567   8.310 -0.6351 -1.3671 -2.6344
  159SAPE  H18Y17836   2.140   7.419   8.405  0.0738 -0.1915 -0.6760
  159SAPE  H18Z17837   2.046   7.554   8.466 -0.4973 -0.8953 -0.1613
  160SAPE     N17838   6.242   0.403   6.308 -0.3055  0.0539 -0.0981
  160SAPE   HN117839   6.275   0.498   6.280 -1.7459  0.5170 -0.3017
  160SAPE   HN217840   6.323   0.338   6.313 -1.4940 -1.4778 -0.0620
  160SAPE   HN317841   6.181   0.363   6.233  0.4424  0.1214 -0.7613
  160SAPE   C1217842   6.176   0.387   6.441 -0.0631 -0.0982  0.4162
  160SAPE  H12A17843   6.069   0.415   6.427 -0.3648 -2.4775 -3.2275
  160SAPE  H12B17844   6.226   0.457   6.513 -1.2980  1.6717 -0.3754
  160SAPE   C1117845   6.188   0.243   6.491  0.3961 -0.5376  0.1866
  160SAPE  H11A17846   6.130   0.227   6.584  1.1210  1.1268  0.9625
  160SAPE  H11B17847   6.293   0.233   6.526  0.3312  0.2808  0.6283
  160SAPE     P17848   6.035   0.099   6.334 -0.0202 -0.0063  0.4271
  160SAPE   O1317849   5.939   0.215   6.317 -0.2321  0.2431  0.1351
  160SAPE   O1417850   6.056   0.011   6.220 -0.0581  0.1286 -0.5505
  160SAPE   O1217851   6.174   0.147   6.391 -0.1446 -0.2762 -0.3258
  160SAPE   O1117852   5.983   0.017   6.463  0.1734 -0.3673  0.3673
  160SAPE    C117853   6.062  -0.089   6.510 -0.4236  0.5240 -0.4170
  160SAPE    HA17854   6.029  -0.174   6.448  1.6929  1.6549 -3.3200
  160SAPE    HB17855   6.171  -0.074   6.495  0.0689 -1.0710  1.2233
  160SAPE    C217856   6.049  -0.133   6.656 -0.2504 -0.2264  0.7488
  160SAPE    HS17857   6.115  -0.220   6.675  0.3855 -0.1798 -1.0380
  160SAPE   O2117858   5.908  -0.148   6.683 -0.5367 -0.1651  0.2742
  160SAPE   C2117859   5.871  -0.265   6.739  0.2400 -0.9198 -0.6866
  160SAPE   O2217860   5.950  -0.349   6.777  0.1724  0.2212  0.7642
  160SAPE   C2217861   5.719  -0.277   6.747  0.1626 -0.0942  0.3336
  160SAPE   H2R17862   5.692  -0.233   6.649 -1.1223 -0.9728  0.2540
  160SAPE   H2S17863   5.687  -0.383   6.738  0.8180 -0.1675 -1.5548
  160SAPE    C317864   6.102  -0.012   6.737 -0.3077 -0.1335 -0.2681
  160SAPE    HX17865   6.050   0.080   6.702  0.2938  1.1278  1.9897
  160SAPE    HY17866   6.208  -0.000   6.707 -0.5508  1.4057 -0.6127
  160SAPE   O3117867   6.093  -0.023   6.887 -0.6760  0.0392  0.2589
  160SAPE   C3117868   6.184  -0.099   6.941  0.0856  0.2458  0.0117
  160SAPE   O3217869   6.278  -0.154   6.881 -0.3711  0.3183  0.6929
  160SAPE   C3217870   6.149  -0.117   7.094  0.6711 -0.5654  0.3859
  160SAPE   H2X17871   6.040  -0.134   7.113  0.9890 -0.5962  2.3777
  160SAPE   H2Y17872   6.178  -0.023   7.145 -0.5636  0.5348 -0.8640
  160SAPE   C2317873   5.643  -0.193   6.845  0.6114 -0.0790  0.0221
  160SAPE   H3R17874   5.541  -0.184   6.802  0.1993  1.9423  1.2636
  160SAPE   H3S17875   5.699  -0.099   6.867  1.5052 -0.8770  1.3648
  160SAPE   C2417876   5.610  -0.275   6.976 -0.7279  0.2916 -0.3877
  160SAPE   H4R17877   5.561  -0.368   6.942 -1.4140  0.4615  0.1191
  160SAPE   H4S17878   5.540  -0.219   7.042 -0.7460  0.0993 -0.2412
  160SAPE   C2517879   5.732  -0.289   7.060 -0.2627  0.1215  0.3667
  160SAPE   H5R17880   5.801  -0.203   7.059  0.4584 -0.4451  0.4717
  160SAPE   C2617881   5.770  -0.404   7.129  0.3089 -0.3281 -0.1137
  160SAPE   H6R17882   5.838  -0.390   7.214 -0.3887 -1.5319  0.6746
  160SAPE   C2717883   5.686  -0.529   7.133  0.2947  0.1526 -0.7287
  160SAPE   H7R17884   5.658  -0.566   7.032  0.8232 -1.1538 -0.4269
  160SAPE   H7S17885   5.588  -0.504   7.179  0.3500  0.0466 -0.5523
  160SAPE   C2817886   5.764  -0.629   7.222 -0.1602 -0.4607  0.9764
  160SAPE   H8R17887   5.825  -0.704   7.169 -0.1820 -0.7231  1.3161
  160SAPE   C2917888   5.757  -0.639   7.356 -0.0096 -0.3772  0.6949
  160SAPE   H9R17889   5.826  -0.717   7.392  0.7371  0.7194  1.6969
  160SAPE  C21017890   5.668  -0.558   7.445  0.2197 -0.2862 -0.6269
  160SAPE  H10R17891   5.613  -0.477   7.394  0.8139  1.3483  1.2257
  160SAPE  H10S17892   5.728  -0.505   7.521  3.0269 -0.3085 -2.6621
  160SAPE  C21117893   5.583  -0.657   7.518  0.2871  0.2535 -0.0862
  160SAPE  H11R17894   5.496  -0.697   7.464  1.3555 -2.2132 -0.1522
  160SAPE  C21217895   5.603  -0.709   7.635 -0.0510  0.3213 -0.1712
  160SAPE  H12R17896   5.537  -0.787   7.677  0.8840 -0.5868 -0.3523
  160SAPE  C21317897   5.717  -0.680   7.726 -0.6001 -0.0683 -0.1540
  160SAPE  H13R17898   5.807  -0.626   7.689 -0.5152  0.3578  0.6553
  160SAPE  H13S17899   5.767  -0.773   7.761 -1.5750 -0.1611  1.0183
  160SAPE  C21417900   5.676  -0.598   7.844 -0.0165 -0.7269  0.5437
  160SAPE  H14R17901   5.659  -0.495   7.810  1.2983 -0.5643  0.3188
  160SAPE  C21517902   5.664  -0.628   7.971  0.4029  0.0935  0.4523
  160SAPE  H15R17903   5.622  -0.549   8.035 -1.1294  0.1090 -0.5176
  160SAPE  C21617904   5.704  -0.765   8.036  0.0246  0.2875 -0.3086
  160SAPE  H16R17905   5.725  -0.749   8.144  0.2488  0.4499 -0.3765
  160SAPE  H16S17906   5.790  -0.809   7.981  0.9071 -1.1389  2.0799
  160SAPE  C21717907   5.593  -0.871   8.021  0.6717  0.4448 -0.3111
  160SAPE  H17R17908   5.587  -0.885   7.911  3.6835  1.0230 -0.6427
  160SAPE  H17S17909   5.498  -0.831   8.063 -0.3511  0.0527 -2.1251
  160SAPE  C21817910   5.614  -1.005   8.100  0.1230  0.2766 -0.0520
  160SAPE  H18R17911   5.648  -0.980   8.202 -1.0517 -1.6656  0.8707
  160SAPE  H18S17912   5.700  -1.056   8.051 -0.4348  0.5740 -1.4069
  160SAPE  C21917913   5.490  -1.107   8.090 -0.7864  0.1849  0.1218
  160SAPE  H19R17914   5.481  -1.120   7.980  3.5738 -2.1223 -0.1830
  160SAPE  H19S17915   5.401  -1.057   8.133 -0.0445 -0.2899  2.3539
  160SAPE  C22017916   5.516  -1.242   8.141  0.4417 -0.0363 -0.1555
  160SAPE  H20R17917   5.528  -1.261   8.250 -0.4556  0.3948  0.0289
  160SAPE  H20S17918   5.599  -1.284   8.080 -0.2532  1.1486 -1.9899
  160SAPE  H20T17919   5.430  -1.308   8.117  1.0609 -0.3175 -1.7082
  160SAPE   C3317920   6.214  -0.244   7.151 -0.2151 -0.4598  0.4389
  160SAPE   H3X17921   6.323  -0.223   7.163 -0.1629 -1.1246  1.2828
  160SAPE   H3Y17922   6.199  -0.334   7.088  0.5875 -0.8135  0.7353
  160SAPE   C3417923   6.164  -0.279   7.291 -0.5620 -0.8955 -0.3643
  160SAPE   H4X17924   6.054  -0.293   7.277 -0.6581  0.9961 -1.9539
  160SAPE   H4Y17925   6.174  -0.191   7.359 -1.2752 -1.5871  0.6600
  160SAPE   C3517926   6.236  -0.405   7.340 -0.4424  0.1156  0.4065
  160SAPE   H5X17927   6.347  -0.397   7.336 -0.4472 -0.0496 -0.2777
  160SAPE   H5Y17928   6.195  -0.495   7.290 -0.7165  1.0649 -1.1709
  160SAPE   C3617929   6.214  -0.432   7.491  0.8570 -0.0408 -0.1955
  160SAPE   H6X17930   6.285  -0.365   7.543  0.2851  1.0793 -0.8042
  160SAPE   H6Y17931   6.255  -0.532   7.515  1.7279  0.7941  2.0222
  160SAPE   C3717932   6.072  -0.413   7.535 -0.9425 -0.5679 -0.4745
  160SAPE   H7X17933   6.020  -0.494   7.480  0.2711 -1.1600 -0.7927
  160SAPE   H7Y17934   6.026  -0.315   7.509 -0.2667  0.5290  2.1458
  160SAPE   C3817935   6.060  -0.424   7.692 -0.2655 -0.5650  0.6854
  160SAPE   H8X17936   5.954  -0.400   7.715 -0.1550 -0.6581  1.3137
  160SAPE   H8Y17937   6.104  -0.335   7.742  0.2859  0.1026 -0.9127
  160SAPE   C3917938   6.099  -0.560   7.750  0.4324 -1.0244 -0.1527
  160SAPE   H9X17939   6.204  -0.582   7.722  1.0583  0.8057  0.5974
  160SAPE   H9Y17940   6.039  -0.631   7.690  0.6809 -0.1984 -1.4185
  160SAPE  C31017941   6.084  -0.580   7.897  0.0688 -0.1283 -0.3556
  160SAPE  H10X17942   5.986  -0.542   7.935  0.0579 -1.3799  0.9847
  160SAPE  H10Y17943   6.155  -0.514   7.951 -1.6865  0.7734  0.9641
  160SAPE  C31117944   6.132  -0.713   7.949 -0.1090  0.4151  0.2619
  160SAPE  H11X17945   6.229  -0.746   7.905 -0.3316 -0.6512  0.5286
  160SAPE  H11Y17946   6.053  -0.788   7.927 -0.1123  0.5341 -0.1430
  160SAPE  C31217947   6.155  -0.713   8.099  0.5887  0.3058  0.4090
  160SAPE  H12X17948   6.058  -0.692   8.150 -1.4801 -1.3106 -2.5287
  160SAPE  H12Y17949   6.219  -0.626   8.126 -0.3554  1.0863  0.1889
  160SAPE  C31317950   6.221  -0.842   8.161 -0.1185  0.4957  0.3211
  160SAPE  H13X17951   6.253  -0.809   8.262 -1.9982  0.1325  1.0824
  160SAPE  H13Y17952   6.309  -0.860   8.095 -0.6559 -1.2170  0.0201
  160SAPE  C31417953   6.136  -0.963   8.158  0.0605  0.9171  0.0926
  160SAPE  H14X17954   6.030  -0.928   8.151 -0.3785 -0.5165 -0.8081
  160SAPE  H14Y17955   6.167  -1.024   8.246  1.9269 -1.2137 -1.9312
  160SAPE  C31517956   6.156  -1.058   8.040 -0.2329 -0.0341  0.0424
  160SAPE  H15X17957   6.252  -1.108   8.060 -0.3524 -0.8492 -1.3016
  160SAPE  H15Y17958   6.157  -0.997   7.947 -0.1144 -0.2484 -0.0974
  160SAPE  C31617959   6.045  -1.153   8.018 -0.2133  0.3940 -0.2662
  160SAPE  H16X17960   6.070  -1.200   7.921  1.4676  0.9408 -0.1261
  160SAPE  H16Y17961   5.947  -1.103   8.004  0.3065  1.8230  0.9234
  160SAPE  C31717962   6.030  -1.249   8.135 -0.2316  0.5103  0.4481
  160SAPE  H17X17963   6.040  -1.197   8.232  0.9035  0.4499  0.3787
  160SAPE  H17Y17964   6.100  -1.335   8.122 -0.3019  0.8259 -2.8345
  160SAPE  C31817965   5.889  -1.309   8.145  0.0338 -0.5026  0.2709
  160SAPE  H18X17966   5.874  -1.376   8.233 -2.5624 -2.8095 -1.7519
  160SAPE  H18Y17967   5.860  -1.364   8.053 -1.8084  0.9725 -0.0806
  160SAPE  H18Z17968   5.820  -1.223   8.149  1.7660  0.9872 -0.3047
  161SOPE     N17969   3.508   3.764  10.286 -0.2511 -0.0951 -0.1721
  161SOPE   HN117970   3.503   3.661  10.283 -0.8626 -0.0946  0.4434
  161SOPE   HN217971   3.446   3.802  10.212  0.5851  0.0763 -0.7936
  161SOPE   HN317972   3.606   3.798  10.278 -0.2201  0.1082  0.8316
  161SOPE   C1217973   3.445   3.812  10.420 -0.4058  0.1770 -0.3253
  161SOPE  H12A17974   3.453   3.725  10.489  0.8846  0.7438  0.2795
  161SOPE  H12B17975   3.338   3.837  10.408 -0.3289 -0.5069 -2.8171
  161SOPE   C1117976   3.510   3.934  10.491 -0.3523 -0.0814  0.0759
  161SOPE  H11A17977   3.473   3.928  10.596 -1.7013 -1.0445 -0.4305
  161SOPE  H11B17978   3.482   4.029  10.441 -0.1679  0.2404  0.5811
  161SOPE     P17979   3.741   3.973  10.613 -0.0243 -0.2064  0.0999
  161SOPE   O1317980   3.651   4.030  10.716  0.6314 -0.1240  0.0255
  161SOPE   O1417981   3.849   4.057  10.564 -0.1301 -0.3535  0.1392
  161SOPE   O1217982   3.651   3.921  10.496  0.0205  0.1166  0.0857
  161SOPE   O1117983   3.799   3.834  10.657  0.1560  0.2506 -0.2686
  161SOPE    C117984   3.937   3.794  10.645  0.1804  0.4191  0.2232
  161SOPE    HA17985   3.952   3.706  10.711  0.6032  1.1415  1.1167
  161SOPE    HB17986   4.007   3.874  10.676  1.1972 -0.2534 -0.2648
  161SOPE    C217987   3.982   3.750  10.499 -0.2102 -0.1672 -0.3775
  161SOPE    HS17988   3.937   3.827  10.433  1.0811  0.3101 -0.7177
  161SOPE   O2117989   3.918   3.619  10.479 -0.1888  0.1661 -0.0531
  161SOPE   C2117990   3.906   3.589  10.351  0.1212 -0.4613  0.3751
  161SOPE   O2217991   3.913   3.667  10.257 -0.8150 -0.5829  0.6492
  161SOPE   C2217992   3.898   3.436  10.342 -0.1934  0.6053  0.2528
  161SOPE   H2R17993   3.831   3.414  10.428  1.5680 -0.1760  1.4906
  161SOPE   H2S17994   4.004   3.404  10.349 -0.0145  1.5620  2.4259
  161SOPE    C317995   4.134   3.762  10.481 -0.0304  0.2642 -0.0468
  161SOPE    HX17996   4.187   3.713  10.565 -0.2822 -0.9703 -0.5827
  161SOPE    HY17997   4.138   3.873  10.474 -1.6561  0.6244  3.0604
  161SOPE   O3117998   4.179   3.714  10.356 -0.7480  0.0776  0.2207
  161SOPE   C3117999   4.254   3.605  10.362 -0.3728 -0.7826  0.3421
  161SOPE   O3218000   4.274   3.533  10.459  0.1335 -0.4347 -0.0357
  161SOPE   C3218001   4.321   3.583  10.227  0.1597 -0.1969 -0.1443
  161SOPE   H2X18002   4.231   3.572  10.164  0.3609 -0.0778 -0.4592
  161SOPE   H2Y18003   4.390   3.496  10.234 -0.7645 -0.9649 -0.5263
  161SOPE   C2318004   3.835   3.400  10.209 -0.4516  0.2815  0.1901
  161SOPE   H3R18005   3.888   3.443  10.121  0.0290 -2.1004 -0.7646
  161SOPE   H3S18006   3.731   3.437  10.207 -0.8288 -0.7994 -0.9870
  161SOPE   C2418007   3.816   3.251  10.194  0.3770 -0.0449  0.3062
  161SOPE   H4R18008   3.901   3.197  10.240  0.3586  0.9015  1.4904
  161SOPE   H4S18009   3.731   3.206  10.249  1.1893 -0.7024  1.0511
  161SOPE   C2518010   3.797   3.211  10.050  0.5936  0.4417 -0.1016
  161SOPE   H5R18011   3.703   3.259  10.015  0.9237  0.6687 -0.6832
  161SOPE   H5S18012   3.882   3.253   9.992  0.3269 -0.3284 -1.0789
  161SOPE   C2618013   3.816   3.058  10.016  0.5042  0.5483  0.4044
  161SOPE   H6R18014   3.908   3.013  10.059  1.7250  1.3320 -1.2832
  161SOPE   H6S18015   3.728   3.009  10.064 -0.3048 -0.7151 -2.1432
  161SOPE   C2718016   3.828   3.036   9.860  0.6195 -0.3377 -0.6927
  161SOPE   H7R18017   3.742   3.083   9.806  0.9950 -0.1203 -1.1122
  161SOPE   H7S18018   3.917   3.089   9.821  0.4010 -0.7347 -1.7901
  161SOPE   C2818019   3.834   2.879   9.838  0.0058  0.1687 -0.8582
  161SOPE   H8R18020   3.929   2.843   9.883 -0.6631 -1.8052 -0.9624
  161SOPE   H8S18021   3.743   2.827   9.875  0.7369 -0.3586  0.2511
  161SOPE   C2918022   3.849   2.861   9.696 -0.9121  0.6350  0.6019
  161SOPE   H9118023   3.937   2.904   9.647 -1.2771 -0.1398 -0.7843
  161SOPE  C21018024   3.772   2.784   9.615  0.5410 -0.2506  0.1966
  161SOPE  H10118025   3.814   2.771   9.514  0.1568 -1.4503  0.1792
  161SOPE  C21118026   3.659   2.688   9.641 -0.2798 -0.2828  0.0230
  161SOPE  H11R18027   3.628   2.679   9.748 -0.3855 -0.6863 -0.0406
  161SOPE  H11S18028   3.672   2.585   9.603 -0.9757 -0.0288 -0.9320
  161SOPE  C21218029   3.527   2.745   9.581 -0.2370  0.0614 -0.2405
  161SOPE  H12R18030   3.519   2.855   9.594  0.2766  0.3234 -1.8430
  161SOPE  H12S18031   3.446   2.695   9.638 -1.5290 -0.5837 -2.5196
  161SOPE  C21318032   3.509   2.714   9.434  0.4303  0.3794 -0.3397
  161SOPE  H13R18033   3.537   2.608   9.421 -1.1928 -0.3665  1.7755
  161SOPE  H13S18034   3.582   2.770   9.372  0.1065 -1.5787 -2.6502
  161SOPE  C21418035   3.370   2.731   9.369 -0.6740 -0.4665  0.2464
  161SOPE  H14R18036   3.361   2.842   9.361 -0.7892 -0.6116 -2.4402
  161SOPE  H14S18037   3.290   2.692   9.436 -2.7470  4.0503  0.8251
  161SOPE  C21518038   3.363   2.675   9.225  0.0833  0.2400  0.0372
  161SOPE  H15R18039   3.393   2.568   9.231  0.7330  0.4490  0.6174
  161SOPE  H15S18040   3.440   2.722   9.160  1.0545 -0.1516  0.8916
  161SOPE  C21618041   3.227   2.686   9.147  0.3836  0.0271 -1.5236
  161SOPE  H16R18042   3.208   2.794   9.135  0.9853  0.4472  0.8257
  161SOPE  H16S18043   3.145   2.631   9.198  0.8943  1.6709  1.2851
  161SOPE  C21718044   3.251   2.609   9.020 -0.8126  0.0722 -0.2122
  161SOPE  H17R18045   3.248   2.499   9.037 -0.1593  0.4247  2.5453
  161SOPE  H17S18046   3.353   2.635   8.987 -0.3678 -2.2030 -0.8412
  161SOPE  C21818047   3.155   2.662   8.911  0.1690 -0.1884 -0.8895
  161SOPE  H18R18048   3.052   2.645   8.950  0.0885  2.5955  0.3283
  161SOPE  H18S18049   3.175   2.611   8.814 -0.0500 -0.7317 -0.6514
  161SOPE  H18T18050   3.167   2.770   8.888  0.6453  0.7731  3.1161
  161SOPE   C3318051   4.412   3.709  10.186  0.5727  0.2362 -0.9898
  161SOPE   H3X18052   4.494   3.715  10.261 -2.6220 -1.9081  3.0928
  161SOPE   H3Y18053   4.353   3.801  10.205  1.4240  0.3482  1.4046
  161SOPE   C3418054   4.453   3.708  10.037  0.2623  0.2118 -0.1799
  161SOPE   H4X18055   4.521   3.620  10.023  1.2733  0.9740 -0.2095
  161SOPE   H4Y18056   4.513   3.797  10.009  0.5085 -0.0007 -0.3408
  161SOPE   C3518057   4.339   3.694   9.932  0.3571  0.3062 -0.2408
  161SOPE   H5X18058   4.276   3.785   9.926  0.5907  0.5497  0.8513
  161SOPE   H5Y18059   4.266   3.619   9.969 -1.2691  3.1391  2.8280
  161SOPE   C3618060   4.385   3.653   9.788  0.9474  0.1458  0.2187
  161SOPE   H6X18061   4.429   3.553   9.811 -1.4540 -0.7450  1.3542
  161SOPE   H6Y18062   4.462   3.726   9.755  0.9281  0.1653  0.2165
  161SOPE   C3718063   4.275   3.643   9.683  0.2195 -0.3581 -0.2097
  161SOPE   H7X18064   4.228   3.743   9.675 -2.6084 -1.3171  2.4520
  161SOPE   H7Y18065   4.200   3.568   9.716 -0.3173  0.3699  0.2712
  161SOPE   C3818066   4.326   3.599   9.545 -0.0326  0.4725  0.4513
  161SOPE   H8X18067   4.381   3.504   9.563  0.6823  0.7000 -0.4507
  161SOPE   H8Y18068   4.392   3.667   9.487  1.6815 -1.3920  0.1019
  161SOPE   C3918069   4.221   3.565   9.442  0.5697  0.3159  0.2527
  161SOPE   H9X18070   4.185   3.664   9.406  1.5909  2.0046  3.4799
  161SOPE   H9Y18071   4.138   3.509   9.490  0.6605 -1.0447 -1.1038
  161SOPE  C31018072   4.279   3.488   9.326  0.0412  0.0123 -0.4849
  161SOPE  H10X18073   4.330   3.396   9.362 -0.9117 -0.1264  0.5751
  161SOPE  H10Y18074   4.362   3.553   9.291  1.0217 -0.3931  0.9900
  161SOPE  C31118075   4.176   3.472   9.210 -0.3442  0.4119 -0.2437
  161SOPE  H11X18076   4.131   3.571   9.192  1.1624  1.0377 -0.7236
  161SOPE  H11Y18077   4.090   3.409   9.243 -0.3805  0.9522  0.7366
  161SOPE  C31218078   4.234   3.414   9.081  0.0717 -0.3198  0.7283
  161SOPE  H12X18079   4.299   3.326   9.098 -1.3928 -2.1395 -2.2360
  161SOPE  H12Y18080   4.306   3.490   9.043 -1.3432  1.0975  0.8224
  161SOPE  C31318081   4.128   3.399   8.969 -0.1338 -0.4121 -0.5604
  161SOPE  H13X18082   4.048   3.332   9.007  1.5497 -2.1306  0.0892
  161SOPE  H13Y18083   4.180   3.351   8.884  2.3869 -1.9047  1.6648
  161SOPE  C31418084   4.072   3.545   8.952  0.4572  0.7135  0.5656
  161SOPE  H14X18085   4.150   3.619   8.977 -0.7697  1.7007  1.5852
  161SOPE  H14Y18086   3.987   3.572   9.018  0.4683  0.0095  0.8728
  161SOPE  C31518087   4.032   3.571   8.803 -0.0046  0.1556  0.6145
  161SOPE  H15X18088   4.118   3.545   8.738 -0.6020  0.9396 -0.5043
  161SOPE  H15Y18089   4.008   3.677   8.783 -1.6417 -0.4695 -1.0577
  161SOPE  C31618090   3.917   3.482   8.758  0.1409 -0.5444 -0.4084
  161SOPE  H16X18091   3.943   3.379   8.792  1.0357 -0.5378 -1.0183
  161SOPE  H16Y18092   3.903   3.481   8.648  2.7206  0.0120 -0.8262
  161SOPE  C31718093   3.780   3.519   8.820 -0.1952 -0.3134 -0.2604
  161SOPE  H17X18094   3.789   3.535   8.929 -0.5676 -0.4352 -0.2095
  161SOPE  H17Y18095   3.720   3.428   8.802  0.2566 -0.2590 -2.3652
  161SOPE  C31818096   3.708   3.638   8.751  0.1603 -0.1106 -0.2121
  161SOPE  H18X18097   3.700   3.637   8.641  0.2536 -0.4269 -0.2167
  161SOPE  H18Y18098   3.760   3.735   8.766 -2.6084  1.3446  0.7418
  161SOPE  H18Z18099   3.604   3.641   8.791 -0.5400  0.3621 -1.9816
  162SOPE     N18100   0.820   6.320  10.950 -0.2982  0.2698 -0.3988
  162SOPE   HN118101   0.895   6.322  11.022 -0.2813 -0.4529 -0.3885
  162SOPE   HN218102   0.788   6.417  10.929 -0.3204  0.4161  0.3033
  162SOPE   HN318103   0.747   6.255  10.986  1.6618 -1.2620  1.0119
  162SOPE   C1218104   0.904   6.259  10.838  0.2997 -0.0019  0.5249
  162SOPE  H12A18105   0.857   6.285  10.742 -1.5565  0.9925  1.6614
  162SOPE  H12B18106   0.894   6.148  10.843 -0.7642  0.0718  0.2233
  162SOPE   C1118107   1.056   6.316  10.833  0.6862  0.5612  0.0610
  162SOPE  H11A18108   1.058   6.426  10.821 -1.0158  1.0360  3.0863
  162SOPE  H11B18109   1.105   6.272  10.743 -0.3914 -0.6812  0.0428
  162SOPE     P18110   1.138   6.369  11.068  0.3003  0.0191 -0.2681
  162SOPE   O1318111   1.239   6.321  11.160  0.3335 -0.4376 -0.0699
  162SOPE   O1418112   1.001   6.384  11.122 -0.2845 -0.1151  0.6082
  162SOPE   O1218113   1.131   6.272  10.943 -0.5636  0.0686 -0.2302
  162SOPE   O1118114   1.176   6.506  11.007  0.0622 -0.8041 -0.0839
  162SOPE    C118115   1.315   6.510  10.954  0.5549 -0.5491 -0.2890
  162SOPE    HA18116   1.336   6.435  10.874 -1.6999 -1.4423 -0.1160
  162SOPE    HB18117   1.384   6.482  11.037 -1.0621 -1.4870  0.8110
  162SOPE    C218118   1.354   6.650  10.907 -0.1849 -0.6318 -0.2249
  162SOPE    HS18119   1.334   6.731  10.981  2.2604 -0.8838  0.8019
  162SOPE   O2118120   1.295   6.678  10.780  0.6453  0.4584  0.2362
  162SOPE   C2118121   1.265   6.805  10.755  0.6379 -0.2773 -0.1216
  162SOPE   O2218122   1.304   6.898  10.825  0.8069 -0.7963 -0.2537
  162SOPE   C2218123   1.195   6.827  10.624  0.3872  0.9169 -0.2965
  162SOPE   H2R18124   1.272   6.811  10.545  1.0148  0.8553  0.3130
  162SOPE   H2S18125   1.155   6.930  10.607 -1.9340  0.0266 -0.5565
  162SOPE    C318126   1.508   6.667  10.892 -0.5377  0.1594  0.5599
  162SOPE    HX18127   1.552   6.632  10.988  1.6323  2.1470  0.3844
  162SOPE    HY18128   1.529   6.776  10.900  1.4354 -0.0144 -1.5190
  162SOPE   O3118129   1.565   6.600  10.777  0.3300  0.0186  0.1020
  162SOPE   C3118130   1.606   6.684  10.682  0.4888 -0.1295 -0.6605
  162SOPE   O3218131   1.606   6.805  10.696 -0.4308 -0.3495  0.3885
  162SOPE   C3218132   1.653   6.607  10.561 -0.0614 -0.4005  0.1628
  162SOPE   H2X18133   1.580   6.523  10.556 -1.9871  1.2517 -2.1357
  162SOPE   H2Y18134   1.748   6.562  10.596  0.5270  0.7246  0.0584
  162SOPE   C2318135   1.069   6.735  10.610  0.2794  0.1699 -0.1496
  162SOPE   H3R18136   0.998   6.740  10.696  0.0650 -1.0103 -0.2477
  162SOPE   H3S18137   1.101   6.629  10.612 -0.7065 -0.1338  0.8062
  162SOPE   C2418138   0.990   6.762  10.482  0.6274 -0.0203  0.2419
  162SOPE   H4R18139   0.901   6.697  10.494  1.4122 -1.2946 -0.5696
  162SOPE   H4S18140   0.953   6.866  10.473  0.0449 -0.2781 -0.3708
  162SOPE   C2518141   1.063   6.713  10.357 -0.5682  0.8743 -0.2586
  162SOPE   H5R18142   1.144   6.785  10.331  2.0606  0.0360  4.4339
  162SOPE   H5S18143   1.112   6.614  10.371 -1.8707  0.3348  0.6333
  162SOPE   C2618144   0.969   6.709  10.238 -0.3379  0.1038  0.3372
  162SOPE   H6R18145   0.896   6.628  10.260  1.0406 -1.5063 -0.7934
  162SOPE   H6S18146   0.909   6.801  10.217  1.1246  1.0522  0.1423
  162SOPE   C2718147   1.039   6.669  10.107  0.5120  0.4993  0.1300
  162SOPE   H7R18148   1.084   6.764  10.072  0.8708  1.1486  2.1784
  162SOPE   H7S18149   1.128   6.604  10.123  1.0546  0.7116 -1.8371
  162SOPE   C2818150   0.950   6.604   9.998 -0.4349 -0.6676 -0.4114
  162SOPE   H8R18151   0.884   6.539  10.059 -0.7297  0.0316  0.0253
  162SOPE   H8S18152   0.881   6.680   9.955  2.7405  1.7593 -1.5725
  162SOPE   C2918153   1.021   6.524   9.895 -0.4707 -0.2070 -0.6012
  162SOPE   H9118154   1.115   6.481   9.931 -0.3156  0.5362 -0.1155
  162SOPE  C21018155   0.984   6.505   9.768  0.7182 -0.4342  0.0777
  162SOPE  H10118156   1.048   6.451   9.696  0.6636 -1.8617  1.0736
  162SOPE  C21118157   0.863   6.562   9.703  0.7473  0.0441  0.7758
  162SOPE  H11R18158   0.809   6.630   9.772  0.1342  0.6256 -0.2434
  162SOPE  H11S18159   0.802   6.474   9.676  2.9971 -1.0229 -1.1980
  162SOPE  C21218160   0.888   6.652   9.576 -0.7893  0.2316 -0.9343
  162SOPE  H12R18161   0.956   6.737   9.597 -1.5221  1.0437 -1.7497
  162SOPE  H12S18162   0.788   6.699   9.560 -1.2197  0.9049  2.7844
  162SOPE  C21318163   0.924   6.582   9.450  0.6100  0.2145  0.0603
  162SOPE  H13R18164   0.848   6.502   9.440  1.6260 -0.4765 -3.2388
  162SOPE  H13S18165   1.015   6.522   9.469 -0.0210 -1.1201 -0.9837
  162SOPE  C21418166   0.931   6.661   9.328  0.1043  0.3834  0.5945
  162SOPE  H14R18167   1.000   6.747   9.343 -0.7441  0.9456  1.3856
  162SOPE  H14S18168   0.835   6.715   9.323  0.9890  2.0870  1.1772
  162SOPE  C21518169   0.958   6.590   9.197  0.4519  0.5576 -0.1847
  162SOPE  H15R18170   0.867   6.539   9.159 -0.0205  1.0937  0.2125
  162SOPE  H15S18171   1.032   6.509   9.215 -2.4982 -2.5167 -0.8148
  162SOPE  C21618172   1.029   6.689   9.097  0.0797  0.1575  1.0460
  162SOPE  H16R18173   1.128   6.709   9.145 -1.1083 -0.4543  3.9745
  162SOPE  H16S18174   0.970   6.782   9.109  0.3162  0.2713  1.3687
  162SOPE  C21718175   1.050   6.637   8.948  1.0665  0.1683  0.4413
  162SOPE  H17R18176   0.949   6.609   8.911  0.0803  1.6066  1.9144
  162SOPE  H17S18177   1.125   6.555   8.948  2.9484  1.6807 -3.2860
  162SOPE  C21818178   1.086   6.746   8.849  0.0594 -0.2305 -0.3167
  162SOPE  H18R18179   1.017   6.832   8.840 -0.9336 -0.6010  2.6075
  162SOPE  H18S18180   1.115   6.708   8.748 -0.6184  0.8236 -0.9259
  162SOPE  H18T18181   1.168   6.801   8.899 -0.2305 -0.7144  0.7081
  162SOPE   C3318182   1.685   6.689  10.431 -0.0507 -0.2780  0.9490
  162SOPE   H3X18183   1.731   6.624  10.355 -0.2427  0.0361  0.5611
  162SOPE   H3Y18184   1.756   6.774  10.444  0.5946 -0.5913 -0.4508
  162SOPE   C3418185   1.562   6.747  10.365  0.3461  0.4650 -0.5500
  162SOPE   H4X18186   1.594   6.818  10.286 -3.4816  1.6336 -1.2510
  162SOPE   H4Y18187   1.500   6.804  10.438 -0.6656  0.6581 -1.5275
  162SOPE   C3518188   1.465   6.639  10.297 -0.2067 -0.4520 -0.3370
  162SOPE   H5X18189   1.360   6.664  10.322  0.0449  0.5832 -0.2764
  162SOPE   H5Y18190   1.488   6.545  10.351  0.6675 -0.2525 -0.3357
  162SOPE   C3618191   1.477   6.614  10.147 -0.1818  0.7426  0.0327
  162SOPE   H6X18192   1.404   6.533  10.127  1.0245  0.1300 -2.2733
  162SOPE   H6Y18193   1.577   6.575  10.118 -0.0873 -1.0284  2.4790
  162SOPE   C3718194   1.441   6.731  10.053  0.0364 -0.1821  0.6661
  162SOPE   H7X18195   1.520   6.809  10.052 -0.8832  0.8795 -2.7568
  162SOPE   H7Y18196   1.344   6.771  10.088 -0.4499 -0.8439  0.0970
  162SOPE   C3818197   1.401   6.689   9.912 -0.6730 -0.0568  0.6221
  162SOPE   H8X18198   1.387   6.776   9.845 -0.2705 -2.3380 -2.6976
  162SOPE   H8Y18199   1.308   6.628   9.923 -1.4880  1.1892  0.9551
  162SOPE   C3918200   1.501   6.600   9.829  0.4535 -0.4842  0.7366
  162SOPE   H9X18201   1.545   6.519   9.891 -1.3098 -4.3513 -2.6670
  162SOPE   H9Y18202   1.589   6.659   9.795 -0.5142  0.6816  0.1954
  162SOPE  C31018203   1.435   6.532   9.715 -0.5737 -0.8112 -0.1068
  162SOPE  H10X18204   1.338   6.488   9.749 -0.6098  0.7708  2.0457
  162SOPE  H10Y18205   1.516   6.466   9.678  0.9160 -0.5283  2.4567
  162SOPE  C31118206   1.413   6.641   9.606  0.6152 -0.2771  0.7941
  162SOPE  H11X18207   1.506   6.695   9.581  0.0090  1.3634  1.9019
  162SOPE  H11Y18208   1.353   6.724   9.649  0.5615 -0.4242  1.0103
  162SOPE  C31218209   1.356   6.577   9.477 -0.6165  0.5377 -0.3403
  162SOPE  H12X18210   1.264   6.521   9.502  0.0445 -0.4072  0.0062
  162SOPE  H12Y18211   1.432   6.499   9.455 -0.0031  1.1254 -0.3285
  162SOPE  C31318212   1.320   6.680   9.367 -0.0174  0.2068 -0.6412
  162SOPE  H13X18213   1.236   6.734   9.416  1.1480 -0.9908  3.0779
  162SOPE  H13Y18214   1.284   6.625   9.278 -0.6511  0.5581 -0.6111
  162SOPE  C31418215   1.430   6.776   9.318  0.7374  0.1480 -1.1627
  162SOPE  H14X18216   1.473   6.833   9.403 -0.0788 -0.1732 -0.5220
  162SOPE  H14Y18217   1.392   6.852   9.245 -2.9121  1.3369  1.6941
  162SOPE  C31518218   1.534   6.685   9.250  0.5396  0.3728  0.2555
  162SOPE  H15X18219   1.478   6.633   9.170  2.1793 -0.2019 -0.5549
  162SOPE  H15Y18220   1.568   6.598   9.311 -1.1528 -0.1326  0.5323
  162SOPE  C31618221   1.657   6.755   9.203 -0.8812 -0.7684  0.5174
  162SOPE  H16X18222   1.637   6.827   9.121 -0.0290 -0.4909  0.5431
  162SOPE  H16Y18223   1.730   6.691   9.147  1.8207  1.4508  1.2881
  162SOPE  C31718224   1.741   6.827   9.304 -0.2022  0.3695 -0.0481
  162SOPE  H17X18225   1.670   6.904   9.341  0.4329  0.3755  1.2327
  162SOPE  H17Y18226   1.832   6.878   9.266 -0.4358  0.7178 -0.1452
  162SOPE  C31818227   1.789   6.722   9.404  0.8013 -0.6439 -0.1849
  162SOPE  H18X18228   1.841   6.770   9.490  1.2950  1.1180 -1.4112
  162SOPE  H18Y18229   1.867   6.663   9.352  1.7235  0.3811 -0.0095
  162SOPE  H18Z18230   1.717   6.653   9.453  0.7873 -0.6946 -0.2768
  163SOPE     N18231   6.521   6.774  10.517 -0.1193  0.3719  0.5463
  163SOPE   HN118232   6.510   6.849  10.446 -0.3617 -0.0622  0.1246
  163SOPE   HN218233   6.484   6.689  10.470  0.6991 -0.5431  1.5155
  163SOPE   HN318234   6.467   6.791  10.605 -0.9700 -2.8658  0.7720
  163SOPE   C1218235   6.665   6.747  10.546  0.0228  0.2563 -0.1079
  163SOPE  H12A18236   6.722   6.754  10.451 -0.0356 -0.2276 -0.1779
  163SOPE  H12B18237   6.672   6.641  10.576  0.3689  0.3776  0.2453
  163SOPE   C1118238   6.719   6.830  10.659  0.8562 -0.6313 -0.4072
  163SOPE  H11A18239   6.824   6.797  10.677  0.6516 -0.7977  0.5403
  163SOPE  H11B18240   6.657   6.824  10.751  2.7051 -0.1328  0.9200
  163SOPE     P18241   6.783   7.075  10.710  0.1145 -0.0343 -0.0152
  163SOPE   O1318242   6.776   7.042  10.853  0.0171 -0.0747 -0.9566
  163SOPE   O1418243   6.730   7.210  10.671 -0.5685 -0.2628 -0.0978
  163SOPE   O1218244   6.712   6.967  10.618 -0.8922  0.1393 -0.6015
  163SOPE   O1118245   6.932   7.064  10.667 -0.6721 -0.1463  0.0872
  163SOPE    C118246   6.974   7.064  10.529 -0.4188 -0.0199 -0.7103
  163SOPE    HA18247   6.891   7.062  10.456  0.1810 -1.0319 -1.3804
  163SOPE    HB18248   7.029   6.970  10.507  0.1326  0.3160 -0.7583
  163SOPE    C218249   7.078   7.178  10.501  0.0426  0.1475 -0.7221
  163SOPE    HS18250   7.018   7.266  10.533 -1.4069 -0.9997 -0.1235
  163SOPE   O2118251   7.100   7.192  10.357  0.3386  0.4791 -0.2916
  163SOPE   C2118252   7.161   7.297  10.323 -0.1111 -0.0814 -0.5687
  163SOPE   O2218253   7.185   7.388  10.404 -0.4963 -0.2537  1.0028
  163SOPE   C2218254   7.188   7.299  10.169 -0.1704  0.5457  0.0544
  163SOPE   H2R18255   7.113   7.244  10.108  1.2351 -0.8286 -0.5104
  163SOPE   H2S18256   7.288   7.253  10.150 -1.4077 -2.0061 -0.7145
  163SOPE    C318257   7.211   7.149  10.584 -0.0853 -0.6368  0.0821
  163SOPE    HX18258   7.192   7.156  10.693  2.1436  0.4466  0.4598
  163SOPE    HY18259   7.285   7.228  10.557  1.4022 -2.3485 -1.0299
  163SOPE   O3118260   7.264   7.017  10.560  0.1744 -0.2244  0.5735
  163SOPE   C3118261   7.348   6.999  10.457 -0.2395  0.2326  0.3597
  163SOPE   O3218262   7.386   7.089  10.384  0.0614 -0.6696  0.3239
  163SOPE   C3218263   7.395   6.859  10.449 -0.8865  0.2371  0.5661
  163SOPE   H2X18264   7.314   6.786  10.427  0.0020  0.2162 -3.2489
  163SOPE   H2Y18265   7.443   6.838  10.547  0.9679  2.7763  0.3236
  163SOPE   C2318266   7.175   7.446  10.119  0.0673  0.2303  0.1422
  163SOPE   H3R18267   7.267   7.504  10.141  1.3628 -2.0398  1.0395
  163SOPE   H3S18268   7.093   7.500  10.171  2.1810  3.5203  0.3570
  163SOPE   C2418269   7.149   7.460   9.964 -0.0356 -0.0588  0.1570
  163SOPE   H4R18270   7.068   7.386   9.947 -1.2688  0.8798  1.6009
  163SOPE   H4S18271   7.118   7.563   9.937 -0.7287 -0.5929 -1.1685
  163SOPE   C2518272   7.266   7.441   9.870 -0.0952 -0.3675  0.0749
  163SOPE   H5R18273   7.338   7.515   9.912 -0.4918  0.1190 -0.0805
  163SOPE   H5S18274   7.305   7.340   9.892 -0.2741 -0.5304 -0.3533
  163SOPE   C2618275   7.234   7.463   9.721  0.8957 -0.9392 -0.0572
  163SOPE   H6R18276   7.128   7.429   9.711  0.6720 -0.4731  0.6816
  163SOPE   H6S18277   7.233   7.571   9.698 -0.6260 -0.8124  0.5027
  163SOPE   C2718278   7.327   7.394   9.628 -0.5308  0.9310  0.5771
  163SOPE   H7R18279   7.436   7.408   9.643 -0.1417 -0.4589 -0.6312
  163SOPE   H7S18280   7.304   7.285   9.632 -0.5516  0.9165  0.1478
  163SOPE   C2818281   7.316   7.449   9.484  0.0288 -0.4452  0.1863
  163SOPE   H8R18282   7.367   7.548   9.485 -0.3207 -0.2419 -0.8547
  163SOPE   H8S18283   7.375   7.377   9.424  1.5066 -0.0257  1.0800
  163SOPE   C2918284   7.173   7.459   9.438  0.5040 -0.0224  0.5424
  163SOPE   H9118285   7.113   7.549   9.462  1.0952  1.1767 -2.1290
  163SOPE  C21018286   7.105   7.384   9.346 -0.2485  0.3052  0.3670
  163SOPE  H10118287   7.008   7.416   9.304  0.2726 -1.8362 -2.8794
  163SOPE  C21118288   7.144   7.273   9.260  0.5376  0.6957  1.0539
  163SOPE  H11R18289   7.079   7.183   9.272 -1.1128  1.7227  0.1200
  163SOPE  H11S18290   7.251   7.246   9.279 -0.3476 -2.7905  1.8478
  163SOPE  C21218291   7.144   7.302   9.113 -0.3926 -0.1455 -0.4153
  163SOPE  H12R18292   7.224   7.245   9.060 -1.9653 -1.1414 -1.8354
  163SOPE  H12S18293   7.171   7.404   9.081  0.8485 -0.6285 -0.9987
  163SOPE  C21318294   7.013   7.257   9.046 -0.1378 -0.3622 -0.3614
  163SOPE  H13R18295   6.931   7.317   9.091 -1.3443 -0.9126 -1.7339
  163SOPE  H13S18296   6.987   7.151   9.063 -1.6162  0.2159  1.2738
  163SOPE  C21418297   7.016   7.281   8.889  0.2040 -0.3769  0.0088
  163SOPE  H14R18298   7.047   7.384   8.861 -0.6349 -0.1441 -0.0875
  163SOPE  H14S18299   6.913   7.254   8.859  0.5786 -1.3540 -0.4230
  163SOPE  C21518300   7.113   7.188   8.811  0.7585 -0.6835 -0.0955
  163SOPE  H15R18301   7.153   7.112   8.880  0.5113 -1.2443 -0.5628
  163SOPE  H15S18302   7.194   7.253   8.771  1.7095 -2.5384 -1.2754
  163SOPE  C21618303   7.045   7.114   8.692 -0.4879 -1.0945 -0.2934
  163SOPE  H16R18304   6.996   7.185   8.622 -0.5695 -0.1090  0.7340
  163SOPE  H16S18305   6.972   7.038   8.726  2.1252 -3.4341  0.5406
  163SOPE  C21718306   7.146   7.030   8.612 -0.3778  0.0202 -0.2634
  163SOPE  H17R18307   7.196   6.963   8.685  1.7689  1.1397 -0.6332
  163SOPE  H17S18308   7.226   7.096   8.573 -0.3103 -0.2401 -0.5737
  163SOPE  C21818309   7.095   6.956   8.487 -0.1483 -0.1745 -0.3216
  163SOPE  H18R18310   7.066   7.037   8.416 -0.5315 -0.1855 -0.1816
  163SOPE  H18S18311   7.014   6.883   8.506  1.2241 -1.5719  0.4184
  163SOPE  H18T18312   7.171   6.899   8.429 -0.7298 -0.0255 -1.2418
  163SOPE   C3318313   7.508   6.850  10.344 -0.4066  0.7940 -0.6904
  163SOPE   H3X18314   7.559   6.753  10.365 -2.0664  0.1950  0.8165
  163SOPE   H3Y18315   7.574   6.938  10.351 -0.8663  1.0064  1.3134
  163SOPE   C3418316   7.453   6.827  10.207  0.5935 -0.6186  0.0051
  163SOPE   H4X18317   7.535   6.840  10.132 -0.9405 -0.7600 -1.7693
  163SOPE   H4Y18318   7.375   6.898  10.175  1.5727  0.8085  0.6785
  163SOPE   C3518319   7.411   6.684  10.178 -0.0380 -0.3746 -0.2054
  163SOPE   H5X18320   7.323   6.667  10.244  1.2399 -1.5147  1.3023
  163SOPE   H5Y18321   7.490   6.611  10.204 -0.1723 -0.8230 -1.0191
  163SOPE   C3618322   7.380   6.673  10.028  0.0493  0.7162 -0.3720
  163SOPE   H6X18323   7.475   6.669   9.969  0.2795 -1.9519  0.0795
  163SOPE   H6Y18324   7.321   6.765  10.007  0.3239  1.0917  0.4827
  163SOPE   C3718325   7.291   6.551   9.994  0.2304  0.0644  0.5512
  163SOPE   H7X18326   7.192   6.552  10.042 -0.0786 -1.3961 -0.0100
  163SOPE   H7Y18327   7.349   6.467  10.039 -2.6608 -0.8512  2.8174
  163SOPE   C3818328   7.281   6.539   9.835  0.3281 -0.3379 -0.1099
  163SOPE   H8X18329   7.264   6.434   9.802  1.5136  0.1302 -2.4005
  163SOPE   H8Y18330   7.377   6.579   9.794  1.0349 -0.1727  1.5984
  163SOPE   C3918331   7.169   6.636   9.782  0.0336  0.5037 -0.2899
  163SOPE   H9X18332   7.167   6.726   9.846  1.3890  0.1580  0.2945
  163SOPE   H9Y18333   7.079   6.578   9.810  0.3354  0.0062 -0.3352
  163SOPE  C31018334   7.171   6.661   9.629 -0.5341  0.0157 -0.0355
  163SOPE  H10X18335   7.071   6.702   9.604 -1.1243 -0.2922  1.7098
  163SOPE  H10Y18336   7.204   6.571   9.572  1.5187  0.0142  1.0527
  163SOPE  C31118337   7.267   6.777   9.588 -0.1834 -0.3266  0.9799
  163SOPE  H11X18338   7.371   6.737   9.590  0.2732  0.7838  0.0540
  163SOPE  H11Y18339   7.269   6.856   9.665 -1.7052 -0.1437  0.8647
  163SOPE  C31218340   7.247   6.836   9.446  0.2452 -0.0743 -0.3529
  163SOPE  H12X18341   7.302   6.932   9.442 -1.6265  1.1425  1.3693
  163SOPE  H12Y18342   7.140   6.867   9.442  0.5915  1.2869  0.3039
  163SOPE  C31318343   7.262   6.736   9.328  0.6444 -0.1799 -0.1934
  163SOPE  H13X18344   7.199   6.646   9.338  0.5822 -0.1213 -0.0682
  163SOPE  H13Y18345   7.368   6.701   9.323  1.2850  1.8102 -2.6882
  163SOPE  C31418346   7.235   6.787   9.185 -0.6077 -0.0471  0.4647
  163SOPE  H14X18347   7.206   6.894   9.181  0.0208  0.1636  1.3117
  163SOPE  H14Y18348   7.151   6.729   9.141  0.2721  1.5961 -3.8498
  163SOPE  C31518349   7.347   6.759   9.091  1.1442 -0.1988 -0.1576
  163SOPE  H15X18350   7.382   6.654   9.097  0.7540 -0.3059  0.2893
  163SOPE  H15Y18351   7.430   6.823   9.127  2.0106  0.1123 -2.4798
  163SOPE  C31618352   7.322   6.774   8.935  0.2039  0.1318  0.3653
  163SOPE  H16X18353   7.279   6.874   8.913 -2.2823 -1.0117 -0.3893
  163SOPE  H16Y18354   7.249   6.696   8.902 -0.5868  1.1130 -0.2615
  163SOPE  C31718355   7.454   6.763   8.857 -0.2976  1.0892 -0.1172
  163SOPE  H17X18356   7.491   6.660   8.877  2.1291  1.7400 -0.8474
  163SOPE  H17Y18357   7.518   6.841   8.906 -0.8916  1.8927 -0.5963
  163SOPE  C31818358   7.436   6.779   8.708 -0.3764 -0.5622 -0.0839
  163SOPE  H18X18359   7.378   6.701   8.654 -2.0313  1.5674 -1.5768
  163SOPE  H18Y18360   7.540   6.794   8.673 -0.1344 -0.2191  0.7772
  163SOPE  H18Z18361   7.388   6.874   8.677 -0.0173 -0.6707 -1.0015
  164SOPE     N18362   2.365   4.123  10.734  0.5678  0.5114 -0.5511
  164SOPE   HN118363   2.426   4.061  10.676  0.4261 -0.3343  0.1647
  164SOPE   HN218364   2.368   4.069  10.823  0.0895 -0.5603 -1.1629
  164SOPE   HN318365   2.268   4.118  10.699  0.8718  1.0482 -1.4934
  164SOPE   C1218366   2.427   4.266  10.746  0.2395  0.4328 -0.5964
  164SOPE  H12A18367   2.534   4.259  10.718  0.4595  0.5445  0.2137
  164SOPE  H12B18368   2.433   4.291  10.854  0.7145  0.7470 -0.6944
  164SOPE   C1118369   2.356   4.370  10.659 -0.2579  0.1347 -0.0768
  164SOPE  H11A18370   2.398   4.472  10.671 -1.1112  0.3937  0.9266
  164SOPE  H11B18371   2.248   4.382  10.685  0.0118 -1.1726  1.8402
  164SOPE     P18372   2.355   4.425  10.413  0.0237 -0.0999  0.1644
  164SOPE   O1318373   2.488   4.467  10.358  0.4629  0.4123  0.0369
  164SOPE   O1418374   2.257   4.527  10.453  0.3642  0.0909  0.7123
  164SOPE   O1218375   2.371   4.319  10.529  0.6803  0.0265  0.3353
  164SOPE   O1118376   2.292   4.320  10.314  0.4520 -0.3749  0.7129
  164SOPE    C118377   2.176   4.355  10.234 -0.2152 -0.0168  0.1173
  164SOPE    HA18378   2.175   4.465  10.218  1.1800 -0.0845 -0.6096
  164SOPE    HB18379   2.079   4.335  10.284 -0.1004 -2.3711 -0.4914
  164SOPE    C218380   2.184   4.295  10.093  0.5842 -0.6269  0.0857
  164SOPE    HS18381   2.199   4.186  10.106 -0.2201 -1.0746 -2.1592
  164SOPE   O2118382   2.294   4.364  10.029  0.2386  0.2169  0.2443
  164SOPE   C2118383   2.409   4.295  10.038 -0.2067 -0.1513  0.3185
  164SOPE   O2218384   2.421   4.188  10.093  0.0954 -0.5247 -0.8328
  164SOPE   C2218385   2.520   4.369   9.979 -0.5086 -0.2477 -0.2591
  164SOPE   H2R18386   2.602   4.357  10.053  0.3935  1.9948 -0.7896
  164SOPE   H2S18387   2.490   4.476   9.977 -1.9662 -0.6404 -1.3215
  164SOPE    C318388   2.055   4.317  10.017  0.1030  0.1905 -0.6472
  164SOPE    HX18389   2.053   4.424   9.987 -0.3496  0.3815  0.0536
  164SOPE    HY18390   1.968   4.299  10.083 -0.1963 -1.3894 -1.4023
  164SOPE   O3118391   2.044   4.232   9.905  0.7059 -0.1658  0.3416
  164SOPE   C3118392   1.990   4.288   9.795  0.5215 -0.1400  0.8192
  164SOPE   O3218393   1.964   4.407   9.786 -0.1473  0.4948  0.0400
  164SOPE   C3218394   1.967   4.174   9.687 -0.1575 -0.6670  0.5083
  164SOPE   H2X18395   2.000   4.074   9.723 -0.6837 -0.6727  0.9935
  164SOPE   H2Y18396   2.038   4.196   9.604 -1.0108 -2.1156 -0.6532
  164SOPE   C2318397   2.560   4.314   9.839 -0.3090 -0.1404 -0.8459
  164SOPE   H3R18398   2.605   4.213   9.841  1.9110  0.6812 -3.5477
  164SOPE   H3S18399   2.644   4.378   9.803 -1.4552  2.6781  1.1093
  164SOPE   C2418400   2.446   4.332   9.748  0.2833 -0.1446  0.7028
  164SOPE   H4R18401   2.372   4.251   9.765  1.4851 -1.5830 -0.6440
  164SOPE   H4S18402   2.398   4.430   9.773  1.3806  0.1179  1.8578
  164SOPE   C2518403   2.486   4.322   9.602  0.5085 -0.0595 -0.2570
  164SOPE   H5R18404   2.567   4.396   9.582 -0.2779  1.1260  0.7282
  164SOPE   H5S18405   2.520   4.219   9.578 -1.8011 -0.4235 -2.3821
  164SOPE   C2618406   2.367   4.347   9.501 -0.2599 -0.9031  0.2182
  164SOPE   H6R18407   2.404   4.338   9.396 -2.7442  0.0036 -0.8150
  164SOPE   H6S18408   2.293   4.267   9.522 -0.2492 -1.4009 -1.4410
  164SOPE   C2718409   2.303   4.492   9.509 -0.1050 -0.3534  0.1540
  164SOPE   H7R18410   2.257   4.503   9.609 -0.8058  0.7550 -0.2656
  164SOPE   H7S18411   2.383   4.569   9.506 -1.4191  1.0698  0.3365
  164SOPE   C2818412   2.199   4.503   9.393 -0.2277  0.2417  0.1705
  164SOPE   H8R18413   2.206   4.607   9.355  1.7717 -0.1940 -0.7763
  164SOPE   H8S18414   2.240   4.440   9.311 -1.5585  0.7207 -0.8936
  164SOPE   C2918415   2.052   4.485   9.432  0.0709 -0.2612 -0.5060
  164SOPE   H9118416   2.030   4.520   9.534  1.1116  1.5478 -0.8687
  164SOPE  C21018417   1.952   4.416   9.365 -1.3356  0.7666  0.8275
  164SOPE  H10118418   1.855   4.406   9.416 -0.6837 -1.1335  1.8050
  164SOPE  C21118419   1.981   4.358   9.228  0.1962  0.2950 -0.4989
  164SOPE  H11R18420   1.925   4.263   9.213  0.0654  0.4620 -1.0927
  164SOPE  H11S18421   2.087   4.328   9.217  0.2517  0.7946 -1.3840
  164SOPE  C21218422   1.933   4.441   9.119  0.4483  0.0642  0.2656
  164SOPE  H12R18423   1.956   4.550   9.128 -0.8463  0.5466 -1.6440
  164SOPE  H12S18424   1.823   4.435   9.107  0.4047 -0.4101  0.8764
  164SOPE  C21318425   1.992   4.394   8.989 -0.2227 -0.9141  0.7943
  164SOPE  H13R18426   1.981   4.284   8.985  1.2891 -1.1150 -3.3722
  164SOPE  H13S18427   2.102   4.407   8.982 -0.4504  0.5097 -1.7283
  164SOPE  C21418428   1.944   4.480   8.870  0.0215 -0.5664  0.2991
  164SOPE  H14R18429   1.997   4.577   8.878  0.4071 -0.7999  0.6108
  164SOPE  H14S18430   1.837   4.510   8.869  0.8724  2.8088 -0.6231
  164SOPE  C21518431   1.973   4.405   8.741  0.7057 -0.5529  1.0453
  164SOPE  H15R18432   1.940   4.470   8.657  1.3090  0.1300  1.3289
  164SOPE  H15S18433   1.915   4.311   8.730 -0.6134  0.4755 -1.6554
  164SOPE  C21618434   2.120   4.383   8.719  0.0067 -0.5650  0.0244
  164SOPE  H16R18435   2.147   4.302   8.791 -1.3891 -1.7704 -0.7532
  164SOPE  H16S18436   2.173   4.476   8.747 -1.3457 -0.0811  1.0241
  164SOPE  C21718437   2.149   4.339   8.573 -0.3888 -0.6474  0.3905
  164SOPE  H17R18438   2.257   4.316   8.560  0.5260  2.4697  1.5914
  164SOPE  H17S18439   2.118   4.415   8.498  0.0022 -0.3369  0.5380
  164SOPE  C21818440   2.073   4.212   8.531 -0.5226  0.2281 -1.0127
  164SOPE  H18R18441   2.087   4.187   8.424  0.7175 -0.7852 -0.6287
  164SOPE  H18S18442   1.967   4.217   8.565  0.5677  0.3688  2.8982
  164SOPE  H18T18443   2.106   4.123   8.589 -2.2778 -0.8252 -1.5471
  164SOPE   C3318444   1.829   4.168   9.630 -0.1430  0.1805  0.2878
  164SOPE   H3X18445   1.813   4.258   9.567 -0.4531 -0.4141 -0.5075
  164SOPE   H3Y18446   1.747   4.151   9.704  0.1000 -0.4890  0.4049
  164SOPE   C3418447   1.826   4.040   9.537 -0.5353  0.4624  0.5779
  164SOPE   H4X18448   1.855   3.948   9.591  1.3175  0.3486 -0.5068
  164SOPE   H4Y18449   1.909   4.053   9.464 -1.4507  3.4558 -0.0866
  164SOPE   C3518450   1.709   4.016   9.440  0.4780 -0.0862 -0.9590
  164SOPE   H5X18451   1.671   4.112   9.400  0.5064  1.2104  1.9006
  164SOPE   H5Y18452   1.618   3.977   9.490 -0.6167  2.0067 -1.2316
  164SOPE   C3618453   1.750   3.927   9.315 -0.0921 -0.1648  0.3191
  164SOPE   H6X18454   1.656   3.904   9.260  0.2999  1.0774 -0.9267
  164SOPE   H6Y18455   1.796   3.833   9.351 -1.3615 -1.4038 -1.1944
  164SOPE   C3718456   1.838   3.989   9.206 -0.0034  0.1661 -0.8482
  164SOPE   H7X18457   1.938   4.018   9.244 -0.0485 -1.5471  0.7318
  164SOPE   H7Y18458   1.785   4.075   9.159  0.5330  1.1466  0.3127
  164SOPE   C3818459   1.860   3.876   9.103 -0.5359 -0.4693  0.2448
  164SOPE   H8X18460   1.763   3.824   9.085 -0.5876 -0.0155 -0.8996
  164SOPE   H8Y18461   1.931   3.805   9.150  0.2805 -1.1237 -1.8216
  164SOPE   C3918462   1.915   3.931   8.974 -0.5741  0.1058  0.3923
  164SOPE   H9X18463   2.016   3.977   8.978  0.9231 -2.7208 -1.4862
  164SOPE   H9Y18464   1.845   4.007   8.931  1.4820  2.9387  1.7602
  164SOPE  C31018465   1.916   3.825   8.862  0.3931  0.1571 -0.6052
  164SOPE  H10X18466   1.815   3.780   8.854  0.5830 -0.2892 -0.5131
  164SOPE  H10Y18467   1.983   3.746   8.902 -1.3317 -0.6473  0.8407
  164SOPE  C31118468   1.962   3.879   8.733  1.1049  0.5949 -0.6190
  164SOPE  H11X18469   2.020   3.802   8.679  2.0883  0.9028 -0.0348
  164SOPE  H11Y18470   2.034   3.964   8.743  1.2370  0.6010 -1.5347
  164SOPE  C31218471   1.842   3.919   8.644  0.3572 -0.0083  1.0783
  164SOPE  H12X18472   1.897   3.985   8.574 -0.5167  0.0090  0.3961
  164SOPE  H12Y18473   1.781   4.001   8.689  1.7423  0.6797  1.7539
  164SOPE  C31318474   1.764   3.813   8.582  0.2262 -0.2160 -0.0349
  164SOPE  H13X18475   1.720   3.749   8.662  0.1273  1.9422  1.7505
  164SOPE  H13Y18476   1.808   3.737   8.515 -1.7976 -1.3368 -0.1957
  164SOPE  C31418477   1.634   3.862   8.515  0.2087 -0.4787 -0.3279
  164SOPE  H14X18478   1.666   3.924   8.428 -0.6270  0.1302 -0.2117
  164SOPE  H14Y18479   1.559   3.919   8.573  0.5255 -0.8034  0.4019
  164SOPE  C31518480   1.560   3.741   8.452  0.1165  0.2669 -0.5606
  164SOPE  H15X18481   1.538   3.684   8.544  0.8126  0.7598 -0.0744
  164SOPE  H15Y18482   1.625   3.676   8.390  0.2784 -1.2746  1.1440
  164SOPE  C31618483   1.433   3.778   8.376 -0.0534 -0.2186 -0.1328
  164SOPE  H16X18484   1.470   3.818   8.279  3.1222 -0.6124  0.8115
  164SOPE  H16Y18485   1.380   3.857   8.432  2.2142  0.8763  0.5973
  164SOPE  C31718486   1.355   3.654   8.346 -0.2284 -0.2556  0.4977
  164SOPE  H17X18487   1.350   3.590   8.437 -0.8134 -1.1493 -0.1404
  164SOPE  H17Y18488   1.410   3.584   8.279  3.1184  1.5186  1.1395
  164SOPE  C31818489   1.214   3.662   8.284 -0.4264  0.1845  0.0888
  164SOPE  H18X18490   1.149   3.713   8.359 -1.1115 -1.0622  0.3741
  164SOPE  H18Y18491   1.170   3.565   8.255 -1.9195  1.0311 -0.5871
  164SOPE  H18Z18492   1.219   3.726   8.194 -1.1648 -0.4881 -0.4342
  165SOPE     N18493   5.065   4.605  10.885 -0.8231  0.0138 -0.3175
  165SOPE   HN118494   5.065   4.515  10.936 -0.4571  1.9977  3.5834
  165SOPE   HN218495   4.969   4.643  10.896 -0.9202 -0.8162  2.3795
  165SOPE   HN318496   5.084   4.605  10.783  1.3560  0.2486  0.0464
  165SOPE   C1218497   5.154   4.712  10.947 -0.0943 -0.0328  0.0427
  165SOPE  H12A18498   5.257   4.675  10.926 -0.5871 -0.4055 -1.8801
  165SOPE  H12B18499   5.123   4.706  11.054  1.7348 -0.8206  0.5679
  165SOPE   C1118500   5.112   4.841  10.884 -0.5749 -0.8379  0.0120
  165SOPE  H11A18501   5.155   4.830  10.783  0.5059  0.1013  0.3463
  165SOPE  H11B18502   5.170   4.921  10.935 -1.2394 -1.3330  1.6176
  165SOPE     P18503   4.913   4.981  10.804 -0.5255  0.1341 -0.0236
  165SOPE   O1318504   4.939   5.113  10.869 -0.7715  0.4185 -0.5887
  165SOPE   O1418505   4.775   4.952  10.767 -0.0540 -0.0681  0.3734
  165SOPE   O1218506   4.971   4.856  10.887 -0.1290  0.1154 -0.1182
  165SOPE   O1118507   5.005   4.982  10.679 -0.0830  0.4521  0.5317
  165SOPE    C118508   4.974   4.878  10.579 -0.1801 -0.1502 -0.2260
  165SOPE    HA18509   4.906   4.800  10.620 -0.9209 -0.2457 -1.5589
  165SOPE    HB18510   5.069   4.835  10.543 -1.9667 -3.6390 -1.2267
  165SOPE    C218511   4.919   4.940  10.443 -0.9339  0.5072 -0.6281
  165SOPE    HS18512   5.004   4.922  10.374  1.1426 -2.2193  2.3166
  165SOPE   O2118513   4.862   5.075  10.454  0.1971  0.3510  0.3341
  165SOPE   C2118514   4.938   5.176  10.415 -0.5343 -0.4346 -0.0238
  165SOPE   O2218515   5.058   5.167  10.385 -0.8600 -0.3531  0.4716
  165SOPE   C2218516   4.857   5.310  10.396 -0.0859  0.7458 -0.5867
  165SOPE   H2R18517   4.904   5.371  10.476 -0.0927 -0.6186  0.5045
  165SOPE   H2S18518   4.755   5.283  10.431  1.2881 -2.6522  1.3840
  165SOPE    C318519   4.806   4.852  10.391 -0.9152  0.4340  0.4016
  165SOPE    HX18520   4.721   4.858  10.462 -0.7487  1.9195  0.5240
  165SOPE    HY18521   4.856   4.753  10.393  0.8341  1.2582  0.1488
  165SOPE   O3118522   4.775   4.895  10.252  0.5816 -0.2376 -0.2304
  165SOPE   C3118523   4.653   4.876  10.205 -0.3252 -0.5627 -0.6956
  165SOPE   O3218524   4.565   4.818  10.263 -0.2384 -0.4217  0.0408
  165SOPE   C3218525   4.645   4.947  10.072  0.6776  0.3553 -0.8346
  165SOPE   H2X18526   4.743   5.000  10.063  0.6244  0.6430  0.1263
  165SOPE   H2Y18527   4.565   5.024  10.072  0.6206  0.2996 -0.2439
  165SOPE   C2318528   4.865   5.370  10.254 -0.3780  0.2203 -0.5159
  165SOPE   H3R18529   4.971   5.372  10.221 -0.7750  0.4849 -1.8237
  165SOPE   H3S18530   4.841   5.478  10.262  1.6312  0.7323 -0.7778
  165SOPE   C2418531   4.791   5.293  10.152  0.7195 -0.6300 -0.5559
  165SOPE   H4R18532   4.834   5.190  10.154  1.3382 -0.4610 -2.5363
  165SOPE   H4S18533   4.682   5.296  10.174  1.1209  0.4208  1.4667
  165SOPE   C2518534   4.824   5.339  10.008  0.1623 -0.2375 -0.0458
  165SOPE   H5R18535   4.797   5.447  10.013  0.5386 -0.1665  0.6865
  165SOPE   H5S18536   4.933   5.326   9.986 -0.2966  0.1011 -2.9433
  165SOPE   C2618537   4.751   5.277   9.895  0.5368 -0.1276 -0.0085
  165SOPE   H6R18538   4.773   5.168   9.903 -0.9262 -0.7224 -2.7858
  165SOPE   H6S18539   4.643   5.289   9.919  0.5332  0.4786 -0.2984
  165SOPE   C2718540   4.767   5.331   9.756  0.5993  0.2376  0.3089
  165SOPE   H7R18541   4.685   5.293   9.692 -1.1855  1.4025  1.8155
  165SOPE   H7S18542   4.740   5.439   9.761  1.9412  0.6981 -1.1675
  165SOPE   C2818543   4.908   5.301   9.696  0.6909  0.2419  0.2221
  165SOPE   H8R18544   4.981   5.353   9.761  0.7288 -1.3537  1.5125
  165SOPE   H8S18545   4.930   5.192   9.695 -1.0680 -0.1500 -0.4201
  165SOPE   C2918546   4.923   5.356   9.559  0.3056 -0.4874 -0.1618
  165SOPE   H9118547   4.977   5.452   9.553  1.4455 -1.0210  0.9468
  165SOPE  C21018548   4.884   5.306   9.444  0.2904  0.3052  0.2976
  165SOPE  H10118549   4.908   5.368   9.356  1.8620 -0.8720 -0.1553
  165SOPE  C21118550   4.824   5.169   9.413  0.6551  0.4877 -0.5184
  165SOPE  H11R18551   4.718   5.154   9.443  0.4294  0.8580 -1.1153
  165SOPE  H11S18552   4.874   5.095   9.480 -0.4499 -0.0011 -0.2188
  165SOPE  C21218553   4.831   5.112   9.266  0.2236  0.2451 -0.7203
  165SOPE  H12R18554   4.786   5.011   9.273  0.0696  0.4397  3.0247
  165SOPE  H12S18555   4.940   5.099   9.249  0.4989  0.6265  0.6647
  165SOPE  C21318556   4.751   5.192   9.163 -0.0304 -0.3828 -0.6190
  165SOPE  H13R18557   4.784   5.298   9.171  1.7162 -0.9355  0.1342
  165SOPE  H13S18558   4.647   5.181   9.199  0.5831 -1.4190  0.9367
  165SOPE  C21418559   4.772   5.146   9.018 -0.6020  0.5156  0.4164
  165SOPE  H14R18560   4.749   5.037   9.010 -0.2092  0.4569  0.0649
  165SOPE  H14S18561   4.877   5.157   8.985 -0.4376  1.8100  1.3177
  165SOPE  C21518562   4.699   5.217   8.907  0.2248 -0.2202 -0.3163
  165SOPE  H15R18563   4.719   5.325   8.918 -0.2565 -0.1348 -0.2382
  165SOPE  H15S18564   4.588   5.205   8.908  0.1967  0.0390  0.5061
  165SOPE  C21618565   4.749   5.179   8.771  0.6687 -0.9781 -1.0111
  165SOPE  H16R18566   4.760   5.072   8.746 -0.6869 -1.0483 -1.3738
  165SOPE  H16S18567   4.852   5.222   8.773 -0.0866  0.9939  1.4658
  165SOPE  C21718568   4.676   5.250   8.654  0.7145 -0.2162  0.4652
  165SOPE  H17R18569   4.669   5.358   8.677  0.2660 -0.2760  0.6243
  165SOPE  H17S18570   4.575   5.205   8.647 -0.0277  1.3485  0.6503
  165SOPE  C21818571   4.736   5.242   8.513  0.3304  0.0846 -0.4293
  165SOPE  H18R18572   4.729   5.140   8.472  1.9157  0.0346 -0.6365
  165SOPE  H18S18573   4.844   5.269   8.515  0.5029 -0.5893 -0.4959
  165SOPE  H18T18574   4.684   5.308   8.440  0.0114  0.8628  0.4626
  165SOPE   C3318575   4.618   4.850   9.954 -0.2000 -0.2065 -0.2281
  165SOPE   H3X18576   4.544   4.772   9.982  0.2664 -0.7388 -0.4682
  165SOPE   H3Y18577   4.711   4.794   9.930  0.8472  0.5650  1.8181
  165SOPE   C3418578   4.583   4.918   9.817 -0.0948  0.2558 -0.1035
  165SOPE   H4X18579   4.652   5.004   9.807 -0.5258  0.5261 -0.8306
  165SOPE   H4Y18580   4.484   4.967   9.827  0.5418  1.2485  1.6101
  165SOPE   C3518581   4.587   4.821   9.689 -0.6248 -0.1794 -0.6890
  165SOPE   H5X18582   4.490   4.768   9.690  0.3968 -2.1336 -1.0193
  165SOPE   H5Y18583   4.656   4.735   9.700 -0.0348  0.4061  0.3841
  165SOPE   C3618584   4.622   4.899   9.562 -0.6901 -0.6351 -0.8595
  165SOPE   H6X18585   4.732   4.905   9.550 -0.4115 -1.3425  0.9696
  165SOPE   H6Y18586   4.588   5.004   9.576 -0.4328 -0.7071  0.4560
  165SOPE   C3718587   4.568   4.837   9.436 -0.5320 -0.2872  0.3260
  165SOPE   H7X18588   4.584   4.919   9.363 -1.9145 -0.5668 -0.3124
  165SOPE   H7Y18589   4.459   4.834   9.457 -0.5328  2.9920  1.4856
  165SOPE   C3818590   4.621   4.699   9.391 -0.4029 -0.2352  0.5034
  165SOPE   H8X18591   4.576   4.612   9.443  0.1520 -0.5466  0.4721
  165SOPE   H8Y18592   4.730   4.694   9.413 -0.5652 -2.8258  0.9438
  165SOPE   C3918593   4.586   4.676   9.240 -0.3495  0.2845 -0.1925
  165SOPE   H9X18594   4.483   4.718   9.228 -0.3129  0.1371 -1.1152
  165SOPE   H9Y18595   4.592   4.568   9.214 -1.2785  0.1580  0.0792
  165SOPE  C31018596   4.686   4.750   9.147  0.1971  0.5563 -0.1947
  165SOPE  H10X18597   4.789   4.726   9.180  0.1701  0.5652 -0.1028
  165SOPE  H10Y18598   4.673   4.859   9.167  0.2801  0.6401 -0.5912
  165SOPE  C31118599   4.660   4.716   9.001 -0.1708  0.6622  0.0377
  165SOPE  H11X18600   4.562   4.743   8.957 -1.0056  1.4546  2.2506
  165SOPE  H11Y18601   4.655   4.605   9.001 -2.7516  0.6943  1.6337
  165SOPE  C31218602   4.787   4.741   8.913  0.3879  0.3268  0.1340
  165SOPE  H12X18603   4.878   4.697   8.960  0.3175 -1.4103 -1.2541
  165SOPE  H12Y18604   4.794   4.850   8.892 -0.0897  0.2409 -0.5154
  165SOPE  C31318605   4.782   4.684   8.771 -0.4336  0.5108 -0.5324
  165SOPE  H13X18606   4.690   4.704   8.712  0.6993 -1.7283 -3.2845
  165SOPE  H13Y18607   4.790   4.574   8.784 -0.6252  0.4466 -0.9404
  165SOPE  C31418608   4.899   4.748   8.686  0.5424  0.1875  0.2099
  165SOPE  H14X18609   4.992   4.745   8.747 -0.0701  0.7953  1.1879
  165SOPE  H14Y18610   4.875   4.855   8.669  2.4132  0.2568 -2.7564
  165SOPE  C31518611   4.915   4.670   8.553  0.4142 -0.0715  0.3307
  165SOPE  H15X18612   4.813   4.681   8.511  0.9036  1.9239 -0.4240
  165SOPE  H15Y18613   4.918   4.561   8.574 -0.7384 -0.3177 -0.6698
  165SOPE  C31618614   5.023   4.724   8.456  0.0285  0.2722 -0.1900
  165SOPE  H16X18615   4.990   4.690   8.356  0.2071 -0.7134  0.0751
  165SOPE  H16Y18616   5.119   4.673   8.481 -0.1596 -0.3315 -0.6818
  165SOPE  C31718617   5.041   4.877   8.452 -0.4282 -0.3255 -0.2287
  165SOPE  H17X18618   5.137   4.886   8.396  0.5793  0.8009  1.5601
  165SOPE  H17Y18619   5.063   4.921   8.551 -0.1560  0.0505 -0.4515
  165SOPE  C31818620   4.935   4.953   8.377 -0.1087  0.3530  0.0283
  165SOPE  H18X18621   4.936   5.062   8.400 -2.2957  0.5159 -0.4682
  165SOPE  H18Y18622   4.833   4.921   8.409  0.0642  0.5475  0.7889
  165SOPE  H18Z18623   4.949   4.946   8.267 -0.4335  0.8235 -0.0479
  166SOPE     N18624   1.655   5.477  10.632 -0.8929  0.9460 -0.7644
  166SOPE   HN118625   1.644   5.449  10.732 -0.6196 -0.4323 -1.0985
  166SOPE   HN218626   1.566   5.451  10.586 -0.5285  2.6649 -2.5525
  166SOPE   HN318627   1.731   5.420  10.588 -0.9379  1.6076 -1.7161
  166SOPE   C1218628   1.666   5.621  10.616  0.5169 -0.8944  0.4554
  166SOPE  H12A18629   1.652   5.675  10.712  0.3580  0.5248 -0.3380
  166SOPE  H12B18630   1.590   5.650  10.540 -0.7387 -0.7039  1.7395
  166SOPE   C1118631   1.814   5.658  10.565 -0.2264 -0.3766  1.3279
  166SOPE  H11A18632   1.809   5.759  10.520 -0.0326 -1.3744 -1.0475
  166SOPE  H11B18633   1.833   5.594  10.476 -0.0986 -0.0208  1.1021
  166SOPE     P18634   2.048   5.587  10.675  0.2551  0.2411 -0.3033
  166SOPE   O1318635   2.015   5.453  10.632 -0.7210  0.9786  0.0740
  166SOPE   O1418636   2.126   5.597  10.799  0.1810 -1.2767 -0.1634
  166SOPE   O1218637   1.905   5.665  10.673 -0.5051 -0.4687 -0.0474
  166SOPE   O1118638   2.134   5.655  10.568  0.1706  0.6276  0.1526
  166SOPE    C118639   2.196   5.779  10.587  0.2344 -0.4923 -1.1388
  166SOPE    HA18640   2.300   5.757  10.556  2.1567  3.1749  1.8851
  166SOPE    HB18641   2.191   5.814  10.692  1.7032  2.4029 -1.9113
  166SOPE    C218642   2.128   5.891  10.495 -0.2953  0.3873 -0.6885
  166SOPE    HS18643   2.031   5.910  10.547 -0.8255 -0.5006 -1.3201
  166SOPE   O2118644   2.110   5.834  10.364 -0.1481  0.0892 -0.4850
  166SOPE   C2118645   1.995   5.873  10.306  0.3151  0.6901  0.0928
  166SOPE   O2218646   1.916   5.957  10.345  0.5983  0.1524  0.1721
  166SOPE   C2218647   1.973   5.785  10.180 -0.4427  0.1219  0.3299
  166SOPE   H2R18648   1.909   5.698  10.203 -1.5381  0.5711 -0.8731
  166SOPE   H2S18649   2.073   5.737  10.174 -1.0303 -1.3125  1.5539
  166SOPE    C318650   2.206   6.026  10.491  0.0909 -0.3754  0.5270
  166SOPE    HX18651   2.311   5.989  10.492 -0.2793 -1.6563 -1.5068
  166SOPE    HY18652   2.182   6.078  10.586 -0.2801  0.7385 -0.1596
  166SOPE   O3118653   2.173   6.098  10.370 -0.4504  0.2261 -0.3127
  166SOPE   C3118654   2.079   6.197  10.380  0.6543  0.4872  0.5872
  166SOPE   O3218655   2.030   6.236  10.485 -0.3233  0.2432 -1.0081
  166SOPE   C3218656   2.048   6.248  10.241  0.4785  0.3159  0.0254
  166SOPE   H2X18657   2.035   6.160  10.174 -1.4272  1.1510 -0.7913
  166SOPE   H2Y18658   2.129   6.313  10.202  1.2114 -0.5073  0.1628
  166SOPE   C2318659   1.924   5.856  10.050 -0.0078 -0.8306 -0.6273
  166SOPE   H3R18660   1.974   5.954  10.034 -1.7603  0.2431  0.2272
  166SOPE   H3S18661   1.814   5.862  10.065  0.2765  1.1226  0.9836
  166SOPE   C2418662   1.956   5.763   9.935 -0.4146  0.0092  0.6647
  166SOPE   H4R18663   2.066   5.753   9.921 -0.4009  2.8080 -2.2884
  166SOPE   H4S18664   1.920   5.661   9.960  0.7812 -0.2657  1.3315
  166SOPE   C2518665   1.892   5.826   9.810 -0.2016  0.9715  0.0865
  166SOPE   H5R18666   1.787   5.848   9.837  0.3254  1.1001  2.2462
  166SOPE   H5S18667   1.936   5.924   9.780 -0.1266  0.7869 -0.4115
  166SOPE   C2618668   1.892   5.740   9.687  0.0211  0.5430 -0.5467
  166SOPE   H6R18669   1.989   5.738   9.633 -0.4390 -1.0415 -1.3770
  166SOPE   H6S18670   1.871   5.635   9.718  0.1085  0.6302 -0.1837
  166SOPE   C2718671   1.791   5.798   9.586  0.6617 -0.0311 -0.1072
  166SOPE   H7R18672   1.771   5.707   9.525 -1.3644 -0.1438  0.6569
  166SOPE   H7S18673   1.698   5.816   9.644  2.1461 -2.1385  3.1835
  166SOPE   C2818674   1.836   5.916   9.502 -0.1300  0.0504  0.3145
  166SOPE   H8R18675   1.834   6.013   9.557  0.6780  0.5620 -0.5261
  166SOPE   H8S18676   1.939   5.894   9.467 -0.0904  2.5566 -1.4567
  166SOPE   C2918677   1.750   5.931   9.388 -0.4387 -0.3450  0.1428
  166SOPE   H9118678   1.668   6.004   9.388  0.8772  1.3023 -2.6591
  166SOPE  C21018679   1.763   5.876   9.268 -0.8747 -0.2925  0.7919
  166SOPE  H10118680   1.691   5.897   9.187 -0.5980  1.5933  0.9929
  166SOPE  C21118681   1.869   5.772   9.230 -0.4670 -0.1854 -0.3858
  166SOPE  H11R18682   1.833   5.668   9.242 -2.2072  0.3782 -0.4548
  166SOPE  H11S18683   1.959   5.792   9.292  0.7167 -2.8355 -1.1187
  166SOPE  C21218684   1.908   5.788   9.084  0.5828  0.2268 -0.4120
  166SOPE  H12R18685   1.931   5.895   9.063 -0.0989  0.0125 -2.4940
  166SOPE  H12S18686   1.822   5.771   9.016  1.3496  1.0258 -1.6132
  166SOPE  C21318687   2.021   5.695   9.040  0.5003 -0.0744  1.3570
  166SOPE  H13R18688   1.994   5.590   9.062 -3.8376  0.0725 -1.8233
  166SOPE  H13S18689   2.113   5.728   9.093  2.9395  0.2876 -2.6390
  166SOPE  C21418690   2.055   5.722   8.886 -0.0371  0.2624  0.2667
  166SOPE  H14R18691   2.074   5.825   8.850  0.7041 -0.4933 -1.6307
  166SOPE  H14S18692   1.965   5.687   8.830  0.1117  0.4230 -0.0728
  166SOPE  C21518693   2.174   5.626   8.853  0.3567 -0.0629 -0.4816
  166SOPE  H15R18694   2.148   5.522   8.882  0.4877 -0.2164 -0.9119
  166SOPE  H15S18695   2.258   5.657   8.919  0.5365 -2.5099  0.5821
  166SOPE  C21618696   2.218   5.638   8.710 -0.3237  0.3670 -0.1179
  166SOPE  H16R18697   2.290   5.553   8.704 -1.1509 -0.3501 -0.1307
  166SOPE  H16S18698   2.274   5.733   8.699 -1.1011  0.6443 -2.1078
  166SOPE  C21718699   2.117   5.615   8.592  0.1615  0.4012 -0.1612
  166SOPE  H17R18700   2.050   5.704   8.589 -1.6964 -0.8534  1.4247
  166SOPE  H17S18701   2.056   5.527   8.619  0.5528  0.0484 -0.4220
  166SOPE  C21818702   2.191   5.587   8.463  0.6653  0.7401 -0.3700
  166SOPE  H18R18703   2.266   5.506   8.466 -0.6242 -0.5770 -1.6755
  166SOPE  H18S18704   2.249   5.681   8.450  1.0364  0.8081  1.5227
  166SOPE  H18T18705   2.123   5.564   8.377  0.1729 -2.2406  0.7195
  166SOPE   C3318706   1.915   6.334  10.239 -0.0952  0.3791  0.2723
  166SOPE   H3X18707   1.933   6.411  10.316 -2.5501 -0.5557  1.9119
  166SOPE   H3Y18708   1.827   6.273  10.272 -0.4910  0.5281 -0.4784
  166SOPE   C3418709   1.893   6.406  10.101 -0.4553 -1.3298 -1.3190
  166SOPE   H4X18710   1.986   6.459  10.071 -0.0208 -1.7272 -0.6892
  166SOPE   H4Y18711   1.806   6.472  10.121  0.9103  0.3524 -0.7126
  166SOPE   C3518712   1.854   6.313   9.987 -0.6661 -0.5408  0.2401
  166SOPE   H5X18713   1.760   6.258  10.011 -0.6787 -2.1899 -3.0439
  166SOPE   H5Y18714   1.937   6.244   9.960  0.6331  0.3943  1.6457
  166SOPE   C3618715   1.830   6.393   9.855  0.4497  0.0999  1.0137
  166SOPE   H6X18716   1.919   6.459   9.841 -0.0579  0.9372  1.6375
  166SOPE   H6Y18717   1.743   6.460   9.867  0.9887  0.6594  1.9482
  166SOPE   C3718718   1.806   6.296   9.733  0.0846 -0.2468  0.0250
  166SOPE   H7X18719   1.711   6.240   9.738 -0.3780  0.3945 -1.1964
  166SOPE   H7Y18720   1.874   6.211   9.757 -1.9479 -2.9059 -2.9444
  166SOPE   C3818721   1.848   6.336   9.594 -0.4425  0.1070  0.3514
  166SOPE   H8X18722   1.938   6.280   9.563 -0.8513  0.2156 -1.0959
  166SOPE   H8Y18723   1.864   6.446   9.586 -1.6487  0.1501 -2.1644
  166SOPE   C3918724   1.740   6.289   9.505 -0.2395  0.4170 -0.2690
  166SOPE   H9X18725   1.639   6.330   9.526 -0.3973 -0.0252 -0.1556
  166SOPE   H9Y18726   1.723   6.179   9.509 -1.0913  0.4821 -1.4371
  166SOPE  C31018727   1.795   6.310   9.361 -0.0049  0.1966 -0.2014
  166SOPE  H10X18728   1.889   6.254   9.339 -1.1429 -1.3946 -1.1991
  166SOPE  H10Y18729   1.823   6.417   9.368 -2.1100  0.7662  0.0011
  166SOPE  C31118730   1.686   6.286   9.263 -0.2451 -0.2350  0.5405
  166SOPE  H11X18731   1.606   6.351   9.304  0.9744  1.5710  0.1952
  166SOPE  H11Y18732   1.638   6.186   9.264  0.0854 -0.3907  1.0407
  166SOPE  C31218733   1.724   6.339   9.121 -0.0705 -0.1986  0.6037
  166SOPE  H12X18734   1.798   6.418   9.145  1.4231 -1.2124 -0.4195
  166SOPE  H12Y18735   1.634   6.386   9.077  0.4248 -1.8409 -2.4530
  166SOPE  C31318736   1.787   6.235   9.022 -0.1740  0.5287 -1.0335
  166SOPE  H13X18737   1.714   6.153   9.003 -0.4256 -0.1228  2.1338
  166SOPE  H13Y18738   1.866   6.190   9.085 -0.2809  1.2599 -0.3548
  166SOPE  C31418739   1.852   6.296   8.907 -0.5072 -0.3767  0.9479
  166SOPE  H14X18740   1.920   6.377   8.941  0.6149 -1.2739  0.9261
  166SOPE  H14Y18741   1.783   6.334   8.829  0.3932 -1.8062 -0.6209
  166SOPE  C31518742   1.945   6.198   8.832 -0.1908  0.2573 -0.7725
  166SOPE  H15X18743   1.994   6.125   8.899 -1.1171  0.1136 -0.2298
  166SOPE  H15Y18744   2.023   6.265   8.790 -0.7598  1.3813 -0.0868
  166SOPE  C31618745   1.874   6.129   8.714 -0.3737  0.1831  0.1029
  166SOPE  H16X18746   1.815   6.196   8.648 -0.6365 -1.9919 -2.0242
  166SOPE  H16Y18747   1.802   6.057   8.758 -0.2120 -0.6808 -0.9973
  166SOPE  C31718748   1.968   6.043   8.629 -0.6971 -0.3168  0.1790
  166SOPE  H17X18749   2.011   5.964   8.694 -2.3059  0.6103  2.5308
  166SOPE  H17Y18750   2.054   6.109   8.603 -0.1519 -1.4711 -1.0539
  166SOPE  C31818751   1.894   5.986   8.513  0.8140 -0.1701 -0.0625
  166SOPE  H18X18752   1.816   5.913   8.545 -1.1366  0.9951 -1.9479
  166SOPE  H18Y18753   1.972   5.920   8.470  0.4880  0.4027 -1.5847
  166SOPE  H18Z18754   1.863   6.055   8.431  1.3100 -0.6955 -0.6977
  167SOPE     N18755   3.828   2.290   6.333 -0.3424  0.6004 -0.1612
  167SOPE   HN118756   3.852   2.270   6.234 -1.6218  1.5739 -0.6981
  167SOPE   HN218757   3.742   2.348   6.327 -0.9499 -0.1809  0.5192
  167SOPE   HN318758   3.898   2.344   6.388  0.2471 -0.7310  0.4462
  167SOPE   C1218759   3.807   2.165   6.409  0.2973  0.6935  0.6635
  167SOPE  H12A18760   3.798   2.194   6.516 -0.6064  5.4116 -0.4312
  167SOPE  H12B18761   3.889   2.094   6.385  1.1362  1.6412  0.6530
  167SOPE   C1118762   3.665   2.106   6.369  0.0803  0.0467  0.7920
  167SOPE  H11A18763   3.580   2.165   6.408 -0.6585  0.4473 -1.3386
  167SOPE  H11B18764   3.653   2.006   6.416 -1.4591 -0.1547  0.0385
  167SOPE     P18765   3.527   2.109   6.145 -0.4346  0.0672  0.0804
  167SOPE   O1318766   3.540   2.044   6.014 -0.4030  0.0560  0.2764
  167SOPE   O1418767   3.498   2.252   6.147 -0.2143  0.2787  0.0777
  167SOPE   O1218768   3.659   2.087   6.229  0.0572  0.3349 -0.3466
  167SOPE   O1118769   3.429   2.030   6.233  0.4309 -0.0919 -0.6808
  167SOPE    C118770   3.439   1.891   6.244 -0.3456 -0.0491 -0.1383
  167SOPE    HA18771   3.540   1.845   6.251 -0.7167 -0.9438 -0.4888
  167SOPE    HB18772   3.397   1.847   6.151 -0.9590  0.2826 -0.0228
  167SOPE    C218773   3.364   1.832   6.368 -0.6275 -0.0084  0.7258
  167SOPE    HS18774   3.265   1.882   6.380  1.1965  3.5356  2.5215
  167SOPE   O2118775   3.452   1.860   6.477  0.0019  0.1289  0.2323
  167SOPE   C2118776   3.405   1.916   6.577 -0.2941 -0.1730  0.7095
  167SOPE   O2218777   3.283   1.933   6.595 -0.0594  0.2665 -0.5362
  167SOPE   C2218778   3.517   1.969   6.661  0.4492 -0.3825 -0.0482
  167SOPE   H2R18779   3.550   2.068   6.625 -0.9553 -0.0903 -0.5794
  167SOPE   H2S18780   3.604   1.899   6.656  1.5608  0.8034  1.6305
  167SOPE    C318781   3.348   1.679   6.340  0.4531 -0.7476 -0.1879
  167SOPE    HX18782   3.455   1.646   6.340  0.5604 -0.4045 -0.2941
  167SOPE    HY18783   3.294   1.659   6.245 -0.8004 -0.2087  0.3930
  167SOPE   O3118784   3.283   1.619   6.455  0.6883 -0.0463 -0.2751
  167SOPE   C3118785   3.148   1.630   6.466 -0.3780  0.4204  0.4699
  167SOPE   O3218786   3.077   1.684   6.380  0.2529  0.8585  0.8543
  167SOPE   C3218787   3.104   1.547   6.588 -0.1380  1.0953  0.5234
  167SOPE   H2X18788   3.125   1.444   6.550 -0.6499  1.7066 -1.5844
  167SOPE   H2Y18789   3.000   1.573   6.614  0.8740  4.2980  1.8578
  167SOPE   C2318790   3.477   1.982   6.808  0.7795  0.6280 -0.3440
  167SOPE   H3R18791   3.389   1.921   6.836  0.8922  1.2183  1.4455
  167SOPE   H3S18792   3.433   2.083   6.824  0.1454  0.6129 -1.8280
  167SOPE   C2418793   3.593   1.954   6.908  0.3936 -0.4139 -0.1195
  167SOPE   H4R18794   3.618   1.846   6.905 -2.0788 -1.0318 -1.9161
  167SOPE   H4S18795   3.680   2.020   6.887 -1.8754  2.7500 -0.3226
  167SOPE   C2518796   3.545   1.986   7.050  0.3911 -0.1246 -0.3523
  167SOPE   H5R18797   3.482   2.077   7.038  0.9372  0.6011  1.8150
  167SOPE   H5S18798   3.469   1.911   7.081 -0.7228  0.8091 -0.7551
  167SOPE   C2618799   3.651   2.001   7.156  0.4445 -0.3229  0.6853
  167SOPE   H6R18800   3.708   1.906   7.163  0.6771 -0.4577 -2.0047
  167SOPE   H6S18801   3.722   2.075   7.112 -0.6550 -0.2698 -1.0696
  167SOPE   C2718802   3.587   2.042   7.290  0.0007 -0.1732  0.4747
  167SOPE   H7R18803   3.530   2.137   7.275  1.0412  0.3302 -0.4605
  167SOPE   H7S18804   3.521   1.960   7.324  1.1134 -1.5945 -0.6507
  167SOPE   C2818805   3.688   2.072   7.390 -0.1415  0.1571 -0.8532
  167SOPE   H8R18806   3.764   1.991   7.400 -1.2681 -0.7243  1.2657
  167SOPE   H8S18807   3.745   2.163   7.362 -1.8338  1.6834  0.3842
  167SOPE   C2918808   3.628   2.120   7.524 -0.5466  0.0070 -0.0905
  167SOPE   H9118809   3.581   2.220   7.522 -0.9790 -0.1419  1.4076
  167SOPE  C21018810   3.651   2.065   7.642  0.2740  0.0219 -0.6285
  167SOPE  H10118811   3.616   2.124   7.729 -2.0774  0.1394 -1.5677
  167SOPE  C21118812   3.728   1.938   7.670  0.1559  0.5598 -0.3827
  167SOPE  H11R18813   3.820   1.951   7.731 -0.0644  0.1587  0.0500
  167SOPE  H11S18814   3.747   1.870   7.584  0.0401 -1.2728  0.9793
  167SOPE  C21218815   3.638   1.845   7.758  0.0773 -0.1834  0.2818
  167SOPE  H12R18816   3.666   1.737   7.761 -0.3819 -0.3084  3.0729
  167SOPE  H12S18817   3.530   1.845   7.733 -0.1977  0.7161  1.3880
  167SOPE  C21318818   3.630   1.886   7.907 -0.0006 -0.3421 -0.1835
  167SOPE  H13R18819   3.567   1.978   7.899  0.5759 -0.0408 -1.4967
  167SOPE  H13S18820   3.734   1.894   7.944 -0.7037  0.2768  1.8080
  167SOPE  C21418821   3.555   1.783   7.998 -0.2393  0.0831 -0.2127
  167SOPE  H14R18822   3.606   1.684   8.000 -1.8678 -0.7818  1.8825
  167SOPE  H14S18823   3.452   1.763   7.962 -0.9408  0.4836  1.5123
  167SOPE  C21518824   3.565   1.847   8.134  0.0742 -0.3812  0.2819
  167SOPE  H15R18825   3.506   1.941   8.130 -1.9366 -1.5840  0.4308
  167SOPE  H15S18826   3.670   1.876   8.158  0.1694  1.7010 -2.1432
  167SOPE  C21618827   3.524   1.766   8.256  0.0665  0.6973 -0.3397
  167SOPE  H16R18828   3.425   1.725   8.228  0.4243 -0.1063 -0.4531
  167SOPE  H16S18829   3.515   1.836   8.341 -1.1131  0.5191 -0.3000
  167SOPE  C21718830   3.605   1.638   8.284 -0.2899  1.0368  0.6825
  167SOPE  H17R18831   3.687   1.665   8.354  1.5091  0.9187 -1.2616
  167SOPE  H17S18832   3.645   1.614   8.183 -2.8665 -1.0884  0.0724
  167SOPE  C21818833   3.523   1.520   8.336 -0.5610 -0.0370  0.2976
  167SOPE  H18R18834   3.516   1.534   8.446  1.4901  0.6799  0.3786
  167SOPE  H18S18835   3.568   1.419   8.323  0.6030 -0.0664  3.5881
  167SOPE  H18T18836   3.428   1.499   8.282  0.2185 -0.5034 -0.9379
  167SOPE   C3318837   3.183   1.569   6.719  0.0585 -0.8823 -0.5785
  167SOPE   H3X18838   3.176   1.679   6.734  2.5262 -0.5482 -1.3894
  167SOPE   H3Y18839   3.290   1.541   6.710  0.9786  2.1472 -0.1944
  167SOPE   C3418840   3.121   1.508   6.846 -0.9614  0.0263  0.3795
  167SOPE   H4X18841   3.134   1.397   6.845  0.6926  0.1998  0.2173
  167SOPE   H4Y18842   3.012   1.528   6.843 -1.1134 -0.8605 -1.1668
  167SOPE   C3518843   3.196   1.558   6.972  0.0963  0.1796  0.4148
  167SOPE   H5X18844   3.234   1.662   6.961 -1.5047  0.7132 -0.5229
  167SOPE   H5Y18845   3.282   1.488   6.981 -0.7108 -1.3075 -2.2343
  167SOPE   C3618846   3.099   1.548   7.090 -0.4712  0.6731  0.0876
  167SOPE   H6X18847   3.033   1.459   7.080 -1.0261  0.8588  1.8949
  167SOPE   H6Y18848   3.038   1.641   7.087  0.2240  1.1337  0.0988
  167SOPE   C3718849   3.158   1.534   7.229  0.2696 -0.1326  0.1357
  167SOPE   H7X18850   3.237   1.607   7.256 -0.2961  0.0270  1.3905
  167SOPE   H7Y18851   3.200   1.433   7.243  0.3505 -0.2582 -0.8946
  167SOPE   C3818852   3.061   1.549   7.345 -0.5487  0.7358 -0.0214
  167SOPE   H8X18853   2.980   1.477   7.324 -0.2901 -0.5682  2.9677
  167SOPE   H8Y18854   3.019   1.652   7.344 -1.4539  0.4235  1.8366
  167SOPE   C3918855   3.104   1.527   7.486 -0.2453  0.3978 -0.4861
  167SOPE   H9X18856   3.184   1.450   7.483 -0.9651 -0.3888 -0.0989
  167SOPE   H9Y18857   3.017   1.485   7.540 -0.6022  2.9351  1.1182
  167SOPE  C31018858   3.141   1.652   7.565  0.6864  0.2423  1.0991
  167SOPE  H10X18859   3.057   1.725   7.556 -1.0135 -1.5807  1.6181
  167SOPE  H10Y18860   3.230   1.687   7.509  0.3242 -0.0727  0.3054
  167SOPE  C31118861   3.197   1.642   7.702 -0.1779 -0.3180 -0.6096
  167SOPE  H11X18862   3.239   1.742   7.729 -0.7857 -0.2317  0.0482
  167SOPE  H11Y18863   3.277   1.566   7.708  0.5053  0.4943  1.3494
  167SOPE  C31218864   3.096   1.602   7.813  0.5102 -0.0274  0.4733
  167SOPE  H12X18865   3.064   1.498   7.790  0.0667  0.0081  0.9116
  167SOPE  H12Y18866   3.009   1.671   7.813  2.9176  3.4575  4.3240
  167SOPE  C31318867   3.148   1.626   7.948 -0.2296  0.0169  0.5451
  167SOPE  H13X18868   3.191   1.729   7.952 -1.6696  0.6726 -0.2403
  167SOPE  H13Y18869   3.237   1.562   7.966  1.0275  1.7343  0.7168
  167SOPE  C31418870   3.033   1.607   8.049  0.7349 -0.1033 -0.6278
  167SOPE  H14X18871   2.994   1.504   8.034 -2.0802  0.5850  1.1042
  167SOPE  H14Y18872   2.950   1.677   8.028  2.0111  1.1063 -1.8348
  167SOPE  C31518873   3.071   1.627   8.200  0.3709  0.1947  0.0400
  167SOPE  H15X18874   3.179   1.604   8.210  0.6223  0.6880 -1.3475
  167SOPE  H15Y18875   3.003   1.567   8.265  1.5504  0.1073  1.2449
  167SOPE  C31618876   3.052   1.773   8.237 -0.1729  0.7967 -0.5146
  167SOPE  H16X18877   2.944   1.799   8.235 -1.0217 -2.2697 -1.0548
  167SOPE  H16Y18878   3.104   1.835   8.161 -1.1104  1.3351 -0.7332
  167SOPE  C31718879   3.109   1.808   8.374  0.0575  0.7144  0.2924
  167SOPE  H17X18880   3.220   1.797   8.377 -0.1031 -1.0320  0.8280
  167SOPE  H17Y18881   3.077   1.735   8.451  0.1169  0.5101  0.1255
  167SOPE  C31818882   3.075   1.948   8.438 -0.6131  0.2927  0.3436
  167SOPE  H18X18883   3.124   1.959   8.537  1.7633 -0.9906 -0.6024
  167SOPE  H18Y18884   2.966   1.964   8.453 -0.3819  1.0622  1.2929
  167SOPE  H18Z18885   3.112   2.037   8.381 -1.5443  2.5311  3.0044
  168SOPE     N18886   0.140   4.707   6.358  0.4489 -1.1233 -0.0179
  168SOPE   HN118887   0.159   4.605   6.364 -1.3627 -1.4340  2.1113
  168SOPE   HN218888   0.050   4.732   6.312  0.6951 -1.1762 -0.5315
  168SOPE   HN318889   0.226   4.754   6.326 -0.1552  1.8896  2.3762
  168SOPE   C1218890   0.108   4.760   6.499 -0.0891  0.9466  0.5650
  168SOPE  H12A18891   0.155   4.691   6.572 -0.5338 -0.5248 -0.4966
  168SOPE  H12B18892  -0.001   4.748   6.513  0.0714 -0.9539  0.3740
  168SOPE   C1118893   0.160   4.898   6.516 -1.0278  0.3939 -0.1764
  168SOPE  H11A18894   0.269   4.888   6.530 -0.9357  2.1501  0.6109
  168SOPE  H11B18895   0.120   4.953   6.604  1.0756  0.9849  0.4557
  168SOPE     P18896   0.035   5.105   6.398 -0.2762  0.2056  0.0401
  168SOPE   O1318897  -0.084   5.068   6.475 -0.0435 -0.0584 -0.1813
  168SOPE   O1418898   0.024   5.151   6.260  0.0961 -0.1414 -0.1051
  168SOPE   O1218899   0.123   4.979   6.396  0.0028  0.6447  0.1857
  168SOPE   O1118900   0.115   5.214   6.475  0.7858  0.2575 -0.4169
  168SOPE    C118901   0.253   5.225   6.445 -0.1024 -0.5426 -0.0605
  168SOPE    HA18902   0.278   5.279   6.351  1.4225 -2.3660 -0.7617
  168SOPE    HB18903   0.304   5.128   6.429  0.3797 -0.1766 -0.7897
  168SOPE    C218904   0.332   5.297   6.563 -0.2636 -0.0526 -0.6121
  168SOPE    HS18905   0.440   5.283   6.541 -0.2055  1.9263 -1.7533
  168SOPE   O2118906   0.301   5.242   6.686 -0.4054 -0.0194 -0.3169
  168SOPE   C2118907   0.348   5.120   6.715  0.1954  0.2133  0.5280
  168SOPE   O2218908   0.431   5.055   6.654  0.4056 -0.7705  0.6210
  168SOPE   C2218909   0.278   5.057   6.835  0.4783  0.0169  0.0558
  168SOPE   H2R18910   0.199   4.989   6.796  1.4758 -0.1578 -1.8131
  168SOPE   H2S18911   0.223   5.136   6.890  0.2989 -0.9615  1.3280
  168SOPE    C318912   0.312   5.447   6.566  0.0452 -0.1864  0.4182
  168SOPE    HX18913   0.204   5.472   6.576  0.3162  1.0418  0.4958
  168SOPE    HY18914   0.344   5.492   6.470 -1.4692 -2.2005 -1.1001
  168SOPE   O3118915   0.367   5.511   6.683 -0.6597 -0.3214  0.6038
  168SOPE   C3118916   0.487   5.558   6.676 -0.1377 -0.3950 -0.0265
  168SOPE   O3218917   0.557   5.558   6.577 -0.5555  0.0600  0.2817
  168SOPE   C3218918   0.519   5.632   6.811 -0.3422  0.1271 -0.2536
  168SOPE   H2X18919   0.580   5.559   6.869  0.5019  0.0023 -1.2734
  168SOPE   H2Y18920   0.423   5.651   6.864 -0.6688 -1.0531 -0.3937
  168SOPE   C2318921   0.375   4.970   6.932  0.1533  0.0704  0.6114
  168SOPE   H3R18922   0.454   4.910   6.882  1.2345  0.3481  1.9218
  168SOPE   H3S18923   0.315   4.893   6.986 -1.9180 -0.3232 -2.0278
  168SOPE   C2418924   0.436   5.059   7.047 -0.6301 -0.2758 -0.2167
  168SOPE   H4R18925   0.484   5.153   7.011  0.9005 -0.3883  1.3976
  168SOPE   H4S18926   0.344   5.098   7.096  0.5902  0.3470  1.6764
  168SOPE   C2518927   0.526   4.986   7.151  0.2210  0.7220 -0.3088
  168SOPE   H5R18928   0.519   5.063   7.230  0.0319  2.5978 -2.0760
  168SOPE   H5S18929   0.479   4.893   7.191  1.2764 -0.2876 -1.3228
  168SOPE   C2618930   0.676   4.986   7.115  0.1326  0.2753 -0.6487
  168SOPE   H6R18931   0.712   4.915   7.038 -0.5616 -0.4632 -0.3070
  168SOPE   H6S18932   0.693   5.081   7.060  3.1037  1.1729  1.5896
  168SOPE   C2718933   0.764   4.981   7.239  0.2836 -0.5269  1.1467
  168SOPE   H7R18934   0.871   4.995   7.212 -0.2055 -0.5827 -1.0071
  168SOPE   H7S18935   0.726   5.067   7.298 -1.3351 -0.7678  0.5088
  168SOPE   C2818936   0.747   4.851   7.322  0.2140  0.3406 -0.3154
  168SOPE   H8R18937   0.639   4.844   7.350  0.4815  2.6660  1.6202
  168SOPE   H8S18938   0.778   4.775   7.247 -0.3272  0.6953 -0.9123
  168SOPE   C2918939   0.837   4.859   7.443 -0.4479  0.3387  0.0028
  168SOPE   H9118940   0.942   4.889   7.431 -0.3307 -0.8173 -2.4130
  168SOPE  C21018941   0.791   4.857   7.567 -0.7706 -0.1949 -0.6610
  168SOPE  H10118942   0.865   4.852   7.648 -1.6814  1.3458  0.2993
  168SOPE  C21118943   0.645   4.826   7.605 -0.0347 -0.1919  0.1524
  168SOPE  H11R18944   0.624   4.720   7.579  0.3491  0.4625 -3.4526
  168SOPE  H11S18945   0.572   4.896   7.560  1.3931  0.3573 -1.4332
  168SOPE  C21218946   0.623   4.829   7.752 -0.3631 -0.0935  0.4847
  168SOPE  H12R18947   0.517   4.799   7.765  0.2154 -2.7300 -0.2401
  168SOPE  H12S18948   0.624   4.931   7.796  1.2514  0.2594 -0.2834
  168SOPE  C21318949   0.704   4.736   7.837  0.5044  0.5303  1.0382
  168SOPE  H13R18950   0.813   4.756   7.830  0.5599 -0.2867 -1.0111
  168SOPE  H13S18951   0.694   4.631   7.804 -0.8193  0.6165  1.0799
  168SOPE  C21418952   0.658   4.740   7.987  0.7894 -0.4426  0.5642
  168SOPE  H14R18953   0.620   4.636   7.999  0.6834 -0.3483  1.0691
  168SOPE  H14S18954   0.577   4.816   7.987  4.3280  3.6921 -1.4560
  168SOPE  C21518955   0.756   4.792   8.085 -0.3010  0.9313 -0.1221
  168SOPE  H15R18956   0.787   4.898   8.068  0.1307  1.0927  1.4801
  168SOPE  H15S18957   0.839   4.719   8.082 -0.2847  0.8993  0.8341
  168SOPE  C21618958   0.712   4.776   8.228 -0.7666 -0.3028 -0.7603
  168SOPE  H16R18959   0.680   4.672   8.249 -1.7958  0.0718 -0.3954
  168SOPE  H16S18960   0.624   4.840   8.250  0.6821  1.8760 -0.9384
  168SOPE  C21718961   0.818   4.814   8.334 -0.0556 -0.0686  0.4816
  168SOPE  H17R18962   0.870   4.910   8.315 -1.5992  1.6015  3.7534
  168SOPE  H17S18963   0.900   4.739   8.336  2.0046  2.0812  1.1426
  168SOPE  C21818964   0.778   4.830   8.481  0.5140 -0.4625  0.1961
  168SOPE  H18R18965   0.861   4.881   8.535  1.0459 -0.8952 -0.2075
  168SOPE  H18S18966   0.767   4.728   8.524 -1.2743 -0.2775  0.2550
  168SOPE  H18T18967   0.688   4.894   8.481  0.6025 -0.3179 -0.9515
  168SOPE   C3318968   0.599   5.767   6.801 -1.0365 -0.9280  0.5830
  168SOPE   H3X18969   0.550   5.831   6.724 -0.3509 -1.5546 -0.3938
  168SOPE   H3Y18970   0.702   5.744   6.766 -0.7978  0.9620 -0.0704
  168SOPE   C3418971   0.604   5.853   6.931  1.0553  0.0676 -0.5260
  168SOPE   H4X18972   0.675   5.934   6.905 -2.0965  3.0847 -0.4660
  168SOPE   H4Y18973   0.643   5.783   7.008  2.5677 -0.4343 -1.7092
  168SOPE   C3518974   0.463   5.900   6.981 -0.8956 -0.0716 -0.6712
  168SOPE   H5X18975   0.394   5.815   7.000 -1.4457  0.3239 -0.8803
  168SOPE   H5Y18976   0.411   5.957   6.901 -0.9382 -0.8717 -1.2247
  168SOPE   C3618977   0.465   5.994   7.098  0.6731 -0.7874  0.3321
  168SOPE   H6X18978   0.548   6.066   7.085  1.8158 -2.3492 -1.4865
  168SOPE   H6Y18979   0.508   5.930   7.178  2.6446 -0.6486 -0.5534
  168SOPE   C3718980   0.323   6.044   7.141 -0.3493  0.8024 -0.3547
  168SOPE   H7X18981   0.260   5.954   7.156 -0.9732  1.3470  0.4649
  168SOPE   H7Y18982   0.268   6.101   7.063 -0.6571  1.0594  0.0429
  168SOPE   C3818983   0.342   6.133   7.265  0.6829 -0.2466  0.1277
  168SOPE   H8X18984   0.246   6.187   7.283 -0.3896 -1.4127 -1.7284
  168SOPE   H8Y18985   0.417   6.214   7.251 -2.2743  2.7069  0.1816
  168SOPE   C3918986   0.361   6.057   7.386 -0.1005  1.6006 -0.2974
  168SOPE   H9X18987   0.463   6.014   7.388 -1.1261 -0.9922  0.5149
  168SOPE   H9Y18988   0.295   5.967   7.389  2.8499 -0.7092  1.3989
  168SOPE  C31018989   0.325   6.130   7.514  0.2612 -0.0031 -0.6241
  168SOPE  H10X18990   0.215   6.131   7.524  0.2828 -0.2080 -0.3567
  168SOPE  H10Y18991   0.362   6.234   7.504 -0.9130  0.5139  0.2571
  168SOPE  C31118992   0.379   6.061   7.638 -0.3187 -0.2395 -0.0518
  168SOPE  H11X18993   0.483   6.022   7.632 -0.6382 -0.9920 -1.0637
  168SOPE  H11Y18994   0.314   5.973   7.654 -2.4133  1.4161  1.0203
  168SOPE  C31218995   0.373   6.156   7.760  0.2847  0.1614 -0.4520
  168SOPE  H12X18996   0.297   6.236   7.745 -3.0724 -2.3097  1.8453
  168SOPE  H12Y18997   0.466   6.205   7.795  0.3533  0.6357 -1.2681
  168SOPE  C31318998   0.308   6.083   7.886 -0.8243 -0.8353  0.1799
  168SOPE  H13X18999   0.371   5.995   7.905  1.3303  0.9692  1.8350
  168SOPE  H13Y19000   0.205   6.046   7.865 -0.9265  0.6209 -2.4410
  168SOPE  C31419001   0.318   6.166   8.015  0.0657  0.2684  0.4444
  168SOPE  H14X19002   0.417   6.217   8.019  0.1657  0.1682 -0.4849
  168SOPE  H14Y19003   0.318   6.105   8.108 -1.3230 -1.4518 -0.6417
  168SOPE  C31519004   0.214   6.282   8.034 -0.7132  0.0856 -0.6280
  168SOPE  H15X19005   0.120   6.224   8.047  0.4548 -2.1674 -1.7656
  168SOPE  H15Y19006   0.203   6.350   7.946 -2.0984  0.3479 -0.2846
  168SOPE  C31619007   0.229   6.368   8.159  0.5303  0.0280  0.2301
  168SOPE  H16X19008   0.222   6.301   8.247 -1.0172  0.4555  0.4776
  168SOPE  H16Y19009   0.152   6.447   8.143 -0.4786 -0.9486  0.1581
  168SOPE  C31719010   0.356   6.461   8.177 -0.2505  0.6630  0.7529
  168SOPE  H17X19011   0.361   6.526   8.087  1.4201 -0.0346  0.3011
  168SOPE  H17Y19012   0.444   6.393   8.174 -0.5305  0.3215  0.2212
  168SOPE  C31819013   0.339   6.548   8.298 -0.2948  0.1974  0.1653
  168SOPE  H18X19014   0.270   6.634   8.282 -1.6874 -1.0748 -0.8901
  168SOPE  H18Y19015   0.438   6.587   8.332  0.7760 -0.7347 -1.7056
  168SOPE  H18Z19016   0.295   6.488   8.380 -0.1837  0.4059  0.3797
  169SOPE     N19017   3.169   5.638   6.429  0.5197  0.2263 -0.1711
  169SOPE   HN119018   3.268   5.629   6.399  1.5044  4.6643  1.0068
  169SOPE   HN219019   3.122   5.704   6.364  0.7952 -0.1401 -0.7430
  169SOPE   HN319020   3.176   5.672   6.527  0.9294 -0.9623  0.2290
  169SOPE   C1219021   3.091   5.505   6.449 -0.0281  0.0777 -0.1997
  169SOPE  H12A19022   3.148   5.437   6.515  3.8661  1.1615 -2.1784
  169SOPE  H12B19023   3.059   5.459   6.352 -0.7757 -0.6367  0.3708
  169SOPE   C1119024   2.956   5.530   6.524  0.1289  0.6131  0.2652
  169SOPE  H11A19025   2.973   5.589   6.617 -1.1466  1.1007  0.2138
  169SOPE  H11B19026   2.917   5.430   6.550  0.7856  0.7166  1.6958
  169SOPE     P19027   2.841   5.756   6.403  0.0602  0.5105  0.4005
  169SOPE   O1319028   2.782   5.761   6.265 -0.2586 -0.0047 -0.4776
  169SOPE   O1419029   2.963   5.834   6.423 -0.2321 -0.6560  0.0361
  169SOPE   O1219030   2.860   5.601   6.439  0.2175  0.1408 -0.5394
  169SOPE   O1119031   2.728   5.808   6.499  0.0976 -0.1942 -0.1980
  169SOPE    C119032   2.602   5.735   6.499  0.3870 -0.3701 -0.5098
  169SOPE    HA19033   2.596   5.650   6.428 -0.8217 -1.3237  0.6691
  169SOPE    HB19034   2.524   5.809   6.469 -0.4629 -0.8517  0.4546
  169SOPE    C219035   2.559   5.693   6.639 -0.5076  0.0194  0.3697
  169SOPE    HS19036   2.462   5.640   6.631 -1.0553  0.8921  0.9457
  169SOPE   O2119037   2.552   5.812   6.717 -0.4220 -0.1186  0.2480
  169SOPE   C2119038   2.468   5.814   6.811 -0.1655  0.7616 -0.1735
  169SOPE   O2219039   2.398   5.720   6.848  0.2094  0.1276  0.2183
  169SOPE   C2219040   2.467   5.950   6.877 -0.3643 -0.0205  0.4295
  169SOPE   H2R19041   2.479   6.027   6.798 -1.5864  0.8215  1.0233
  169SOPE   H2S19042   2.553   5.946   6.947  0.4578  1.4638 -0.4361
  169SOPE    C319043   2.664   5.597   6.699 -0.1791  0.1093 -0.4350
  169SOPE    HX19044   2.763   5.647   6.701 -0.1998  0.1567 -0.5930
  169SOPE    HY19045   2.682   5.514   6.627  1.0618  3.2187 -4.0585
  169SOPE   O3119046   2.629   5.550   6.833  0.2975  0.5672 -0.2994
  169SOPE   C3119047   2.533   5.459   6.843  0.1775 -0.2489  0.0525
  169SOPE   O3219048   2.475   5.398   6.750 -0.2099 -0.6879 -0.3105
  169SOPE   C3219049   2.510   5.431   6.995  0.0929  0.0743 -0.0578
  169SOPE   H2X19050   2.407   5.470   7.010 -1.0155 -1.9241 -1.9028
  169SOPE   H2Y19051   2.590   5.489   7.046 -1.6584  2.2868  0.3118
  169SOPE   C2319052   2.342   5.962   6.964  0.2798 -0.0400  0.4588
  169SOPE   H3R19053   2.365   5.897   7.052 -0.1270  0.6254  1.0716
  169SOPE   H3S19054   2.248   5.942   6.908  0.2172  1.1307  0.1151
  169SOPE   C2419055   2.316   6.099   7.024  0.5540  0.2907  0.6532
  169SOPE   H4R19056   2.399   6.132   7.089  0.6715 -0.7379  1.0273
  169SOPE   H4S19057   2.293   6.160   6.934 -0.4413  1.1372  1.4479
  169SOPE   C2519058   2.180   6.092   7.096  0.2887 -0.6139  0.0757
  169SOPE   H5R19059   2.100   6.064   7.024  0.2320 -0.2911  0.0094
  169SOPE   H5S19060   2.199   6.018   7.176  0.6517  1.2020  1.7418
  169SOPE   C2619061   2.159   6.229   7.160 -0.0239 -0.3782  0.4507
  169SOPE   H6R19062   2.257   6.261   7.201 -0.5557  2.8009 -0.5107
  169SOPE   H6S19063   2.133   6.296   7.075 -2.0435 -0.6021  0.8322
  169SOPE   C2719064   2.048   6.206   7.261  0.0168  0.1159 -0.2642
  169SOPE   H7R19065   1.956   6.174   7.207  0.0232 -2.3489  1.0141
  169SOPE   H7S19066   2.083   6.119   7.320  0.9505  0.0740 -0.8623
  169SOPE   C2819067   2.021   6.331   7.347  0.3576  0.0651 -0.1811
  169SOPE   H8R19068   2.115   6.364   7.397  0.1332  1.4100 -0.5974
  169SOPE   H8S19069   2.000   6.416   7.278  0.4805 -0.7361 -1.2310
  169SOPE   C2919070   1.926   6.320   7.462 -0.1101  0.6330 -0.7998
  169SOPE   H9119071   1.820   6.321   7.433 -0.5997 -0.2650  0.8005
  169SOPE  C21019072   1.953   6.297   7.596  0.2105 -0.5165  0.1346
  169SOPE  H10119073   1.870   6.297   7.668  0.5650 -0.7483  0.5497
  169SOPE  C21119074   2.093   6.275   7.653 -0.4198 -0.3269 -0.1941
  169SOPE  H11R19075   2.168   6.349   7.619 -0.0931 -0.7957 -0.5051
  169SOPE  H11S19076   2.133   6.177   7.622  2.0571  1.1446 -1.9627
  169SOPE  C21219077   2.074   6.292   7.807  0.7685  0.2447  0.7344
  169SOPE  H12R19078   2.170   6.283   7.862  0.4842 -0.6318  1.0873
  169SOPE  H12S19079   1.991   6.222   7.831 -1.7768  2.3035 -1.3495
  169SOPE  C21319080   2.031   6.438   7.841  0.1239  0.2627 -0.1001
  169SOPE  H13R19081   1.925   6.459   7.817  0.1996  1.8467  0.8395
  169SOPE  H13S19082   2.099   6.507   7.787 -0.5445 -1.8644 -4.0455
  169SOPE  C21419083   2.043   6.470   7.991 -1.2680 -0.5562  0.4313
  169SOPE  H14R19084   2.031   6.580   8.002 -0.9933 -0.5206  0.3811
  169SOPE  H14S19085   2.148   6.445   8.014 -0.6523  1.7930  0.4315
  169SOPE  C21519086   1.951   6.395   8.085  0.0795  0.1118 -0.7888
  169SOPE  H15R19087   1.966   6.286   8.071 -1.6372 -0.2363 -0.1446
  169SOPE  H15S19088   1.846   6.427   8.069 -0.4111 -1.6651 -1.3223
  169SOPE  C21619089   1.985   6.442   8.227  0.2072 -1.1067  0.2199
  169SOPE  H16R19090   1.949   6.545   8.246 -0.6587 -1.5144  0.8258
  169SOPE  H16S19091   2.095   6.448   8.241  0.4165  3.5183 -1.7157
  169SOPE  C21719092   1.944   6.348   8.337 -0.2906  0.1997  0.2632
  169SOPE  H17R19093   2.003   6.256   8.318  0.5264  0.7121  0.2705
  169SOPE  H17S19094   1.834   6.338   8.328 -0.1750 -0.4712 -0.4192
  169SOPE  C21819095   1.979   6.409   8.476 -0.5399  0.3612  0.0599
  169SOPE  H18R19096   1.926   6.507   8.472  0.4740  0.9594  0.7535
  169SOPE  H18S19097   2.087   6.430   8.493 -0.3898  0.9529 -1.4653
  169SOPE  H18T19098   1.945   6.361   8.570 -1.2329  2.4354  0.9358
  169SOPE   C3319099   2.509   5.282   7.033 -0.3940  0.0589 -0.2217
  169SOPE   H3X19100   2.602   5.256   7.088  0.7446  0.0861 -2.0779
  169SOPE   H3Y19101   2.512   5.230   6.935  1.5703 -0.1049 -0.1086
  169SOPE   C3419102   2.392   5.238   7.121  0.8759  0.2980  0.4007
  169SOPE   H4X19103   2.384   5.128   7.125  0.7967  0.1335 -2.3415
  169SOPE   H4Y19104   2.303   5.280   7.070  2.2234  1.0612 -1.4440
  169SOPE   C3519105   2.397   5.301   7.265  0.2741 -0.0492  0.3626
  169SOPE   H5X19106   2.415   5.411   7.263  2.7733 -0.3748  1.0131
  169SOPE   H5Y19107   2.484   5.263   7.322 -0.6080 -0.1678  1.6671
  169SOPE   C3619108   2.269   5.263   7.332  0.2056  0.3043 -0.1207
  169SOPE   H6X19109   2.257   5.154   7.355 -0.9666  0.6861  1.2095
  169SOPE   H6Y19110   2.180   5.281   7.269  1.4265  0.5642 -1.8507
  169SOPE   C3719111   2.262   5.336   7.471  1.1126  0.1526  0.2658
  169SOPE   H7X19112   2.153   5.336   7.493  1.1899 -3.8707  1.3146
  169SOPE   H7Y19113   2.293   5.443   7.465 -1.3026  0.9331  0.4908
  169SOPE   C3819114   2.345   5.270   7.584 -0.2363  0.3540  0.8950
  169SOPE   H8X19115   2.322   5.161   7.582 -1.5254  0.6114 -1.0189
  169SOPE   H8Y19116   2.454   5.277   7.569 -0.1053 -1.9724  0.3727
  169SOPE   C3919117   2.308   5.335   7.717  0.4022 -0.0524 -0.2198
  169SOPE   H9X19118   2.232   5.415   7.708  0.9211  0.4906  0.1140
  169SOPE   H9Y19119   2.393   5.386   7.768 -0.3533 -0.7410  1.8492
  169SOPE  C31019120   2.246   5.238   7.823  0.0020  0.0488  0.3109
  169SOPE  H10X19121   2.297   5.139   7.824  2.6966  1.3579  0.9811
  169SOPE  H10Y19122   2.140   5.218   7.796  0.0676 -3.4647  2.0226
  169SOPE  C31119123   2.249   5.293   7.966  0.0169  0.7643  0.5831
  169SOPE  H11X19124   2.207   5.396   7.958 -1.1936  0.3437  1.2791
  169SOPE  H11Y19125   2.349   5.295   8.012  0.1974 -2.8380  0.5960
  169SOPE  C31219126   2.171   5.197   8.060  0.3579 -0.7565  0.6956
  169SOPE  H12X19127   2.221   5.097   8.064  1.1453 -0.4078 -0.1099
  169SOPE  H12Y19128   2.080   5.168   8.003 -0.6632  1.6250  1.0087
  169SOPE  C31319129   2.133   5.247   8.191 -0.0464 -0.0377 -0.5801
  169SOPE  H13X19130   2.089   5.349   8.186 -1.0073 -0.3315  1.0953
  169SOPE  H13Y19131   2.224   5.245   8.256 -1.2056  0.7749  1.1543
  169SOPE  C31419132   2.034   5.157   8.279 -0.4541  0.2652 -0.3099
  169SOPE  H14X19133   1.936   5.152   8.226 -0.5685 -1.3315 -0.0116
  169SOPE  H14Y19134   2.021   5.203   8.379 -0.7226 -0.4473 -0.0041
  169SOPE  C31519135   2.095   5.018   8.295  0.0848  0.0302 -0.0306
  169SOPE  H15X19136   2.198   5.030   8.335  0.3645 -1.1278 -0.3634
  169SOPE  H15Y19137   2.102   4.973   8.194  1.9058  2.7390 -1.2413
  169SOPE  C31619138   2.011   4.926   8.384  0.4005  0.9054 -0.0644
  169SOPE  H16X19139   1.923   4.905   8.319  1.3786 -0.5401 -0.9740
  169SOPE  H16Y19140   1.970   4.990   8.465 -2.0150 -0.5369 -0.0411
  169SOPE  C31719141   2.087   4.807   8.439  0.3906 -0.5997 -0.4377
  169SOPE  H17X19142   2.168   4.859   8.495 -0.3571  0.3232 -0.1860
  169SOPE  H17Y19143   2.134   4.752   8.355  1.0515 -0.6368 -0.0523
  169SOPE  C31819144   2.022   4.710   8.537 -0.1259 -0.0006 -0.3797
  169SOPE  H18X19145   2.105   4.648   8.578  0.5897  0.1209 -1.6045
  169SOPE  H18Y19146   1.958   4.646   8.473 -2.2056  1.9761 -0.3951
  169SOPE  H18Z19147   1.963   4.751   8.622 -0.1206 -1.1304  0.1831
  170SOPE     N19148   4.990   0.736   6.194 -0.8810 -0.4485  0.5663
  170SOPE   HN119149   4.968   0.837   6.185 -0.0087 -0.4345 -2.8029
  170SOPE   HN219150   5.093   0.734   6.180 -0.8415  0.4022  0.6932
  170SOPE   HN319151   4.943   0.690   6.114 -0.4994  1.3566 -0.7788
  170SOPE   C1219152   4.944   0.662   6.315 -0.4214 -0.1931  0.2592
  170SOPE  H12A19153   4.833   0.669   6.317 -0.4824 -0.3364 -1.1522
  170SOPE  H12B19154   4.989   0.717   6.400  0.1213  2.3192 -1.5324
  170SOPE   C1119155   4.998   0.523   6.313 -0.2200  0.3672  0.2356
  170SOPE  H11A19156   4.934   0.467   6.241 -1.6991  0.7950  1.1675
  170SOPE  H11B19157   4.980   0.482   6.415 -0.3633 -1.5219 -0.5034
  170SOPE     P19158   5.243   0.432   6.362 -0.1377  0.0901  0.1083
  170SOPE   O1319159   5.381   0.470   6.328  0.6605  0.0381  0.6087
  170SOPE   O1419160   5.198   0.291   6.347 -0.2014  0.2482 -0.3700
  170SOPE   O1219161   5.134   0.525   6.282 -0.1840  0.3868 -0.4540
  170SOPE   O1119162   5.219   0.480   6.506  0.1355  0.7984 -0.6367
  170SOPE    C119163   5.259   0.609   6.556  0.3363  0.1612  0.3490
  170SOPE    HA19164   5.214   0.689   6.494  2.8752  1.6960  0.3348
  170SOPE    HB19165   5.369   0.606   6.547  0.2605 -4.9399 -1.9573
  170SOPE    C219166   5.220   0.630   6.701 -0.9530  0.5056 -0.8538
  170SOPE    HS19167   5.286   0.708   6.744 -0.4480 -0.4926  0.2487
  170SOPE   O2119168   5.238   0.506   6.781  0.1083  0.2165  0.2592
  170SOPE   C2119169   5.364   0.463   6.794 -0.1348  0.3525  0.3815
  170SOPE   O2219170   5.460   0.521   6.745  0.0646 -0.3613 -0.2834
  170SOPE   C2219171   5.371   0.334   6.877  0.8070 -0.0843 -0.6480
  170SOPE   H2R19172   5.455   0.335   6.949  1.3276  0.8896 -1.2314
  170SOPE   H2S19173   5.388   0.250   6.807 -0.2634 -0.4871 -0.4471
  170SOPE    C319174   5.080   0.677   6.715 -0.2387  0.1138 -0.4799
  170SOPE    HX19175   5.013   0.598   6.677 -1.7104  1.7124 -1.3610
  170SOPE    HY19176   5.049   0.761   6.649  0.5901 -0.2365 -1.3309
  170SOPE   O3119177   5.031   0.703   6.851 -0.2260 -0.3177 -0.0037
  170SOPE   C3119178   5.085   0.807   6.915  0.5099  0.3710  0.4352
  170SOPE   O3219179   5.156   0.898   6.873 -0.1673  0.3744 -0.3667
  170SOPE   C3219180   5.036   0.808   7.064 -0.4484 -0.0080  0.9788
  170SOPE   H2X19181   4.936   0.760   7.055  0.6553 -2.2249 -0.3662
  170SOPE   H2Y19182   5.030   0.911   7.107  1.9913  0.2182  0.9033
  170SOPE   C2319183   5.244   0.317   6.972 -0.3388 -0.2386  0.2120
  170SOPE   H3R19184   5.155   0.310   6.905 -1.2353  0.7721  1.2390
  170SOPE   H3S19185   5.242   0.410   7.034  0.9307 -0.4097  0.5454
  170SOPE   C2419186   5.229   0.184   7.027 -0.4344 -0.0200 -0.6727
  170SOPE   H4R19187   5.220   0.107   6.948  2.4349  1.5431 -2.7054
  170SOPE   H4S19188   5.328   0.153   7.069 -0.5886 -0.3601 -0.5496
  170SOPE   C2519189   5.116   0.164   7.136  0.7181  0.3628 -0.0037
  170SOPE   H5R19190   5.023   0.220   7.114  0.6101 -0.2772 -1.2510
  170SOPE   H5S19191   5.093   0.056   7.126  1.1126  0.3885 -1.5566
  170SOPE   C2619192   5.165   0.185   7.277 -0.1176 -0.2345  0.0722
  170SOPE   H6R19193   5.261   0.132   7.293  1.0155  1.9672  0.9889
  170SOPE   H6S19194   5.198   0.291   7.282  1.1360 -0.5453 -1.1185
  170SOPE   C2719195   5.065   0.165   7.397  0.2075  0.5438 -0.1895
  170SOPE   H7R19196   5.110   0.221   7.481  1.9744 -0.9561 -0.0641
  170SOPE   H7S19197   4.963   0.200   7.371 -1.3777 -3.4238 -0.0122
  170SOPE   C2819198   5.048   0.018   7.433  0.1937 -0.2609 -0.4242
  170SOPE   H8R19199   4.944  -0.002   7.465 -0.9413  0.8059 -3.0996
  170SOPE   H8S19200   5.056  -0.048   7.343 -2.7580 -1.4606  0.0962
  170SOPE   C2919201   5.153  -0.030   7.532 -0.0285 -0.2219 -0.4078
  170SOPE   H9119202   5.250  -0.059   7.490 -0.3571 -1.9100 -0.0659
  170SOPE  C21019203   5.136  -0.029   7.666  0.7296 -0.1419  0.4615
  170SOPE  H10119204   5.223  -0.045   7.730  2.0406  0.5110 -1.0948
  170SOPE  C21119205   5.016   0.013   7.741  0.3087  0.9750 -0.4491
  170SOPE  H11R19206   4.974  -0.072   7.799 -0.4371  2.1328  0.7687
  170SOPE  H11S19207   4.930   0.039   7.677 -1.8773  0.6023  2.1607
  170SOPE  C21219208   5.022   0.141   7.828 -0.0577  0.4290 -0.3309
  170SOPE  H12R19209   4.925   0.170   7.874  0.1191  0.3768  0.0785
  170SOPE  H12S19210   5.043   0.232   7.767 -1.2547  1.4275  0.6981
  170SOPE  C21319211   5.114   0.132   7.949  0.2733 -0.4514  0.5079
  170SOPE  H13R19212   5.123   0.229   8.003  4.3595  0.3789 -1.2924
  170SOPE  H13S19213   5.217   0.106   7.916  0.0478  0.7131 -1.2185
  170SOPE  C21419214   5.061   0.032   8.061 -0.1707  0.0758 -0.0695
  170SOPE  H14R19215   5.040  -0.059   8.000 -1.4215  1.2876 -1.4958
  170SOPE  H14S19216   4.959   0.063   8.092  0.2988 -0.4784  2.2202
  170SOPE  C21519217   5.165  -0.002   8.169 -0.1133 -0.6910 -0.5359
  170SOPE  H15R19218   5.166   0.092   8.230 -1.1774 -1.4894  0.7648
  170SOPE  H15S19219   5.268  -0.020   8.132  0.0859  0.5621 -0.6624
  170SOPE  C21619220   5.114  -0.119   8.255 -0.4149 -0.5496 -0.4027
  170SOPE  H16R19221   5.018  -0.093   8.303  0.6737  2.2152  0.4620
  170SOPE  H16S19222   5.170  -0.134   8.350 -1.0789 -0.9111 -0.0581
  170SOPE  C21719223   5.120  -0.253   8.191 -0.0442  0.8184  0.3665
  170SOPE  H17R19224   5.225  -0.286   8.174  0.3991  0.8523  2.6159
  170SOPE  H17S19225   5.085  -0.242   8.087  1.2633 -1.9083 -0.4649
  170SOPE  C21819226   5.039  -0.369   8.254 -0.4820  0.1189 -0.0620
  170SOPE  H18R19227   5.048  -0.467   8.202  1.9875 -0.6002  1.5178
  170SOPE  H18S19228   4.930  -0.349   8.255 -0.6010 -0.5263  0.8112
  170SOPE  H18T19229   5.076  -0.395   8.355  0.1600 -0.8707 -0.5367
  170SOPE   C3319230   5.128   0.738   7.156  0.1075 -0.0749  0.0305
  170SOPE   H3X19231   5.225   0.792   7.154 -0.7179  1.4656 -1.0579
  170SOPE   H3Y19232   5.144   0.632   7.130  2.1189  0.4373 -1.0427
  170SOPE   C3419233   5.070   0.744   7.297 -0.4406  0.3973 -0.1660
  170SOPE   H4X19234   4.961   0.725   7.301 -0.0932 -2.2654 -1.4568
  170SOPE   H4Y19235   5.091   0.842   7.346 -1.9560  0.4196  0.5072
  170SOPE   C3519236   5.139   0.650   7.400 -0.5849  0.5917  0.5616
  170SOPE   H5X19237   5.248   0.666   7.386 -0.6061  1.1050  0.9634
  170SOPE   H5Y19238   5.091   0.554   7.371 -2.9759  0.4566  4.3288
  170SOPE   C3619239   5.098   0.669   7.543 -0.4328 -0.1724 -0.0971
  170SOPE   H6X19240   4.988   0.681   7.551 -0.5146 -1.5505  1.2202
  170SOPE   H6Y19241   5.142   0.763   7.583  0.2143 -2.0610  4.2233
  170SOPE   C3719242   5.140   0.553   7.637  0.7965 -0.1162  0.3611
  170SOPE   H7X19243   5.251   0.554   7.633  0.8927  3.0994  0.9902
  170SOPE   H7Y19244   5.102   0.453   7.608 -0.6291  0.3745  0.4777
  170SOPE   C3819245   5.096   0.588   7.782  0.0320 -0.1679  0.0450
  170SOPE   H8X19246   4.996   0.549   7.812 -1.6897  2.6338 -1.6250
  170SOPE   H8Y19247   5.091   0.699   7.779 -0.8401 -0.1683  0.9637
  170SOPE   C3919248   5.208   0.550   7.872 -0.8495  0.4023  0.0605
  170SOPE   H9X19249   5.298   0.613   7.853  1.1368 -1.9169  1.1344
  170SOPE   H9Y19250   5.243   0.445   7.859 -1.2736  0.0491  1.5071
  170SOPE  C31019251   5.171   0.576   8.018  0.3359 -0.1649 -0.4650
  170SOPE  H10X19252   5.090   0.509   8.053  0.2593  1.3737  2.6587
  170SOPE  H10Y19253   5.145   0.683   8.033  1.2594 -0.0409  0.3768
  170SOPE  C31119254   5.298   0.548   8.102  0.0140  0.5256 -0.7438
  170SOPE  H11X19255   5.381   0.608   8.060 -2.6670  1.9213 -4.5236
  170SOPE  H11Y19256   5.331   0.443   8.086  0.3751  0.6407 -0.7412
  170SOPE  C31219257   5.262   0.563   8.258  0.5448 -0.5719 -0.3888
  170SOPE  H12X19258   5.288   0.467   8.308 -0.7680 -0.0434  1.4035
  170SOPE  H12Y19259   5.154   0.583   8.269  0.7702  0.0120  0.8777
  170SOPE  C31319260   5.318   0.689   8.334  0.6312 -0.2618  1.0126
  170SOPE  H13X19261   5.267   0.779   8.294 -1.9662 -2.0182  0.1456
  170SOPE  H13Y19262   5.426   0.692   8.309  0.9855  0.2526  2.4854
  170SOPE  C31419263   5.288   0.675   8.485 -0.6099  0.2215  0.5610
  170SOPE  H14X19264   5.350   0.590   8.520 -1.1513 -0.7905 -0.8498
  170SOPE  H14Y19265   5.186   0.641   8.510 -1.4223  2.7848  1.0080
  170SOPE  C31519266   5.331   0.801   8.570  0.4240  0.3882  0.2641
  170SOPE  H15X19267   5.245   0.869   8.589  0.8079 -0.0134  4.1441
  170SOPE  H15Y19268   5.408   0.858   8.514 -0.2151  1.6997  0.6937
  170SOPE  C31619269   5.392   0.769   8.709  0.4165  0.4344  0.1043
  170SOPE  H16X19270   5.465   0.686   8.693 -1.9756 -1.6392 -0.7564
  170SOPE  H16Y19271   5.309   0.718   8.764  0.3635 -0.0722 -0.4400
  170SOPE  C31719272   5.444   0.891   8.784  0.3831 -0.0704  0.0370
  170SOPE  H17X19273   5.511   0.948   8.716 -1.8747  1.3393 -1.1334
  170SOPE  H17Y19274   5.504   0.855   8.870 -1.4810 -1.0539  0.9955
  170SOPE  C31819275   5.326   0.968   8.851 -0.3034 -0.3355 -0.1582
  170SOPE  H18X19276   5.354   1.045   8.926 -1.2053  0.3703 -0.5086
  170SOPE  H18Y19277   5.256   0.899   8.903 -1.2283  1.2990  0.8648
  170SOPE  H18Z19278   5.268   1.028   8.777 -0.5222  1.7608  1.6156
  171SOPE     N19279   0.786   2.965   5.897  0.7250  0.2136 -0.1172
  171SOPE   HN119280   0.685   2.984   5.912  0.0386 -1.0931 -2.5594
  171SOPE   HN219281   0.822   3.059   5.868  1.9085 -0.2458 -0.2219
  171SOPE   HN319282   0.782   2.906   5.812 -1.6588  0.4817 -0.2391
  171SOPE   C1219283   0.861   2.901   6.011 -0.6785  0.6791 -0.4275
  171SOPE  H12A19284   0.968   2.887   5.982 -0.7251 -0.2329 -0.1696
  171SOPE  H12B19285   0.819   2.800   6.029 -3.8886  2.0155  0.1333
  171SOPE   C1119286   0.843   2.972   6.141  0.1365 -0.4113 -0.4039
  171SOPE  H11A19287   0.896   3.070   6.140  0.1286 -0.4115 -1.2101
  171SOPE  H11B19288   0.885   2.903   6.218  0.8529  0.9914  0.5082
  171SOPE     P19289   0.623   3.080   6.258 -0.1398  0.0452  0.0058
  171SOPE   O1319290   0.484   3.031   6.277 -0.0733  0.1749 -0.1040
  171SOPE   O1419291   0.644   3.213   6.204  0.2330 -0.4496  0.1226
  171SOPE   O1219292   0.703   2.972   6.163  0.5467 -0.3906  0.5274
  171SOPE   O1119293   0.692   3.068   6.398  0.0729  0.0055 -0.1397
  171SOPE    C119294   0.677   3.190   6.488  0.2841  0.0389  0.1707
  171SOPE    HA19295   0.576   3.235   6.499  0.0516 -0.8701  2.2241
  171SOPE    HB19296   0.743   3.270   6.447 -0.0127  0.0925 -0.2079
  171SOPE    C219297   0.709   3.158   6.634  0.2325 -0.7221  0.8464
  171SOPE    HS19298   0.712   3.249   6.698 -2.9308  0.9134 -1.1036
  171SOPE   O2119299   0.828   3.083   6.651 -0.8061  0.0171 -0.0558
  171SOPE   C2119300   0.942   3.153   6.628  0.2195 -0.0070 -0.6838
  171SOPE   O2219301   0.945   3.272   6.616 -1.2809  0.4242 -0.0231
  171SOPE   C2219302   1.057   3.061   6.623 -0.0004  0.5735 -0.0806
  171SOPE   H2R19303   1.145   3.119   6.588  0.8865 -0.0194  1.0667
  171SOPE   H2S19304   1.034   2.977   6.555 -0.3262  0.7285 -0.1675
  171SOPE    C319305   0.586   3.072   6.699 -0.0872 -0.1272 -0.0470
  171SOPE    HX19306   0.568   2.980   6.639 -3.1577  0.4480 -0.1976
  171SOPE    HY19307   0.491   3.129   6.691  0.3499  0.4571 -1.2993
  171SOPE   O3119308   0.611   3.050   6.845  0.2113  0.5732  0.0307
  171SOPE   C3119309   0.653   2.924   6.875 -0.3195 -0.1697  0.4929
  171SOPE   O3219310   0.677   2.832   6.801  0.3801 -0.0741  0.1857
  171SOPE   C3219311   0.689   2.927   7.023  0.1274  0.1917 -0.0665
  171SOPE   H2X19312   0.594   2.912   7.079 -0.1975 -0.5140 -0.7906
  171SOPE   H2Y19313   0.749   3.016   7.053 -1.3819  1.3971 -0.5246
  171SOPE   C2319314   1.079   2.976   6.761  0.3830  0.1223 -0.5663
  171SOPE   H3R19315   1.155   2.900   6.731 -0.9758 -0.8877 -1.6095
  171SOPE   H3S19316   0.991   2.914   6.788  0.3134  0.8800  1.0694
  171SOPE   C2419317   1.137   3.060   6.870 -0.6724 -0.0680 -0.5640
  171SOPE   H4R19318   1.244   3.081   6.848 -0.8023  1.1167 -0.1260
  171SOPE   H4S19319   1.080   3.155   6.866  1.0958  1.0738  0.0095
  171SOPE   C2519320   1.120   3.005   7.017 -0.2327  0.1160 -0.3942
  171SOPE   H5R19321   1.013   2.993   7.047 -0.4457 -1.2497 -1.5683
  171SOPE   H5S19322   1.166   2.904   7.016 -3.6505 -1.6053  0.1057
  171SOPE   C2619323   1.204   3.074   7.131 -0.0512 -0.5753 -0.1428
  171SOPE   H6R19324   1.308   3.068   7.093  0.1088 -0.7650  0.3151
  171SOPE   H6S19325   1.164   3.177   7.129 -1.1455 -0.9828  0.1560
  171SOPE   C2719326   1.186   3.020   7.274 -0.7930  0.4047  0.7627
  171SOPE   H7R19327   1.122   2.929   7.269  2.2898 -1.9459  1.0018
  171SOPE   H7S19328   1.289   2.991   7.306 -0.0095 -1.1130 -2.6751
  171SOPE   C2819329   1.134   3.121   7.376 -0.1898  0.0193 -0.6185
  171SOPE   H8R19330   1.228   3.175   7.401 -0.5494  1.3830 -2.0626
  171SOPE   H8S19331   1.069   3.195   7.326 -1.4447  0.8423  2.0595
  171SOPE   C2919332   1.068   3.056   7.498 -0.3494 -0.2929 -0.0545
  171SOPE   H9119333   0.985   2.987   7.477  0.0188 -0.5324 -0.7527
  171SOPE  C21019334   1.102   3.072   7.626  0.5395  0.6020 -0.3202
  171SOPE  H10119335   1.047   3.019   7.704  1.2436 -0.5513 -0.5870
  171SOPE  C21119336   1.214   3.158   7.680  0.2391  0.3589  0.8776
  171SOPE  H11R19337   1.184   3.264   7.664 -1.4153 -0.3835 -1.7602
  171SOPE  H11S19338   1.305   3.138   7.620 -1.3153 -1.2561 -1.0965
  171SOPE  C21219339   1.247   3.114   7.823  0.2704  0.0938 -0.1465
  171SOPE  H12R19340   1.345   3.158   7.851  0.5079  0.6277 -1.7016
  171SOPE  H12S19341   1.274   3.007   7.826  2.2450  0.5784  1.1681
  171SOPE  C21319342   1.148   3.158   7.931  0.2594 -0.6037  0.2228
  171SOPE  H13R19343   1.050   3.118   7.899 -0.5895  2.7572 -1.8722
  171SOPE  H13S19344   1.128   3.266   7.918 -0.8677 -0.9367 -0.9365
  171SOPE  C21419345   1.184   3.137   8.076  0.6418 -0.4888 -0.1177
  171SOPE  H14R19346   1.268   3.207   8.097 -0.0991  1.2809 -2.5551
  171SOPE  H14S19347   1.209   3.036   8.115  0.4237 -0.1924  0.8248
  171SOPE  C21519348   1.060   3.178   8.160 -0.0494  0.9052  1.2340
  171SOPE  H15R19349   0.978   3.105   8.146  0.9014 -0.0236  0.3450
  171SOPE  H15S19350   1.027   3.272   8.110 -1.2859  0.4387  1.1526
  171SOPE  C21619351   1.074   3.196   8.312 -0.1088  0.0072  0.7052
  171SOPE  H16R19352   1.157   3.268   8.319  1.2699 -1.5398  0.7831
  171SOPE  H16S19353   1.104   3.097   8.352 -1.2119 -2.2887 -3.5292
  171SOPE  C21719354   0.951   3.242   8.390  0.7925  0.2829  0.4511
  171SOPE  H17R19355   0.899   3.324   8.336  0.8252  1.0165  1.5072
  171SOPE  H17S19356   0.989   3.282   8.487  1.6628 -0.4984  0.4386
  171SOPE  C21819357   0.855   3.132   8.426  0.4836  0.5853 -0.0570
  171SOPE  H18R19358   0.783   3.161   8.505 -0.7686 -1.1406 -0.4941
  171SOPE  H18S19359   0.902   3.042   8.469  0.1984  0.6141  0.3212
  171SOPE  H18T19360   0.797   3.104   8.335  1.6950 -0.4414 -0.5411
  171SOPE   C3319361   0.765   2.800   7.072  0.5804  0.1242 -0.1212
  171SOPE   H3X19362   0.868   2.841   7.075  0.5063  0.3310 -0.3701
  171SOPE   H3Y19363   0.760   2.717   6.998 -1.4835  0.9063 -0.9435
  171SOPE   C3419364   0.729   2.754   7.213 -0.2322  0.0712 -0.1185
  171SOPE   H4X19365   0.805   2.688   7.260  0.4523  1.5950  1.0224
  171SOPE   H4Y19366   0.626   2.714   7.222 -0.6338  1.3544  1.5074
  171SOPE   C3519367   0.733   2.867   7.323  0.4934 -0.3656  0.1975
  171SOPE   H5X19368   0.641   2.928   7.331  0.5572 -0.4208  1.6547
  171SOPE   H5Y19369   0.822   2.929   7.297  2.2031 -2.0598  1.6964
  171SOPE   C3619370   0.767   2.809   7.463  0.1454  0.0362  0.1222
  171SOPE   H6X19371   0.868   2.763   7.458  0.4631  0.8464 -1.7305
  171SOPE   H6Y19372   0.698   2.727   7.492 -1.8432  2.1957  1.9084
  171SOPE   C3719373   0.750   2.913   7.576  0.2597  0.1318 -0.2477
  171SOPE   H7X19374   0.641   2.932   7.585  0.5995  4.0153 -2.0480
  171SOPE   H7Y19375   0.796   3.009   7.544  0.8013 -0.5768 -1.7236
  171SOPE   C3819376   0.796   2.862   7.714 -0.5058 -0.4476 -0.0959
  171SOPE   H8X19377   0.906   2.841   7.712 -0.9293 -3.0772 -2.1160
  171SOPE   H8Y19378   0.749   2.764   7.736 -1.9061  0.1415 -0.3991
  171SOPE   C3919379   0.763   2.968   7.817 -0.0371 -0.0635  1.0593
  171SOPE   H9X19380   0.653   2.985   7.822  0.0660  1.0702 -0.0109
  171SOPE   H9Y19381   0.818   3.059   7.784 -0.9405  0.8374  1.9416
  171SOPE  C31019382   0.825   2.926   7.951 -0.3908  0.1383  0.0609
  171SOPE  H10X19383   0.856   3.019   8.004 -0.8663  0.8213 -0.8315
  171SOPE  H10Y19384   0.902   2.847   7.939 -1.4522 -1.0615  0.8522
  171SOPE  C31119385   0.708   2.870   8.049  0.6154  0.1455 -0.1795
  171SOPE  H11X19386   0.654   2.792   7.991  0.2408  1.2191 -1.3009
  171SOPE  H11Y19387   0.629   2.941   8.079 -0.9418 -0.8806 -1.6508
  171SOPE  C31219388   0.775   2.816   8.176  0.3924 -1.2265  0.0533
  171SOPE  H12X19389   0.792   2.905   8.241  1.0109 -1.2317 -0.0979
  171SOPE  H12Y19390   0.871   2.765   8.157  1.2393 -0.3686  1.7828
  171SOPE  C31319391   0.688   2.711   8.259  0.0634 -0.8652 -0.5557
  171SOPE  H13X19392   0.668   2.630   8.186 -0.1822 -3.1718  1.9438
  171SOPE  H13Y19393   0.592   2.758   8.292  0.7096 -0.9288  1.5138
  171SOPE  C31419394   0.751   2.647   8.385  0.4515  0.4400  0.3986
  171SOPE  H14X19395   0.844   2.594   8.357 -0.2487 -2.0616  2.4281
  171SOPE  H14Y19396   0.678   2.569   8.418  3.2057 -2.1161  0.8787
  171SOPE  C31519397   0.794   2.742   8.504  0.8703  0.0949  0.1184
  171SOPE  H15X19398   0.701   2.786   8.544  1.1883  0.6065  0.3020
  171SOPE  H15Y19399   0.854   2.826   8.462 -0.4894  1.5797  1.0244
  171SOPE  C31619400   0.869   2.663   8.606 -0.6820 -0.3636 -0.1470
  171SOPE  H16X19401   0.951   2.606   8.557 -1.4221 -1.1667 -0.4705
  171SOPE  H16Y19402   0.794   2.592   8.647 -0.8897  0.2643  0.5655
  171SOPE  C31719403   0.913   2.731   8.737 -0.0006 -0.4783  0.4110
  171SOPE  H17X19404   0.943   2.654   8.811  1.1879 -0.4658 -0.0355
  171SOPE  H17Y19405   0.832   2.794   8.780 -0.0187  0.2057 -0.5768
  171SOPE  C31819406   1.032   2.822   8.714  0.2996  0.3082 -0.2608
  171SOPE  H18X19407   1.085   2.853   8.806  1.3233 -0.7199 -0.4753
  171SOPE  H18Y19408   1.001   2.909   8.653 -0.4294 -1.4564 -2.5512
  171SOPE  H18Z19409   1.104   2.771   8.647 -2.2128 -0.8423 -2.2500
  172SOPE     N19410   4.458   5.250   6.225 -0.5539 -0.1047 -0.7645
  172SOPE   HN119411   4.550   5.234   6.180 -0.3355 -0.0193 -0.3487
  172SOPE   HN219412   4.431   5.150   6.230 -0.5307 -0.0763  0.0329
  172SOPE   HN319413   4.398   5.297   6.154 -2.0560  0.8850  1.0624
  172SOPE   C1219414   4.469   5.318   6.361 -0.4382 -0.4699  0.1724
  172SOPE  H12A19415   4.510   5.243   6.433  1.2749 -0.2088 -0.4737
  172SOPE  H12B19416   4.367   5.336   6.402  0.0366 -0.6869  1.5191
  172SOPE   C1119417   4.560   5.448   6.342 -0.4341  0.2070  0.5410
  172SOPE  H11A19418   4.658   5.414   6.302 -1.1976 -0.1440 -1.1116
  172SOPE  H11B19419   4.582   5.508   6.433 -1.9023 -0.1700  1.1676
  172SOPE     P19420   4.379   5.637   6.277  0.0474  0.0349  0.0838
  172SOPE   O1319421   4.262   5.543   6.304 -0.5181 -1.1063 -0.0326
  172SOPE   O1419422   4.363   5.729   6.165 -0.0034 -0.3388 -0.2766
  172SOPE   O1219423   4.509   5.540   6.250  0.6010 -0.4722  0.3154
  172SOPE   O1119424   4.430   5.723   6.410 -0.3162 -0.2299  0.1135
  172SOPE    C119425   4.502   5.841   6.397 -0.2450  0.1250  0.3149
  172SOPE    HA19426   4.440   5.933   6.402 -1.1886 -0.3796 -1.2713
  172SOPE    HB19427   4.558   5.841   6.301  1.3022  0.1543  1.1883
  172SOPE    C219428   4.627   5.843   6.496 -0.0507  0.5142 -0.5264
  172SOPE    HS19429   4.683   5.938   6.482  0.6378  0.2545  0.3718
  172SOPE   O2119430   4.722   5.733   6.474  0.3715  0.4383  0.8212
  172SOPE   C2119431   4.802   5.740   6.362 -0.6487 -0.7100  0.0061
  172SOPE   O2219432   4.786   5.825   6.274  0.3283 -0.0131 -0.4740
  172SOPE   C2219433   4.913   5.640   6.347 -0.3672 -0.8411 -0.4691
  172SOPE   H2R19434   4.986   5.694   6.285 -0.3816 -1.3212 -0.9132
  172SOPE   H2S19435   4.895   5.550   6.284  1.0656 -1.0535 -0.6040
  172SOPE    C319436   4.585   5.826   6.642  0.7311  0.6538  0.6350
  172SOPE    HX19437   4.540   5.725   6.647 -2.1415  1.8559  1.4194
  172SOPE    HY19438   4.502   5.896   6.668  2.0464  2.1674  0.9201
  172SOPE   O3119439   4.700   5.849   6.726  0.2448  0.3340  0.1392
  172SOPE   C3119440   4.719   5.752   6.818  0.1556  0.4987 -0.1190
  172SOPE   O3219441   4.653   5.647   6.820  0.6136 -0.4874 -0.2645
  172SOPE   C3219442   4.830   5.788   6.917  0.6365  1.0028  0.2905
  172SOPE   H2X19443   4.798   5.875   6.978 -1.6465 -0.8333  1.8674
  172SOPE   H2Y19444   4.914   5.827   6.856  3.2889 -1.2010  2.2166
  172SOPE   C2319445   4.977   5.585   6.476 -0.1325 -0.3445 -0.1373
  172SOPE   H3R19446   5.047   5.502   6.451  0.1373 -0.4817  1.0122
  172SOPE   H3S19447   4.893   5.555   6.541  1.6905 -0.3977  2.3377
  172SOPE   C2419448   5.042   5.707   6.545 -0.8760 -0.6373 -0.9104
  172SOPE   H4R19449   5.123   5.741   6.477  0.9797  1.5963  2.1586
  172SOPE   H4S19450   4.980   5.799   6.554  0.7512  0.5603 -1.4587
  172SOPE   C2519451   5.104   5.668   6.680  0.6521  0.0211 -0.3959
  172SOPE   H5R19452   5.158   5.755   6.725 -1.1673  0.2213  1.5485
  172SOPE   H5S19453   5.032   5.631   6.756  1.1281 -2.3093 -1.0095
  172SOPE   C2619454   5.208   5.557   6.667  0.3720 -0.3202  0.2754
  172SOPE   H6R19455   5.166   5.458   6.642  0.6386 -1.2512  3.1650
  172SOPE   H6S19456   5.289   5.578   6.594  2.5529  0.6081  2.7833
  172SOPE   C2719457   5.282   5.541   6.800  0.1854 -0.0280  0.0962
  172SOPE   H7R19458   5.373   5.482   6.777 -0.3703 -1.9142  2.3189
  172SOPE   H7S19459   5.317   5.642   6.829 -0.3207  0.6523 -1.5924
  172SOPE   C2819460   5.202   5.463   6.910 -0.1964 -0.2454 -0.4162
  172SOPE   H8R19461   5.109   5.521   6.928 -0.6988 -1.0352 -0.4290
  172SOPE   H8S19462   5.167   5.372   6.856 -1.9400  0.2535 -0.1802
  172SOPE   C2919463   5.297   5.429   7.023 -0.2464 -0.0366 -0.2301
  172SOPE   H9119464   5.389   5.379   6.990 -1.2315 -0.2892 -2.8158
  172SOPE  C21019465   5.277   5.444   7.151  0.5099  0.6352  0.4731
  172SOPE  H10119466   5.340   5.404   7.232 -0.3425 -1.3299  0.2073
  172SOPE  C21119467   5.151   5.500   7.219  0.1163 -0.2324 -0.3815
  172SOPE  H11R19468   5.052   5.462   7.186 -0.8928  1.9265 -0.0085
  172SOPE  H11S19469   5.150   5.609   7.201 -0.0437  0.0910  1.4174
  172SOPE  C21219470   5.157   5.487   7.372  0.7378  0.9169 -0.2990
  172SOPE  H12R19471   5.062   5.525   7.416 -0.5233  0.3433 -2.3748
  172SOPE  H12S19472   5.238   5.542   7.422  0.1326  0.0236  1.8015
  172SOPE  C21319473   5.161   5.338   7.422  0.1101 -0.1640 -0.0139
  172SOPE  H13R19474   5.261   5.294   7.401 -0.7791 -1.7510 -1.1540
  172SOPE  H13S19475   5.089   5.283   7.358  0.4485  0.5980 -1.0894
  172SOPE  C21419476   5.126   5.316   7.567 -0.1596 -0.0352  0.4128
  172SOPE  H14R19477   5.031   5.361   7.602 -0.5980 -1.0071  0.5192
  172SOPE  H14S19478   5.199   5.356   7.641 -1.2725 -0.6777  1.9360
  172SOPE  C21519479   5.112   5.167   7.607  0.4252  0.7755  0.5498
  172SOPE  H15R19480   5.208   5.118   7.580  0.5539  0.4288  1.6020
  172SOPE  H15S19481   5.028   5.121   7.550  0.3228  0.1964  1.1502
  172SOPE  C21619482   5.092   5.138   7.754  0.3338 -0.3221  0.2492
  172SOPE  H16R19483   4.986   5.156   7.781  1.0185  1.1199  2.1958
  172SOPE  H16S19484   5.157   5.204   7.814 -1.1033  0.5833  0.8616
  172SOPE  C21719485   5.113   4.990   7.795 -0.5304  0.2547 -0.5608
  172SOPE  H17R19486   5.218   4.959   7.776 -0.5362  0.0976 -0.3280
  172SOPE  H17S19487   5.049   4.929   7.727 -1.0264  0.5161 -0.3397
  172SOPE  C21819488   5.070   4.968   7.944 -0.2579  0.4453  0.7484
  172SOPE  H18R19489   5.105   4.873   7.990  1.4054  0.8288  0.3480
  172SOPE  H18S19490   4.961   4.983   7.954 -0.6842 -1.3430 -0.8038
  172SOPE  H18T19491   5.121   5.034   8.018 -0.1377  0.0735  0.9969
  172SOPE   C3319492   4.879   5.673   6.996 -0.1826  0.0318  0.0569
  172SOPE   H3X19493   4.982   5.702   7.025 -0.1572  0.2931 -0.2892
  172SOPE   H3Y19494   4.888   5.585   6.930  0.5877 -0.8318  1.2602
  172SOPE   C3419495   4.789   5.636   7.122 -0.7198 -0.3655  0.4605
  172SOPE   H4X19496   4.846   5.555   7.173 -0.3577  0.1776  0.9322
  172SOPE   H4Y19497   4.698   5.589   7.079 -1.3202  2.7538 -2.0767
  172SOPE   C3519498   4.753   5.761   7.206 -0.2392 -0.0371 -0.5999
  172SOPE   H5X19499   4.669   5.812   7.155  0.3411 -0.1474 -1.6898
  172SOPE   H5Y19500   4.841   5.829   7.213  0.4843 -1.0992  1.5021
  172SOPE   C3619501   4.738   5.709   7.346  0.3706  0.1518 -0.1509
  172SOPE   H6X19502   4.824   5.645   7.376 -1.9261 -2.4773  1.2463
  172SOPE   H6Y19503   4.652   5.640   7.349  0.2720  0.2713 -0.2309
  172SOPE   C3719504   4.727   5.817   7.453  0.0116 -0.4775  1.0950
  172SOPE   H7X19505   4.636   5.879   7.440  0.7811  0.2138 -1.7035
  172SOPE   H7Y19506   4.812   5.888   7.452  0.9433 -1.5348 -0.8576
  172SOPE   C3819507   4.710   5.754   7.587  0.5420 -0.2597  0.1446
  172SOPE   H8X19508   4.811   5.723   7.623  0.5880  2.3234  2.5485
  172SOPE   H8Y19509   4.638   5.669   7.579  0.0108  0.3638 -3.5409
  172SOPE   C3919510   4.662   5.848   7.689  0.1880 -0.0663 -0.3037
  172SOPE   H9X19511   4.556   5.874   7.672  0.0803  0.3437  0.8682
  172SOPE   H9Y19512   4.711   5.948   7.680 -2.2038  1.1666 -0.3412
  172SOPE  C31019513   4.675   5.799   7.832  0.1439  0.9881  0.0955
  172SOPE  H10X19514   4.781   5.766   7.841 -0.1233 -0.2185 -0.9927
  172SOPE  H10Y19515   4.609   5.714   7.857  5.5304 -3.4548  1.2911
  172SOPE  C31119516   4.647   5.920   7.924  0.1089  0.1266  0.5055
  172SOPE  H11X19517   4.547   5.962   7.901  0.9928  2.5028  0.7255
  172SOPE  H11Y19518   4.718   6.001   7.899 -1.8982  0.8393 -3.6862
  172SOPE  C31219519   4.663   5.878   8.069  0.4048 -0.0474  0.0390
  172SOPE  H12X19520   4.609   5.783   8.088  0.8695 -0.8339 -2.2577
  172SOPE  H12Y19521   4.618   5.949   8.141  1.6441 -0.5473  1.3589
  172SOPE  C31319522   4.811   5.860   8.113 -0.0471 -0.9557 -0.7553
  172SOPE  H13X19523   4.863   5.959   8.117 -2.2175  0.2231  1.6922
  172SOPE  H13Y19524   4.869   5.783   8.059 -0.7079 -2.4115  0.5543
  172SOPE  C31419525   4.812   5.823   8.260  0.0022  0.2555 -0.2736
  172SOPE  H14X19526   4.735   5.747   8.286  0.6947 -0.3953 -0.0964
  172SOPE  H14Y19527   4.767   5.916   8.300 -1.2361  0.3128 -1.7128
  172SOPE  C31519528   4.946   5.792   8.316 -0.0593  0.0786  0.0351
  172SOPE  H15X19529   4.940   5.777   8.426  1.4052 -1.1207 -0.0081
  172SOPE  H15Y19530   5.016   5.875   8.293 -1.7202  1.0245 -1.9136
  172SOPE  C31619531   5.014   5.668   8.257 -0.9250 -0.6114 -0.1641
  172SOPE  H16X19532   5.117   5.661   8.298 -0.7557  2.0440  0.0582
  172SOPE  H16Y19533   5.034   5.685   8.149 -0.3391  1.7526  0.2533
  172SOPE  C31719534   4.931   5.536   8.278  0.1267 -0.8690 -0.3945
  172SOPE  H17X19535   4.841   5.554   8.215 -0.7180  0.3823  1.0916
  172SOPE  H17Y19536   4.906   5.532   8.386  0.4590 -0.3390 -0.2911
  172SOPE  C31819537   5.001   5.420   8.224 -0.3704  0.3992  0.4554
  172SOPE  H18X19538   5.079   5.391   8.298  0.0517  0.2739 -0.0395
  172SOPE  H18Y19539   5.044   5.436   8.123 -0.5137  0.3606  0.3889
  172SOPE  H18Z19540   4.921   5.343   8.219 -0.7076  0.8187 -0.9376
  173SAPI   C1219541   6.026   4.819  10.785 -0.3646  0.0360  0.5363
  173SAPI    H219542   6.070   4.782  10.880  0.0996  1.9402  1.1056
  173SAPI    O219543   5.884   4.780  10.785  0.8651  0.3675  1.0703
  173SAPI   HO219544   5.876   4.685  10.795 -3.2876  0.2690 -0.9258
  173SAPI   C1319545   6.052   4.963  10.790 -0.1078  0.5676 -0.4847
  173SAPI    H319546   6.163   4.970  10.789 -0.0731  0.0056 -0.6687
  173SAPI    O319547   6.014   5.026  10.914  0.3273 -0.2094  0.1153
  173SAPI   HO319548   5.919   5.013  10.922 -0.1972  1.9678 -1.3910
  173SAPI   C1419549   6.008   5.042  10.668  0.0541 -0.3324  0.2121
  173SAPI    H419550   5.897   5.051  10.659  0.1669  1.6339  0.3585
  173SAPI    O419551   6.050   5.179  10.682  0.2568  0.2537 -0.3274
  173SAPI   HO419552   6.017   5.236  10.751  2.2899  0.1905  0.7621
  173SAPI   C1519553   6.071   4.975  10.543 -0.2599 -0.2393 -0.2735
  173SAPI    H519554   6.179   5.002  10.547 -0.1689 -0.2380 -1.9982
  173SAPI    O519555   6.028   5.047  10.429  0.2117  0.2076 -0.3862
  173SAPI   HO519556   6.095   5.057  10.361  1.4645 -2.7973  0.2369
  173SAPI   C1619557   6.062   4.826  10.538  0.9034 -0.0138  0.0662
  173SAPI    H619558   5.955   4.802  10.521  1.3600  0.3916 -4.5495
  173SAPI    O619559   6.138   4.778  10.433 -0.4510  0.3204 -0.1317
  173SAPI   HO619560   6.147   4.683  10.442  1.8766  0.5956  1.4596
  173SAPI   C1119561   6.105   4.764  10.667  0.8970  0.0627 -0.0504
  173SAPI    H119562   6.213   4.790  10.675  1.1449 -0.6976 -0.8136
  173SAPI     P19563   6.208   4.517  10.680 -0.1721  0.3940  0.1516
  173SAPI   O1319564   6.153   4.385  10.721 -0.1056  0.0988  0.1095
  173SAPI   O1419565   6.311   4.580  10.773  0.7957 -0.3219 -0.5815
  173SAPI   O1219566   6.085   4.621  10.670 -0.3663 -0.0139 -0.2288
  173SAPI   O1119567   6.261   4.511  10.532  0.1139 -0.6472  0.4326
  173SAPI    C119568   6.402   4.486  10.515  0.0021  0.1241  0.1057
  173SAPI    HA19569   6.449   4.583  10.489  0.8315 -0.0751  0.8122
  173SAPI    HB19570   6.455   4.444  10.603 -2.9488  1.6346  2.8148
  173SAPI    C219571   6.422   4.388  10.397 -0.1603 -0.2651 -0.1960
  173SAPI    HS19572   6.533   4.396  10.388 -0.2699  2.2275 -0.1337
  173SAPI   O2119573   6.355   4.437  10.278  0.3180  0.2294 -1.2033
  173SAPI   C2119574   6.392   4.543  10.215  0.0845 -0.5019  0.4181
  173SAPI   O2219575   6.499   4.594  10.233  0.2414 -0.4984  0.7079
  173SAPI   C2219576   6.279   4.580  10.116 -0.2929 -0.0797 -0.0042
  173SAPI   H2R19577   6.182   4.528  10.132 -0.9248  0.7817 -0.9160
  173SAPI   H2S19578   6.261   4.688  10.138 -2.1676 -0.1342 -1.0726
  173SAPI    C319579   6.381   4.246  10.434  0.8709  0.0832  0.6113
  173SAPI    HX19580   6.270   4.245  10.445  0.6972  2.4479 -0.2369
  173SAPI    HY19581   6.418   4.208  10.531  0.4702 -0.1033  0.6936
  173SAPI   O3119582   6.414   4.146  10.342 -0.5028 -0.3518 -0.3051
  173SAPI   C3119583   6.537   4.104  10.340  0.2059 -0.2258  0.3614
  173SAPI   O3219584   6.626   4.160  10.400 -0.2092  0.2418  0.5919
  173SAPI   C3219585   6.544   3.972  10.257 -0.8032 -0.6620 -0.1249
  173SAPI   H2X19586   6.451   3.913  10.276  0.7716 -2.7481  1.5372
  173SAPI   H2Y19587   6.633   3.914  10.287 -1.5161 -0.5169  2.4686
  173SAPI   C2319588   6.323   4.549   9.972 -0.9127 -0.4685 -0.0729
  173SAPI   H3R19589   6.237   4.550   9.901 -0.8722  0.8973 -0.1299
  173SAPI   H3S19590   6.358   4.444   9.970 -0.5539 -0.3418 -0.3639
  173SAPI   C2419591   6.426   4.654   9.935 -0.8260 -0.6907  0.2533
  173SAPI   H4R19592   6.483   4.617   9.847  0.6046  0.5581  0.5996
  173SAPI   H4S19593   6.509   4.684  10.002 -2.4940  2.2014  1.1958
  173SAPI   C2519594   6.352   4.787   9.907  0.1133  0.4681  0.4259
  173SAPI   H5R19595   6.349   4.855   9.994 -1.1065  2.9981 -1.4787
  173SAPI   C2619596   6.295   4.838   9.796  0.4124  0.0440 -0.0186
  173SAPI   H6R19597   6.274   4.946   9.800  1.0317  0.3904 -3.3831
  173SAPI   C2719598   6.284   4.766   9.662  0.6853 -0.4738 -0.1562
  173SAPI   H7R19599   6.212   4.829   9.604  0.8231 -0.3622 -0.2051
  173SAPI   H7S19600   6.229   4.670   9.673 -0.8790  0.3445 -0.5539
  173SAPI   C2819601   6.411   4.760   9.594 -0.0829 -0.8160 -0.4985
  173SAPI   H8R19602   6.505   4.776   9.648  1.1483  0.1689 -2.7662
  173SAPI   C2919603   6.415   4.747   9.459 -0.4794 -0.1551 -0.4762
  173SAPI   H9R19604   6.515   4.733   9.414  0.8928 -0.7172  2.5421
  173SAPI  C21019605   6.306   4.717   9.361 -0.0007 -0.1753  0.1515
  173SAPI  H10R19606   6.264   4.819   9.342 -0.6192 -0.1130  1.7489
  173SAPI  H10S19607   6.218   4.668   9.407 -1.2597  0.9362 -0.9450
  173SAPI  C21119608   6.341   4.651   9.230 -0.7968  1.0391 -0.8802
  173SAPI  H11R19609   6.371   4.545   9.241  2.0533  1.6973 -1.4074
  173SAPI  C21219610   6.331   4.705   9.111 -0.5453 -0.3118 -0.1416
  173SAPI  H12R19611   6.357   4.646   9.022 -2.5198 -0.4203 -0.6847
  173SAPI  C21319612   6.294   4.848   9.074  0.5118 -0.2981  0.2267
  173SAPI  H13R19613   6.385   4.877   9.018 -0.6311 -0.3715 -1.7688
  173SAPI  H13S19614   6.304   4.913   9.163  0.0527 -1.0773  0.8559
  173SAPI  C21419615   6.176   4.863   8.979  0.1906 -0.1842 -0.3446
  173SAPI  H14R19616   6.077   4.844   9.022  0.1758  0.6018 -0.0146
  173SAPI  C21519617   6.178   4.882   8.844 -0.5807  0.2349  0.2893
  173SAPI  H15R19618   6.085   4.886   8.786  0.3740 -2.6570 -1.6788
  173SAPI  C21619619   6.302   4.879   8.760 -0.3991  0.2618  0.5158
  173SAPI  H16R19620   6.402   4.868   8.806 -1.1209 -0.8211  1.8948
  173SAPI  H16S19621   6.306   4.981   8.716  0.0569  0.4712  1.0233
  173SAPI  C21719622   6.295   4.778   8.646 -0.0691  0.1257  0.2766
  173SAPI  H17R19623   6.281   4.681   8.699 -0.1264 -0.6548 -1.1106
  173SAPI  H17S19624   6.391   4.771   8.590 -0.4561 -0.3410 -0.3506
  173SAPI  C21819625   6.183   4.792   8.545  0.5210  0.1035 -0.1298
  173SAPI  H18R19626   6.208   4.887   8.493  2.4537  0.2845  1.0150
  173SAPI  H18S19627   6.089   4.796   8.605  0.6967  0.5282  0.1169
  173SAPI  C21919628   6.169   4.669   8.461 -0.1137 -0.7769 -0.3585
  173SAPI  H19R19629   6.066   4.658   8.422 -0.7823 -0.0942  1.1545
  173SAPI  H19S19630   6.191   4.580   8.524  2.4362 -0.5394 -0.7931
  173SAPI  C22019631   6.272   4.668   8.345 -0.7799 -0.3787 -1.4074
  173SAPI  H20R19632   6.372   4.696   8.385  0.4380 -0.2838 -4.3016
  173SAPI  H20S19633   6.254   4.744   8.266 -0.2612  1.5238  0.2037
  173SAPI  H20T19634   6.277   4.568   8.299 -0.9143 -0.6897 -0.7585
  173SAPI   C3319635   6.557   4.014  10.108  0.3895  0.0563 -0.1259
  173SAPI   H3X19636   6.644   4.083  10.104  0.0219  0.6382  1.2030
  173SAPI   H3Y19637   6.474   4.083  10.081  1.3075  1.4669  0.5343
  173SAPI   C3419638   6.576   3.897  10.008 -0.2991  0.1891  0.3095
  173SAPI   H4X19639   6.519   3.806  10.035 -1.9015  0.3945 -2.0455
  173SAPI   H4Y19640   6.685   3.882   9.994 -0.0760  2.0988 -0.1988
  173SAPI   C3519641   6.514   3.933   9.875  0.3723 -0.5179 -0.6118
  173SAPI   H5X19642   6.545   4.040   9.872 -0.8737 -0.1225  0.0337
  173SAPI   H5Y19643   6.404   3.926   9.879  0.3460  0.4750  2.0540
  173SAPI   C3619644   6.582   3.863   9.759 -0.4613  0.0859 -0.6214
  173SAPI   H6X19645   6.561   3.754   9.755 -3.1922  0.5602 -1.8406
  173SAPI   H6Y19646   6.691   3.881   9.769 -0.9165  3.3788 -0.5340
  173SAPI   C3719647   6.532   3.919   9.626  0.2586 -0.0553  0.0147
  173SAPI   H7X19648   6.530   4.030   9.633  2.4619 -0.0641  2.4875
  173SAPI   H7Y19649   6.432   3.886   9.592  0.5419 -0.8805 -0.0455
  173SAPI   C3819650   6.627   3.875   9.510 -0.2310 -0.0245 -0.6598
  173SAPI   H8X19651   6.637   3.765   9.516 -0.0209  0.0457  0.4516
  173SAPI   H8Y19652   6.721   3.932   9.526 -0.3765 -0.3128  1.4313
  173SAPI   C3919653   6.566   3.903   9.370 -0.2855 -0.4124  0.1023
  173SAPI   H9X19654   6.577   4.013   9.364  0.1502 -0.5480 -3.7009
  173SAPI   H9Y19655   6.459   3.879   9.389  0.0683 -0.8320  1.7774
  173SAPI  C31019656   6.627   3.832   9.251  0.5425  0.3698  0.2153
  173SAPI  H10X19657   6.663   3.733   9.286  0.9076  0.4204 -0.0168
  173SAPI  H10Y19658   6.719   3.882   9.214  1.2756 -1.5694 -0.7571
  173SAPI  C31119659   6.544   3.808   9.119 -0.2831  0.0089 -0.2823
  173SAPI  H11X19660   6.480   3.718   9.130 -1.4576  0.8654  0.1050
  173SAPI  H11Y19661   6.613   3.787   9.034 -1.1353 -4.0501 -0.1668
  173SAPI  C31219662   6.457   3.924   9.078 -0.2136 -0.1302  0.1691
  173SAPI  H12X19663   6.512   4.017   9.051 -0.1754 -0.6442 -1.6670
  173SAPI  H12Y19664   6.388   3.946   9.162 -2.3110  1.5350 -1.8405
  173SAPI  C31319665   6.376   3.883   8.952 -0.1852  0.1301  0.2965
  173SAPI  H13X19666   6.320   3.976   8.926  1.2240  0.5188 -1.5961
  173SAPI  H13Y19667   6.304   3.806   8.984  0.0287 -0.0999  0.2269
  173SAPI  C31419668   6.455   3.849   8.830  0.3396  0.1633  0.6970
  173SAPI  H14X19669   6.517   3.757   8.833 -2.1836 -1.7141 -0.6212
  173SAPI  H14Y19670   6.515   3.937   8.798 -0.7965  0.5112 -0.5621
  173SAPI  C31519671   6.362   3.828   8.706 -0.2551 -0.5621 -0.4677
  173SAPI  H15X19672   6.431   3.823   8.619  3.2218 -1.8960  2.1197
  173SAPI  H15Y19673   6.286   3.908   8.700  0.6515  0.2467 -1.9095
  173SAPI  C31619674   6.278   3.700   8.716 -0.9911  0.4888  0.0252
  173SAPI  H16X19675   6.254   3.671   8.820  2.8621 -0.7317  0.7206
  173SAPI  H16Y19676   6.336   3.620   8.664  0.0010  2.4146 -2.0263
  173SAPI  C31719677   6.143   3.714   8.653 -0.0121  0.6169 -0.5236
  173SAPI  H17X19678   6.093   3.810   8.678 -1.6985  0.0684 -1.6372
  173SAPI  H17Y19679   6.082   3.629   8.690  1.8227  0.2273  1.9170
  173SAPI  C31819680   6.148   3.698   8.498  0.2067  0.5668  0.5340
  173SAPI  H18X19681   6.041   3.704   8.467  0.2387 -1.8262 -0.1756
  173SAPI  H18Y19682   6.179   3.595   8.472 -0.4862  0.4161  0.2973
  173SAPI  H18Z19683   6.211   3.778   8.453  1.4362  0.7691  2.4601
  174SAPI   C1219684   3.848   5.455  11.033  0.3270  0.0995  0.3459
  174SAPI    H219685   3.911   5.432  11.121  2.4943  1.3826 -0.7785
  174SAPI    O219686   3.852   5.353  10.928  0.4933  0.3830 -0.1613
  174SAPI   HO219687   3.834   5.377  10.837  0.8516  0.7103 -0.1440
  174SAPI   C1319688   3.700   5.481  11.080 -0.5483  0.9441  0.9262
  174SAPI    H319689   3.695   5.563  11.155  0.3911  2.0911 -0.2309
  174SAPI    O319690   3.638   5.362  11.129  0.1128 -0.0033 -0.2732
  174SAPI   HO319691   3.602   5.394  11.212  2.7513  2.7943  0.0025
  174SAPI   C1419692   3.617   5.528  10.959  0.6555  0.1122 -0.4330
  174SAPI    H419693   3.630   5.454  10.877  0.2494  0.7100 -1.0446
  174SAPI    O419694   3.479   5.547  10.991 -0.3723 -0.2921 -0.3166
  174SAPI   HO419695   3.454   5.535  11.083  0.2759  1.8305  0.1762
  174SAPI   C1519696   3.670   5.659  10.908  0.2662 -0.4638 -0.1461
  174SAPI    H519697   3.660   5.730  10.992  0.8742  0.4698 -0.8390
  174SAPI    O519698   3.594   5.717  10.798 -0.0620 -0.2715 -0.3051
  174SAPI   HO519699   3.577   5.647  10.734  1.0581 -0.1173 -0.7867
  174SAPI   C1619700   3.824   5.644  10.868 -0.3132  0.0327 -0.2556
  174SAPI    H619701   3.834   5.574  10.782  0.9428  2.7008 -2.4857
  174SAPI    O619702   3.875   5.772  10.825  0.4683  0.6616  0.2106
  174SAPI   HO619703   3.969   5.755  10.826  0.2304 -1.3161 -1.6839
  174SAPI   C1119704   3.903   5.584  10.983  0.0771  0.1577  0.5325
  174SAPI    H119705   3.899   5.656  11.068  3.0931 -0.1263  1.0377
  174SAPI     P19706   4.164   5.664  10.962 -0.1083  0.0803  0.0146
  174SAPI   O1319707   4.296   5.595  10.949 -0.2762 -0.2472 -0.5665
  174SAPI   O1419708   4.141   5.727  11.097 -0.4850  0.4645  0.2799
  174SAPI   O1219709   4.041   5.554  10.937  0.4669 -0.5860  0.3147
  174SAPI   O1119710   4.138   5.770  10.843 -0.3864  0.2677 -0.1082
  174SAPI    C119711   4.236   5.792  10.745  0.2487 -0.4555 -0.6904
  174SAPI    HA19712   4.322   5.851  10.782  1.0315 -1.2681 -1.1642
  174SAPI    HB19713   4.278   5.696  10.708  1.8492 -0.1319  0.2142
  174SAPI    C219714   4.179   5.863  10.611 -0.4320 -0.1469 -0.4546
  174SAPI    HS19715   4.181   5.971  10.634 -4.3310  0.8303 -3.6770
  174SAPI   O2119716   4.050   5.806  10.580  0.2963  0.4696  0.0858
  174SAPI   C2119717   3.954   5.883  10.523 -0.4730  0.2400 -0.4705
  174SAPI   O2219718   3.968   6.000  10.503  0.6739  0.5163 -0.2937
  174SAPI   C2219719   3.836   5.788  10.490 -0.2310 -0.2304 -0.1012
  174SAPI   H2R19720   3.868   5.709  10.420 -0.1104  0.3284 -0.6824
  174SAPI   H2S19721   3.810   5.729  10.581  0.7322 -1.6384 -0.7058
  174SAPI    C319722   4.271   5.836  10.495 -0.6876  0.7631 -0.1227
  174SAPI    HX19723   4.278   5.727  10.473  1.1801  0.8413 -0.0814
  174SAPI    HY19724   4.375   5.861  10.526 -0.2013 -1.7757  0.5516
  174SAPI   O3119725   4.236   5.927  10.388  0.6128 -0.0591 -0.3824
  174SAPI   C3119726   4.191   5.865  10.281 -0.5898  0.2947  0.2073
  174SAPI   O3219727   4.154   5.749  10.282 -0.1831  0.2504 -0.2581
  174SAPI   C3219728   4.157   5.964  10.181 -0.1352 -0.3038  0.3367
  174SAPI   H2X19729   4.244   6.002  10.123 -0.4651  0.6005  0.4138
  174SAPI   H2Y19730   4.110   6.051  10.233  0.2127 -0.9366  1.7469
  174SAPI   C2319731   3.723   5.869  10.431  0.4120 -0.4991 -0.3313
  174SAPI   H3R19732   3.696   5.963  10.485  4.1771 -0.0601  1.1009
  174SAPI   H3S19733   3.640   5.795  10.432 -2.1762  2.1582  0.7572
  174SAPI   C2419734   3.744   5.918  10.281  0.4584  0.2545  0.0463
  174SAPI   H4R19735   3.769   5.828  10.220 -2.0027 -0.4237 -0.0736
  174SAPI   H4S19736   3.835   5.981  10.280  1.0208 -0.3863 -3.1605
  174SAPI   C2519737   3.620   5.997  10.234  0.0786  0.6139 -0.3773
  174SAPI   H5R19738   3.619   6.099  10.277  0.0380  1.5964 -2.5340
  174SAPI   C2619739   3.522   5.956  10.147 -0.6501 -0.8593 -0.5604
  174SAPI   H6R19740   3.442   6.026  10.117 -0.4000 -0.3765 -0.1141
  174SAPI   C2719741   3.504   5.829  10.065 -0.1733 -0.4872 -0.1052
  174SAPI   H7R19742   3.547   5.764  10.144  3.3707  0.2799 -1.1937
  174SAPI   H7S19743   3.587   5.847   9.993  1.2482  0.9677  1.7725
  174SAPI   C2819744   3.378   5.772  10.001 -0.4879  0.3124 -0.2136
  174SAPI   H8R19745   3.341   5.703  10.079  1.7282  1.4549  2.0078
  174SAPI   C2919746   3.330   5.769   9.873  0.0239  0.6260 -0.2485
  174SAPI   H9R19747   3.243   5.707   9.849 -0.0173  0.6847 -0.2519
  174SAPI  C21019748   3.404   5.839   9.758  0.2139 -0.0707  0.2186
  174SAPI  H10R19749   3.514   5.825   9.769 -0.0265 -0.7535  1.9859
  174SAPI  H10S19750   3.387   5.949   9.752 -0.4927 -0.1893  0.0375
  174SAPI  C21119751   3.345   5.792   9.624  0.6622 -0.1841 -0.5516
  174SAPI  H11R19752   3.243   5.830   9.612  0.7734  0.1428 -0.4740
  174SAPI  C21219753   3.414   5.734   9.523  0.2583  0.8674 -0.2288
  174SAPI  H12R19754   3.356   5.712   9.432 -0.5249  1.4128  0.1249
  174SAPI  C21319755   3.561   5.696   9.524 -0.3073 -0.0474  0.0570
  174SAPI  H13R19756   3.599   5.708   9.628 -1.1034  0.9162  0.2612
  174SAPI  H13S19757   3.621   5.763   9.458 -0.9906  0.1080 -0.4181
  174SAPI  C21419758   3.585   5.553   9.479 -0.5671  0.1622 -0.3346
  174SAPI  H14R19759   3.603   5.478   9.557  0.2916 -0.3166 -0.9817
  174SAPI  C21519760   3.589   5.504   9.357 -0.2388  0.0857 -0.5792
  174SAPI  H15R19761   3.618   5.399   9.341 -1.8265 -0.0575 -3.0058
  174SAPI  C21619762   3.577   5.575   9.224 -0.4632 -0.2480 -0.3561
  174SAPI  H16R19763   3.630   5.672   9.226 -2.6186  0.9999 -0.6866
  174SAPI  H16S19764   3.472   5.608   9.211 -0.9473 -1.2007  0.8820
  174SAPI  C21719765   3.618   5.503   9.097 -0.0437  0.4298  0.1305
  174SAPI  H17R19766   3.591   5.560   9.006  1.4870  2.0409  0.6326
  174SAPI  H17S19767   3.581   5.398   9.099 -2.1247  1.0851  3.8207
  174SAPI  C21819768   3.777   5.494   9.084  0.7515 -0.1362  0.0081
  174SAPI  H18R19769   3.786   5.394   9.037 -2.4762  0.5410 -2.3752
  174SAPI  H18S19770   3.834   5.526   9.174  1.5607  1.1731 -0.9232
  174SAPI  C21919771   3.829   5.598   8.986 -0.5761  0.0751 -0.1439
  174SAPI  H19R19772   3.844   5.696   9.036 -1.6914 -0.3246  1.0378
  174SAPI  H19S19773   3.769   5.601   8.892  1.1908 -1.1124 -1.3711
  174SAPI  C22019774   3.973   5.573   8.933  0.3412  0.2094 -0.1465
  174SAPI  H20R19775   4.018   5.658   8.876 -1.7619  1.6044  0.1542
  174SAPI  H20S19776   3.974   5.476   8.879  0.7908  0.5817 -0.8228
  174SAPI  H20T19777   4.032   5.559   9.026  0.9813  2.2275 -0.1875
  174SAPI   C3319778   4.060   5.912  10.077  0.7164 -0.0603 -0.0720
  174SAPI   H3X19779   3.976   5.862  10.129  0.7791 -2.3000 -1.9552
  174SAPI   H3Y19780   4.117   5.849  10.005  2.0518  0.0302  0.8524
  174SAPI   C3419781   3.998   6.022   9.990  0.2060  0.3981 -0.5220
  174SAPI   H4X19782   3.946   6.094  10.057  2.7707  2.0805 -0.2104
  174SAPI   H4Y19783   3.936   5.967   9.916  1.4863  0.0880 -1.3986
  174SAPI   C3519784   4.111   6.093   9.918  0.5244  0.0685  0.2973
  174SAPI   H5X19785   4.192   6.017   9.910  0.0447 -0.6643  1.9771
  174SAPI   H5Y19786   4.152   6.179   9.975  0.3291  1.2845 -1.3269
  174SAPI   C3619787   4.051   6.146   9.788  0.0015 -0.0055 -0.0619
  174SAPI   H6X19788   3.953   6.197   9.799 -0.7557 -1.6805  1.5200
  174SAPI   H6Y19789   4.035   6.059   9.720 -2.3836 -0.3956  0.8796
  174SAPI   C3719790   4.145   6.253   9.734 -1.1455  0.8521 -0.1138
  174SAPI   H7X19791   4.246   6.210   9.718 -1.1988  1.4678 -2.4132
  174SAPI   H7Y19792   4.161   6.333   9.809  0.7277 -0.1733  0.6337
  174SAPI   C3819793   4.107   6.314   9.604 -0.5404  0.5683 -0.1263
  174SAPI   H8X19794   4.150   6.416   9.603 -1.8504  1.1976  1.7701
  174SAPI   H8Y19795   3.998   6.335   9.604 -0.3421  1.6786  0.5169
  174SAPI   C3919796   4.147   6.236   9.478  0.1547 -0.7711 -0.2798
  174SAPI   H9X19797   4.064   6.251   9.407 -0.4994  2.6730  1.0144
  174SAPI   H9Y19798   4.156   6.127   9.496 -1.3322 -0.9549 -0.5370
  174SAPI  C31019799   4.281   6.285   9.420 -0.3319 -0.6236 -0.2362
  174SAPI  H10X19800   4.300   6.219   9.333 -1.6229  0.9648 -1.7920
  174SAPI  H10Y19801   4.364   6.278   9.493  1.1474 -1.2971 -1.9088
  174SAPI  C31119802   4.265   6.433   9.374 -0.0927 -0.6824  0.4310
  174SAPI  H11X19803   4.296   6.505   9.452 -0.4467  0.7984 -0.7359
  174SAPI  H11Y19804   4.159   6.458   9.351 -0.2634  0.4847  2.2843
  174SAPI  C31219805   4.355   6.449   9.249 -0.3550 -0.8421 -0.4962
  174SAPI  H12X19806   4.318   6.374   9.176 -0.8481 -0.5016 -0.6054
  174SAPI  H12Y19807   4.459   6.415   9.270  0.2473  0.3709 -1.3621
  174SAPI  C31319808   4.347   6.592   9.184  0.5211  0.0717 -0.3592
  174SAPI  H13X19809   4.418   6.660   9.236  0.2667 -0.0235  0.1157
  174SAPI  H13Y19810   4.246   6.637   9.196  1.0097  0.4186  4.3975
  174SAPI  C31419811   4.401   6.597   9.041  0.2552  0.2045 -0.3200
  174SAPI  H14X19812   4.322   6.542   8.984 -0.1154  1.2464 -0.8302
  174SAPI  H14Y19813   4.500   6.548   9.034 -0.6021 -1.9632  1.3359
  174SAPI  C31519814   4.410   6.742   8.990  0.2685  0.4809  0.7934
  174SAPI  H15X19815   4.488   6.804   9.039  0.3364 -0.8029  2.4104
  174SAPI  H15Y19816   4.315   6.796   9.009  0.1901  1.3072 -1.6760
  174SAPI  C31619817   4.438   6.763   8.845  0.5986  0.4754 -0.0844
  174SAPI  H16X19818   4.398   6.864   8.819  0.4580  0.7842  1.2397
  174SAPI  H16Y19819   4.379   6.685   8.793  2.8162 -0.5977 -1.1346
  174SAPI  C31719820   4.586   6.761   8.806  0.2320 -0.1184 -0.5715
  174SAPI  H17X19821   4.649   6.691   8.864  0.5044  1.5254  1.2321
  174SAPI  H17Y19822   4.617   6.866   8.825  0.0054 -0.0202 -0.7301
  174SAPI  C31819823   4.607   6.735   8.655  0.2595 -0.5637  0.2846
  174SAPI  H18X19824   4.573   6.632   8.630 -0.5544 -0.2632  0.1245
  174SAPI  H18Y19825   4.715   6.745   8.628  0.2143 -0.4582  0.1427
  174SAPI  H18Z19826   4.552   6.804   8.587  2.1579  1.2921  0.5089
  175SAPI   C1219827   4.655   1.251   5.806 -0.0677  0.3188  0.6464
  175SAPI    H219828   4.627   1.159   5.862  1.9236  0.0789  1.3331
  175SAPI    O219829   4.777   1.295   5.871  0.0731  0.4276  0.2665
  175SAPI   HO219830   4.767   1.270   5.963 -0.8904 -0.3288 -0.0234
  175SAPI   C1319831   4.681   1.221   5.658 -0.4280  0.3915  0.1761
  175SAPI    H319832   4.588   1.176   5.617  1.0740 -0.0121 -3.0536
  175SAPI    O319833   4.788   1.123   5.652  0.5763 -0.0882 -0.5289
  175SAPI   HO319834   4.854   1.143   5.719 -0.3869  1.8547 -0.0579
  175SAPI   C1419835   4.719   1.346   5.587 -0.1522  0.1707  0.4211
  175SAPI    H419836   4.811   1.389   5.632  0.0488 -1.4716  1.6409
  175SAPI    O419837   4.743   1.333   5.442 -0.0864 -0.3229 -0.6217
  175SAPI   HO419838   4.683   1.397   5.405 -0.9748 -0.9410 -0.2788
  175SAPI   C1519839   4.612   1.456   5.605  0.2443 -0.1300 -1.1565
  175SAPI    H519840   4.526   1.414   5.549  0.3818 -0.7105 -0.9424
  175SAPI    O519841   4.640   1.581   5.536 -0.1546 -0.0299 -0.4950
  175SAPI   HO519842   4.634   1.654   5.598  0.6939  1.1729 -1.7611
  175SAPI   C1619843   4.588   1.485   5.754 -0.1482  0.5527  0.3714
  175SAPI    H619844   4.684   1.534   5.784  0.2352  1.0222 -1.5119
  175SAPI    O619845   4.486   1.578   5.786  0.4045 -0.0956  0.8088
  175SAPI   HO619846   4.461   1.551   5.875  1.3659 -0.7157  0.9208
  175SAPI   C1119847   4.550   1.356   5.828  0.0701  0.0017  0.6247
  175SAPI    H119848   4.457   1.329   5.774 -0.2007  1.6972  0.1874
  175SAPI     P19849   4.394   1.345   6.053  0.1550 -0.4560  0.3374
  175SAPI   O1319850   4.274   1.373   5.976  0.4543  0.2720 -0.5879
  175SAPI   O1419851   4.405   1.415   6.183 -0.3123 -0.1057 -0.0171
  175SAPI   O1219852   4.522   1.382   5.968 -0.3880 -0.0155  0.6556
  175SAPI   O1119853   4.403   1.186   6.078 -0.9367  0.3695  0.7530
  175SAPI    C119854   4.521   1.126   6.128 -0.1238  0.1463 -0.5471
  175SAPI    HA19855   4.566   1.057   6.053  1.6462  1.4094 -0.7004
  175SAPI    HB19856   4.602   1.201   6.135  0.2954  0.0770 -3.5710
  175SAPI    C219857   4.507   1.059   6.266  0.0425 -0.1641  0.0025
  175SAPI    HS19858   4.435   0.976   6.253  0.1361 -0.3720  0.7722
  175SAPI   O2119859   4.463   1.159   6.356 -0.2926  0.0034 -0.8193
  175SAPI   C2119860   4.324   1.176   6.368  0.2693 -1.3875  0.0742
  175SAPI   O2219861   4.241   1.104   6.323  0.2042 -0.5424  0.0925
  175SAPI   C2219862   4.295   1.282   6.472  0.0370 -0.4062  0.2225
  175SAPI   H2R19863   4.361   1.371   6.462  0.4990 -0.7414  0.2466
  175SAPI   H2S19864   4.188   1.308   6.466  0.0377  0.0961  1.7808
  175SAPI    C319865   4.643   1.007   6.318 -0.3464  0.0760 -0.5939
  175SAPI    HX19866   4.734   1.071   6.311 -0.3194 -0.1072 -3.8722
  175SAPI    HY19867   4.669   0.938   6.235  0.7568  0.0310 -0.2260
  175SAPI   O3119868   4.635   0.936   6.451 -0.0489 -0.6734  0.1080
  175SAPI   C3119869   4.748   0.901   6.506 -0.6842  0.1935  0.6184
  175SAPI   O3219870   4.860   0.921   6.459  0.3091 -0.5238  0.2673
  175SAPI   C3219871   4.707   0.826   6.636  0.0402 -0.5197 -0.5925
  175SAPI   H2X19872   4.770   0.735   6.648 -0.9623 -1.0658  0.7390
  175SAPI   H2Y19873   4.602   0.792   6.632 -0.0677 -0.4187  0.9206
  175SAPI   C2319874   4.335   1.221   6.610  0.8149 -0.4036  0.4275
  175SAPI   H3R19875   4.358   1.305   6.680  0.2656  2.2751 -2.3560
  175SAPI   H3S19876   4.426   1.159   6.598  1.5747  0.5995  0.8254
  175SAPI   C2419877   4.223   1.133   6.670  0.5080 -0.6979  0.6273
  175SAPI   H4R19878   4.259   1.064   6.750  1.2408  1.3907  2.1928
  175SAPI   H4S19879   4.185   1.079   6.581 -0.2385 -0.0313  0.5259
  175SAPI   C2519880   4.111   1.226   6.718 -0.3827 -0.6272  0.1612
  175SAPI   H5R19881   4.088   1.307   6.647 -1.1408  1.2013  2.3567
  175SAPI   C2619882   4.055   1.227   6.842  0.4453  0.2171 -0.6582
  175SAPI   H6R19883   3.994   1.312   6.876  0.6474  1.1994 -2.5978
  175SAPI   C2719884   4.077   1.129   6.951  0.3132  1.3584 -0.4830
  175SAPI   H7R19885   4.114   1.033   6.910 -1.0809  0.7909 -0.4741
  175SAPI   H7S19886   3.983   1.103   7.004  0.8989  0.2756  0.0467
  175SAPI   C2819887   4.192   1.174   7.039  0.0131  0.8572  0.1401
  175SAPI   H8R19888   4.290   1.197   6.995 -0.1984  2.7619  0.5561
  175SAPI   C2919889   4.189   1.217   7.163  0.5767 -0.4671 -0.0397
  175SAPI   H9R19890   4.279   1.253   7.215  0.2145 -1.2294  1.1428
  175SAPI  C21019891   4.071   1.223   7.257 -0.1801 -0.2345 -0.3404
  175SAPI  H10R19892   3.978   1.185   7.209  1.4162 -1.1566 -2.8825
  175SAPI  H10S19893   4.051   1.328   7.286 -0.6524 -0.5558  0.5204
  175SAPI  C21119894   4.104   1.136   7.372  0.0510 -0.2056  0.0821
  175SAPI  H11R19895   4.188   1.069   7.351  0.1201  0.5922 -2.4219
  175SAPI  C21219896   4.052   1.139   7.499 -0.6215  0.2030  0.4020
  175SAPI  H12R19897   4.091   1.060   7.566  3.3374 -0.4131 -2.2868
  175SAPI  C21319898   3.945   1.238   7.543  0.4350 -0.5479  0.2860
  175SAPI  H13R19899   3.885   1.258   7.451  0.3671  1.4933  0.7347
  175SAPI  H13S19900   3.985   1.335   7.579 -2.0753  0.3637  0.8620
  175SAPI  C21419901   3.858   1.171   7.642 -0.7721  0.1358  0.2429
  175SAPI  H14R19902   3.897   1.176   7.745  1.2272 -1.2031 -0.3903
  175SAPI  C21519903   3.754   1.094   7.615 -0.0299  0.2142 -0.1776
  175SAPI  H15R19904   3.698   1.046   7.697  0.4899 -1.3265 -0.6880
  175SAPI  C21619905   3.684   1.068   7.483 -0.0199  0.2056  1.0400
  175SAPI  H16R19906   3.727   0.972   7.446  0.6970  0.5040  1.1003
  175SAPI  H16S19907   3.704   1.151   7.412 -2.0985 -0.1454 -0.0686
  175SAPI  C21719908   3.526   1.056   7.491 -0.0486 -0.1085 -0.3411
  175SAPI  H17R19909   3.494   1.155   7.527 -0.2479  0.0433 -0.9190
  175SAPI  H17S19910   3.494   0.982   7.567 -2.9570 -0.1616 -1.4800
  175SAPI  C21819911   3.445   1.033   7.363 -0.4682 -0.0455  0.0683
  175SAPI  H18R19912   3.485   1.089   7.277 -0.4270  2.7527  1.7792
  175SAPI  H18S19913   3.344   1.071   7.391 -0.9170 -0.9492 -0.2840
  175SAPI  C21919914   3.423   0.873   7.344 -0.0978 -0.4266 -0.1947
  175SAPI  H19R19915   3.376   0.839   7.439 -1.9626  0.1290 -0.8663
  175SAPI  H19S19916   3.525   0.830   7.341  0.0950 -0.0804  0.7527
  175SAPI  C22019917   3.331   0.846   7.221  0.2636 -0.6803 -0.0797
  175SAPI  H20R19918   3.388   0.886   7.134  0.7484 -1.1523  0.0144
  175SAPI  H20S19919   3.237   0.903   7.237 -2.5112 -5.2220  1.7552
  175SAPI  H20T19920   3.312   0.736   7.216 -1.7744 -0.5285  2.5118
  175SAPI   C3319921   4.701   0.926   6.750  0.0916 -0.2985  0.3375
  175SAPI   H3X19922   4.632   1.012   6.732  3.4627  2.0458 -2.9053
  175SAPI   H3Y19923   4.802   0.972   6.763 -0.0317 -0.1419  0.7626
  175SAPI   C3419924   4.650   0.855   6.881  0.1348  0.4140 -0.5773
  175SAPI   H4X19925   4.712   0.764   6.880  1.5294  1.3341 -0.8804
  175SAPI   H4Y19926   4.547   0.817   6.865  0.6518 -1.1288 -0.3463
  175SAPI   C3519927   4.665   0.938   7.008  0.4630  0.1308  1.4443
  175SAPI   H5X19928   4.580   1.009   7.014  0.0113  0.1303 -2.3557
  175SAPI   H5Y19929   4.761   0.993   7.003  0.1032  0.6553 -1.2655
  175SAPI   C3619930   4.649   0.853   7.130  0.4644 -0.3357 -0.0734
  175SAPI   H6X19931   4.722   0.769   7.129  0.9300  0.0403  0.7462
  175SAPI   H6Y19932   4.551   0.801   7.137  0.1697  0.2248 -0.0296
  175SAPI   C3719933   4.675   0.926   7.268  0.3921  0.5791 -0.3050
  175SAPI   H7X19934   4.592   0.999   7.270 -0.6727 -0.5984 -0.5696
  175SAPI   H7Y19935   4.766   0.989   7.255  1.9914 -1.7330 -1.1717
  175SAPI   C3819936   4.693   0.822   7.380 -0.0030 -0.4787 -0.3454
  175SAPI   H8X19937   4.784   0.761   7.362  0.7648  0.4171  0.3727
  175SAPI   H8Y19938   4.600   0.761   7.371 -0.1758 -0.5169  1.3076
  175SAPI   C3919939   4.696   0.893   7.517  0.4317  0.4018  0.4096
  175SAPI   H9X19940   4.609   0.962   7.522 -1.0854 -1.5211  1.4870
  175SAPI   H9Y19941   4.787   0.958   7.514 -0.3710  1.6045  1.3658
  175SAPI  C31019942   4.704   0.797   7.635 -0.6826 -0.6029  0.5325
  175SAPI  H10X19943   4.803   0.748   7.641  0.0453  0.6693 -0.5639
  175SAPI  H10Y19944   4.637   0.708   7.627 -0.8746 -0.4719  0.6713
  175SAPI  C31119945   4.680   0.857   7.773 -0.0389 -0.7018 -0.3786
  175SAPI  H11X19946   4.573   0.884   7.775  0.2519  0.5996 -1.0379
  175SAPI  H11Y19947   4.724   0.957   7.794 -2.4586  0.7155 -1.6380
  175SAPI  C31219948   4.704   0.766   7.892  0.1596 -0.6821 -0.4762
  175SAPI  H12X19949   4.806   0.722   7.898 -1.2693 -4.1908  0.4987
  175SAPI  H12Y19950   4.635   0.679   7.891  1.6860 -1.9370 -1.1307
  175SAPI  C31319951   4.688   0.847   8.020  0.0555 -0.1627 -0.2364
  175SAPI  H13X19952   4.599   0.913   8.014  0.9729  1.2212  0.8792
  175SAPI  H13Y19953   4.785   0.901   8.012  0.8205 -1.2507  1.0893
  175SAPI  C31419954   4.696   0.764   8.150 -0.4112 -0.1684  0.0783
  175SAPI  H14X19955   4.797   0.720   8.165  0.6005  2.6212  2.4894
  175SAPI  H14Y19956   4.620   0.683   8.152 -1.3478  0.5736  4.5129
  175SAPI  C31519957   4.670   0.856   8.272  0.5852  0.1154  0.5022
  175SAPI  H15X19958   4.572   0.909   8.260  0.7842  0.4780  0.4619
  175SAPI  H15Y19959   4.753   0.925   8.295  0.8755 -0.3432  0.8425
  175SAPI  C31619960   4.647   0.771   8.395 -0.0084 -0.1200  0.0730
  175SAPI  H16X19961   4.677   0.840   8.477 -0.1176  0.2569 -0.2003
  175SAPI  H16Y19962   4.729   0.697   8.403  0.9979  1.0721  1.4209
  175SAPI  C31719963   4.514   0.702   8.407 -0.4553  0.1014  0.2552
  175SAPI  H17X19964   4.507   0.626   8.326  0.5409 -0.0666  0.3148
  175SAPI  H17Y19965   4.430   0.774   8.401  0.5710  1.4337  1.1215
  175SAPI  C31819966   4.495   0.640   8.542  0.5996  0.1748  0.5855
  175SAPI  H18X19967   4.537   0.537   8.546  0.4547 -0.0126 -1.5527
  175SAPI  H18Y19968   4.387   0.634   8.566  0.1565  2.0911 -0.7534
  175SAPI  H18Z19969   4.547   0.697   8.622  1.9049  0.7817 -0.6393
  176SAPI   C1219970   5.436   2.688   6.505  0.6310 -0.4203 -0.0168
  176SAPI    H219971   5.446   2.651   6.610 -0.3368 -0.6629 -0.0078
  176SAPI    O219972   5.327   2.620   6.443 -0.1843  0.3751 -0.0897
  176SAPI   HO219973   5.300   2.548   6.500  0.4279  0.4673  0.3345
  176SAPI   C1319974   5.414   2.837   6.521 -0.2967  0.0465 -0.0728
  176SAPI    H319975   5.505   2.875   6.574 -1.1553  2.0287  0.0893
  176SAPI    O319976   5.308   2.873   6.607 -0.0863  0.6028  0.0823
  176SAPI   HO319977   5.229   2.827   6.578 -0.7357  2.5157 -1.3148
  176SAPI   C1419978   5.401   2.911   6.397 -0.1338 -0.0126 -0.0293
  176SAPI    H419979   5.316   2.865   6.342 -1.7404 -1.0516  3.0920
  176SAPI    O419980   5.387   3.055   6.403 -0.3998 -0.6232 -0.5773
  176SAPI   HO419981   5.293   3.076   6.409  0.1814  2.2782 -0.1718
  176SAPI   C1519982   5.528   2.876   6.318 -0.1809  0.5398 -0.2082
  176SAPI    H519983   5.607   2.919   6.384 -1.6399  2.7882  0.1895
  176SAPI    O519984   5.550   2.940   6.191  0.1471 -0.0103 -0.3558
  176SAPI   HO519985   5.644   2.938   6.174  0.4314  1.9106  0.7416
  176SAPI   C1619986   5.548   2.727   6.302 -0.4312 -0.3945 -0.4227
  176SAPI    H619987   5.461   2.688   6.245 -1.0317 -0.8478  0.7787
  176SAPI    O619988   5.666   2.704   6.225 -0.3344 -0.2087  0.5189
  176SAPI   HO619989   5.741   2.688   6.283  1.5362  2.3041 -1.0361
  176SAPI   C1119990   5.566   2.662   6.436  0.2621  0.0537 -0.1913
  176SAPI    H119991   5.643   2.721   6.490 -1.8492  0.7588  2.2291
  176SAPI     P19992   5.765   2.479   6.449 -0.1855  0.1939 -0.5919
  176SAPI   O1319993   5.853   2.568   6.374  0.4597 -0.8015  0.1171
  176SAPI   O1419994   5.787   2.335   6.409 -0.1622  0.0850 -0.0088
  176SAPI   O1219995   5.605   2.520   6.438  0.0853 -0.0373 -0.2467
  176SAPI   O1119996   5.811   2.489   6.601  0.7865 -0.1239 -0.0119
  176SAPI    C119997   5.733   2.428   6.702 -0.4951  0.3265  0.0588
  176SAPI    HA19998   5.635   2.481   6.708  0.0456  1.3979 -0.3903
  176SAPI    HB19999   5.720   2.320   6.679 -1.5776  0.3516  0.4819
  176SAPI    C220000   5.811   2.434   6.840  0.3780 -0.3063 -0.1022
  176SAPI    HS20001   5.911   2.391   6.819  0.1819 -0.9495  0.2644
  176SAPI   O2120002   5.749   2.356   6.944  0.2715 -0.0595 -0.1952
  176SAPI   C2120003   5.825   2.319   7.043 -0.1356 -0.4665  0.6149
  176SAPI   O2220004   5.940   2.357   7.061 -0.1516  0.3174 -0.3297
  176SAPI   C2220005   5.748   2.243   7.146 -0.1559 -0.0457  0.0707
  176SAPI   H2R20006   5.695   2.166   7.085  1.4524 -0.5986 -0.6759
  176SAPI   H2S20007   5.818   2.197   7.218 -1.0814  0.4388  1.3373
  176SAPI    C320008   5.828   2.585   6.889 -0.2093 -0.3773 -0.1268
  176SAPI    HX20009   5.868   2.645   6.806  1.4415 -0.6753  0.4260
  176SAPI    HY20010   5.903   2.581   6.971  0.8974  0.0244 -1.1141
  176SAPI   O3120011   5.717   2.653   6.951  0.7903 -0.3166  0.2217
  176SAPI   C3120012   5.640   2.732   6.872 -0.1327  0.2971 -0.5066
  176SAPI   O3220013   5.662   2.760   6.756 -0.3866 -0.1674  0.4652
  176SAPI   C3220014   5.515   2.784   6.941  0.9021 -0.2590  0.3454
  176SAPI   H2X20015   5.436   2.706   6.931 -0.4770  1.1528 -0.0610
  176SAPI   H2Y20016   5.481   2.867   6.876 -2.3874 -2.1955 -0.6985
  176SAPI   C2320017   5.659   2.327   7.242  0.0394 -0.2205 -0.0112
  176SAPI   H3R20018   5.584   2.392   7.192 -1.6982 -1.7659  0.5036
  176SAPI   H3S20019   5.717   2.407   7.294 -2.8490  2.5073 -0.6465
  176SAPI   C2420020   5.584   2.254   7.358 -0.7272  0.8385 -0.2271
  176SAPI   H4R20021   5.538   2.163   7.313  0.9467  0.0774 -0.4964
  176SAPI   H4S20022   5.516   2.317   7.419  1.3797 -0.3937  3.7678
  176SAPI   C2520023   5.674   2.196   7.465  0.7098  0.2092  0.2030
  176SAPI   H5R20024   5.777   2.229   7.443 -0.4855  2.8315 -2.0495
  176SAPI   C2620025   5.656   2.101   7.558 -0.0254 -0.1453  0.2450
  176SAPI   H6R20026   5.744   2.076   7.619 -0.1052 -1.7799 -0.2460
  176SAPI   C2720027   5.525   2.026   7.587  0.2408  0.3254  0.8862
  176SAPI   H7R20028   5.526   1.937   7.521 -2.5662  1.9596 -1.6596
  176SAPI   H7S20029   5.436   2.075   7.540  1.3692  0.4691 -1.2101
  176SAPI   C2820030   5.506   1.980   7.729  0.0913  0.3445  0.1358
  176SAPI   H8R20031   5.515   1.870   7.729 -0.4808  0.2909  0.7092
  176SAPI   C2920032   5.472   2.047   7.847 -0.0364  0.3210 -0.0156
  176SAPI   H9R20033   5.470   1.996   7.944 -1.1916  2.6339  1.2723
  176SAPI  C21020034   5.437   2.191   7.865  0.4223  0.5835 -0.1589
  176SAPI  H10R20035   5.328   2.206   7.852  0.3857 -1.2104 -2.8152
  176SAPI  H10S20036   5.478   2.237   7.773 -1.1265  1.0220 -0.6685
  176SAPI  C21120037   5.504   2.269   7.973 -0.3823 -0.2698  0.5514
  176SAPI  H11R20038   5.489   2.224   8.072 -1.6658 -4.0865 -1.1926
  176SAPI  C21220039   5.567   2.395   7.963  0.9459  0.4331 -0.7378
  176SAPI  H12R20040   5.615   2.436   8.053  0.3207  2.5225 -1.3040
  176SAPI  C21320041   5.585   2.475   7.838 -0.1874  0.2404 -0.5105
  176SAPI  H13R20042   5.524   2.431   7.756 -0.6479  2.5898 -1.5119
  176SAPI  H13S20043   5.689   2.474   7.798 -0.6338  1.3953 -1.7613
  176SAPI  C21420044   5.533   2.616   7.872 -0.6645  0.2060 -0.1769
  176SAPI  H14R20045   5.425   2.630   7.861 -0.7193 -0.6046 -0.7413
  176SAPI  C21520046   5.607   2.728   7.900 -0.4503  0.7178  0.0333
  176SAPI  H15R20047   5.554   2.824   7.914 -0.4670  0.5770  1.0195
  176SAPI  C21620048   5.763   2.740   7.910  0.5875  0.1735 -1.1600
  176SAPI  H16R20049   5.795   2.784   7.813  2.0660  1.4528 -0.1435
  176SAPI  H16S20050   5.797   2.635   7.914 -0.1236 -0.0148  1.4238
  176SAPI  C21720051   5.812   2.827   8.022 -0.4527  0.2815 -0.5604
  176SAPI  H17R20052   5.793   2.934   7.999  1.2843  0.6163 -0.6180
  176SAPI  H17S20053   5.922   2.810   8.024 -0.6777 -2.0671 -2.4587
  176SAPI  C21820054   5.766   2.795   8.160  0.6254  0.6525 -0.2450
  176SAPI  H18R20055   5.659   2.819   8.181  0.1101 -0.5023 -1.3901
  176SAPI  H18S20056   5.824   2.858   8.230 -0.2308  0.6913  0.4558
  176SAPI  C21920057   5.802   2.655   8.211  0.7579  0.0303  0.3797
  176SAPI  H19R20058   5.907   2.643   8.174  0.2103 -1.9357 -0.6627
  176SAPI  H19S20059   5.743   2.577   8.158  1.0930  1.0247 -1.5803
  176SAPI  C22020060   5.797   2.641   8.362  0.4074  0.3426  0.2545
  176SAPI  H20R20061   5.879   2.692   8.417 -1.4557  1.0949  2.4780
  176SAPI  H20S20062   5.800   2.534   8.391  3.0460 -0.0016 -0.9713
  176SAPI  H20T20063   5.699   2.679   8.397 -0.1937 -0.9938  0.1042
  176SAPI   C3320064   5.521   2.817   7.089 -0.3935  0.5990  0.0991
  176SAPI   H3X20065   5.588   2.905   7.104 -0.5615  0.5989  0.8900
  176SAPI   H3Y20066   5.558   2.736   7.154  1.5244 -0.6737 -2.4101
  176SAPI   C3420067   5.385   2.855   7.137  0.3069  0.1906  0.1628
  176SAPI   H4X20068   5.326   2.763   7.158  0.9177 -0.4418 -0.7787
  176SAPI   H4Y20069   5.331   2.908   7.055 -0.6770  0.2480  0.8370
  176SAPI   C3520070   5.388   2.950   7.251 -0.3261  0.3765 -0.6919
  176SAPI   H5X20071   5.415   3.054   7.224 -0.3835  0.3426 -0.8798
  176SAPI   H5Y20072   5.462   2.909   7.323 -0.1341 -0.0774 -1.1377
  176SAPI   C3620073   5.255   2.956   7.332  0.2596  0.1039 -0.2993
  176SAPI   H6X20074   5.217   2.852   7.343  1.0209 -0.0155  1.6947
  176SAPI   H6Y20075   5.184   3.004   7.261  0.9715 -0.2755 -1.2971
  176SAPI   C3720076   5.255   3.023   7.472  0.1977 -0.3031 -0.4706
  176SAPI   H7X20077   5.168   3.091   7.466 -0.5115 -0.9547  1.7202
  176SAPI   H7Y20078   5.341   3.093   7.485  0.1664 -0.4018  0.2982
  176SAPI   C3820079   5.245   2.927   7.590 -0.3598  0.2548 -0.1123
  176SAPI   H8X20080   5.332   2.857   7.590 -0.2212  0.4274 -0.2574
  176SAPI   H8Y20081   5.156   2.861   7.574 -0.8222  1.2087 -1.7367
  176SAPI   C3920082   5.244   2.999   7.724  0.2304  0.3159 -0.2825
  176SAPI   H9X20083   5.147   3.051   7.734  0.4891  1.1607 -1.9218
  176SAPI   H9Y20084   5.330   3.070   7.722 -0.7889  1.5553 -1.2021
  176SAPI  C31020085   5.276   2.893   7.834 -0.0634  0.0891 -0.7983
  176SAPI  H10X20086   5.371   2.843   7.810 -0.2113 -0.4615 -0.2725
  176SAPI  H10Y20087   5.194   2.819   7.847  1.4589 -1.4717  0.4513
  176SAPI  C31120088   5.281   2.967   7.970 -0.1578  0.7772 -0.5162
  176SAPI  H11X20089   5.196   3.038   7.979 -1.4764 -0.9384  2.3670
  176SAPI  H11Y20090   5.375   3.025   7.983 -1.4087  2.6782  0.5146
  176SAPI  C31220091   5.261   2.881   8.098  0.0291 -0.6069  0.1231
  176SAPI  H12X20092   5.157   2.844   8.112 -0.6535  1.3605  0.4525
  176SAPI  H12Y20093   5.278   2.955   8.179 -0.3966 -1.1039  0.6820
  176SAPI  C31320094   5.349   2.762   8.133  0.3762 -0.8483  0.0408
  176SAPI  H13X20095   5.454   2.793   8.116 -0.0023 -0.0450 -0.9271
  176SAPI  H13Y20096   5.329   2.679   8.061 -3.6755 -0.1044  0.0463
  176SAPI  C31420097   5.329   2.720   8.275  0.1890  0.0640  0.5911
  176SAPI  H14X20098   5.218   2.722   8.286 -0.1369  1.5168 -2.0923
  176SAPI  H14Y20099   5.382   2.788   8.345 -0.0590  0.0454  0.7973
  176SAPI  C31520100   5.381   2.577   8.285 -0.3071  0.1821  0.7527
  176SAPI  H15X20101   5.492   2.591   8.285 -0.2877  0.0770  1.6687
  176SAPI  H15Y20102   5.348   2.511   8.201  1.3744  1.5369 -1.0878
  176SAPI  C31620103   5.346   2.512   8.415  0.1402 -0.0551 -0.0920
  176SAPI  H16X20104   5.237   2.523   8.429 -0.2926 -0.2361 -2.7012
  176SAPI  H16Y20105   5.390   2.573   8.497  2.8680 -0.9630 -0.7533
  176SAPI  C31720106   5.381   2.361   8.420 -0.0052 -0.6145 -0.2350
  176SAPI  H17X20107   5.296   2.312   8.368 -1.0739  0.5162  0.3834
  176SAPI  H17Y20108   5.365   2.329   8.525 -1.2084 -0.7927 -0.4510
  176SAPI  C31820109   5.511   2.315   8.362 -0.4176  0.0559 -0.4693
  176SAPI  H18X20110   5.598   2.353   8.420  1.3480 -0.4264 -2.6312
  176SAPI  H18Y20111   5.524   2.344   8.255 -0.6646  1.5155 -0.1201
  176SAPI  H18Z20112   5.512   2.206   8.385 -0.5132 -0.3847 -2.3491
  177SLPC     N20113   6.464   0.789  11.164 -0.0068  0.1514  0.6661
  177SLPC   C1320114   6.356   0.888  11.134  0.3837 -0.0840 -0.1809
  177SLPC  H13A20115   6.298   0.905  11.223  2.5450  2.7314  0.8413
  177SLPC  H13B20116   6.393   0.987  11.115  0.2622  0.8089  3.4434
  177SLPC  H13C20117   6.297   0.859  11.049 -0.6882 -2.9483  1.4004
  177SLPC   C1420118   6.403   0.650  11.213  0.0954 -1.3419  0.2993
  177SLPC  H14A20119   6.324   0.622  11.144 -0.8911 -0.8948  1.2076
  177SLPC  H14B20120   6.473   0.571  11.232  1.0701 -0.8415 -1.0727
  177SLPC  H14C20121   6.359   0.663  11.311 -1.0657  0.0975 -0.3771
  177SLPC   C1520122   6.549   0.848  11.265  0.2964  1.1816  0.3925
  177SLPC  H15A20123   6.591   0.944  11.239  1.3757  0.8983  1.0305
  177SLPC  H15B20124   6.498   0.854  11.360  0.2064 -1.7123  0.6005
  177SLPC  H15C20125   6.638   0.789  11.282 -1.4570 -1.6382  0.4824
  177SLPC   C1220126   6.541   0.760  11.035 -0.6310  0.0180  0.0851
  177SLPC  H12A20127   6.637   0.714  11.054 -0.7064 -0.2235 -0.1221
  177SLPC  H12B20128   6.579   0.852  10.992 -0.8123 -0.7642 -1.8230
  177SLPC   C1120129   6.473   0.670  10.927  0.2912  0.6032 -0.0992
  177SLPC  H11A20130   6.454   0.568  10.967  1.1257  0.6549  0.4459
  177SLPC  H11B20131   6.547   0.664  10.844  0.7537  0.6627  0.3069
  177SLPC     P20132   6.250   0.678  10.787  0.1408  0.5419  0.7620
  177SLPC   O1320133   6.200   0.548  10.843  0.5809  0.7948 -0.4465
  177SLPC   O1420134   6.139   0.771  10.758 -0.3462  0.3262 -0.2683
  177SLPC   O1220135   6.356   0.739  10.887  0.3038 -0.1153 -0.1388
  177SLPC   O1120136   6.336   0.646  10.656  0.1929  0.1325  0.1025
  177SLPC    C120137   6.386   0.513  10.635 -0.0991 -0.2183 -0.1053
  177SLPC    HA20138   6.490   0.506  10.675  0.1713 -0.8814 -0.8880
  177SLPC    HB20139   6.323   0.430  10.674  1.3365 -1.6329 -0.6671
  177SLPC    C220140   6.406   0.479  10.483 -0.1954 -0.2223  0.3319
  177SLPC    HS20141   6.395   0.369  10.477  1.2248 -0.3201 -1.3100
  177SLPC   O2120142   6.554   0.514  10.451  0.8180 -1.2354 -0.1421
  177SLPC   C2120143   6.616   0.434  10.367 -0.9187  0.1026 -0.1519
  177SLPC   O2220144   6.559   0.337  10.317 -0.5585  0.5847 -0.9302
  177SLPC   C2220145   6.763   0.481  10.346 -0.4610  0.6330 -0.2493
  177SLPC   H2R20146   6.765   0.591  10.355 -0.9559  0.4966  1.9288
  177SLPC   H2S20147   6.822   0.443  10.432  1.2118 -0.7328 -1.8908
  177SLPC    C320148   6.301   0.549  10.389 -0.0622 -0.1525  1.1309
  177SLPC    HX20149   6.301   0.658  10.408 -3.1111 -0.4062  3.2818
  177SLPC    HY20150   6.199   0.530  10.428 -1.0188  2.2492 -0.0010
  177SLPC   O3120151   6.320   0.512  10.247 -0.3352 -0.6722 -0.0402
  177SLPC   C3120152   6.280   0.387  10.213  1.1772 -0.0558 -0.0950
  177SLPC   O3220153   6.220   0.310  10.284  0.4626  0.4620 -0.1685
  177SLPC   C3220154   6.330   0.362  10.072  0.4592  0.1959 -0.4976
  177SLPC   H2X20155   6.441   0.362  10.068  0.6357  1.7888  1.9493
  177SLPC   H2Y20156   6.288   0.441  10.007 -0.4009  2.0016  2.0908
  177SLPC   C2320157   6.828   0.438  10.212  0.2075  0.1842 -0.1240
  177SLPC   H3R20158   6.852   0.329  10.215  1.1943  0.4058  0.7415
  177SLPC   H3S20159   6.929   0.484  10.202 -0.8204  2.8027  0.8070
  177SLPC   C2420160   6.741   0.455  10.082  0.1942  0.2026 -0.3779
  177SLPC   H4R20161   6.648   0.395  10.089 -1.4676  2.5481 -1.2554
  177SLPC   H4S20162   6.795   0.411   9.996 -1.9155  0.5000 -1.9333
  177SLPC   C2520163   6.713   0.597  10.041  0.3559  0.3385  0.1189
  177SLPC   H5R20164   6.804   0.656  10.015 -0.8201  2.4267  0.5541
  177SLPC   H5S20165   6.669   0.655  10.125 -0.4713 -2.0655  1.4305
  177SLPC   C2620166   6.611   0.596   9.930  0.2668 -0.2367  0.2046
  177SLPC   H6R20167   6.570   0.694   9.899 -0.4270 -0.4826  0.3027
  177SLPC   H6S20168   6.530   0.528   9.966  2.6451 -3.2122  0.3040
  177SLPC   C2720169   6.666   0.531   9.805 -0.0039  0.3935 -0.3661
  177SLPC   H7R20170   6.684   0.424   9.828 -0.0848  0.6192  0.8452
  177SLPC   H7S20171   6.772   0.564   9.798  0.0689  0.7330  1.6653
  177SLPC   C2820172   6.585   0.553   9.673 -0.2534 -0.4306  0.1041
  177SLPC   H8R20173   6.636   0.508   9.585 -0.9400 -3.0589  0.9368
  177SLPC   H8S20174   6.576   0.661   9.648  0.1858 -0.3162  0.4308
  177SLPC   C2920175   6.456   0.482   9.668 -0.4318  0.0008  0.2320
  177SLPC   H9R20176   6.461   0.372   9.663 -3.7747 -0.2179 -0.7387
  177SLPC  C21020177   6.334   0.531   9.671  0.0259  0.6240 -0.4340
  177SLPC  H10R20178   6.250   0.460   9.671  1.6286 -1.4644 -2.5624
  177SLPC  C21120179   6.299   0.680   9.689  0.1710 -0.5065  0.5167
  177SLPC  H11R20180   6.386   0.747   9.677 -0.7823  0.5537 -0.9025
  177SLPC  H11S20181   6.222   0.710   9.614 -0.4067  0.0645  1.3270
  177SLPC  C21220182   6.247   0.701   9.834 -0.0447  0.3655  0.5222
  177SLPC  H12R20183   6.321   0.722   9.913  0.6423  0.7571 -0.2151
  177SLPC  C21320184   6.122   0.678   9.878  0.0014  0.0916 -0.0702
  177SLPC  H13R20185   6.098   0.696   9.983 -2.4577  2.8803 -0.9726
  177SLPC  C21420186   6.005   0.638   9.791 -0.0333 -0.3028  0.1448
  177SLPC  H14R20187   6.041   0.608   9.691 -0.9625 -0.4177 -0.1649
  177SLPC  H14S20188   5.937   0.724   9.773  0.4902  0.2789  0.9092
  177SLPC  C21520189   5.920   0.520   9.844 -0.9250  0.3572  0.1076
  177SLPC  H15R20190   5.837   0.504   9.772 -0.9663 -0.0265  0.2397
  177SLPC  H15S20191   5.876   0.548   9.942 -1.4518  2.0205 -0.5737
  177SLPC  C21620192   6.001   0.389   9.842 -0.0345  0.4066 -0.0628
  177SLPC  H16R20193   6.084   0.391   9.916 -0.6610 -1.3873  0.7634
  177SLPC  H16S20194   6.037   0.356   9.743  0.2070 -3.4042  1.1192
  177SLPC  C21720195   5.920   0.265   9.880  0.8866 -0.2697 -0.3138
  177SLPC  H17R20196   5.988   0.176   9.879  2.4030  0.8485 -0.1615
  177SLPC  H17S20197   5.859   0.255   9.788 -1.1077 -1.7184  1.0720
  177SLPC  C21820198   5.827   0.254  10.007  0.1289  0.2566 -0.2512
  177SLPC  H18R20199   5.734   0.198   9.982 -0.2605  2.5210 -5.0895
  177SLPC  H18S20200   5.805   0.351  10.056  0.7175 -0.0819  0.7154
  177SLPC  H18T20201   5.884   0.203  10.088 -2.4582 -0.7316  1.0794
  177SLPC   C3320202   6.287   0.216  10.032 -0.1304 -0.7299  0.1727
  177SLPC   H3X20203   6.179   0.205  10.013 -0.0266 -1.9015  0.2239
  177SLPC   H3Y20204   6.305   0.139  10.110 -0.9114  0.1235  1.2376
  177SLPC   C3420205   6.358   0.189   9.896 -0.2665 -0.1127  0.0607
  177SLPC   H4X20206   6.468   0.205   9.903 -0.5472  1.8556  0.3572
  177SLPC   H4Y20207   6.333   0.267   9.821  1.8473 -0.3524 -0.9955
  177SLPC   C3520208   6.340   0.041   9.837  0.4614 -0.0077 -0.0400
  177SLPC   H5X20209   6.328  -0.034   9.918  1.0575 -1.6375 -1.4194
  177SLPC   H5Y20210   6.433   0.011   9.784  0.9334 -1.3835  1.4776
  177SLPC   C3620211   6.222   0.017   9.737 -0.0597 -0.2075 -0.2482
  177SLPC   H6X20212   6.126   0.029   9.792  0.4037 -0.1213  0.5508
  177SLPC   H6Y20213   6.226  -0.088   9.699  2.3802  0.2402 -1.4610
  177SLPC   C3720214   6.214   0.122   9.630  0.5689 -0.1038  0.1447
  177SLPC   H7X20215   6.310   0.147   9.580 -0.8609  3.4404 -1.1845
  177SLPC   H7Y20216   6.192   0.219   9.680  1.2897 -0.0749  0.4121
  177SLPC   C3820217   6.108   0.098   9.523  0.4068 -0.2213  0.1216
  177SLPC   H8X20218   6.007   0.111   9.567 -0.1861 -0.4520 -1.1556
  177SLPC   H8Y20219   6.105  -0.002   9.477  0.0806 -1.9777  3.5869
  177SLPC   C3920220   6.096   0.206   9.414 -0.7284  0.3093  0.3313
  177SLPC   H9X20221   6.181   0.197   9.343 -1.1984  0.7339 -0.3014
  177SLPC   H9Y20222   6.098   0.308   9.458 -1.4852  0.8005 -0.7348
  177SLPC  C31020223   5.972   0.195   9.321 -0.0211 -0.1244 -0.2123
  177SLPC  H10X20224   5.883   0.214   9.384  0.7206 -1.5112  1.3417
  177SLPC  H10Y20225   5.966   0.090   9.285 -1.4083 -0.3851  0.6939
  177SLPC  C31120226   5.971   0.292   9.203  0.2564 -0.2887  0.4668
  177SLPC  H11X20227   5.969   0.394   9.248 -0.4586 -0.6570  1.3110
  177SLPC  H11Y20228   5.884   0.265   9.140  0.2696  0.3776  0.1519
  177SLPC  C31220229   6.085   0.291   9.095  0.0151  0.0591 -0.0800
  177SLPC  H12X20230   6.108   0.185   9.070 -0.1629 -0.5052  2.0088
  177SLPC  H12Y20231   6.175   0.344   9.133 -1.1592  3.9492 -2.1212
  177SLPC  C31320232   6.041   0.356   8.966 -0.5863 -0.3811  0.1407
  177SLPC  H13X20233   5.945   0.318   8.926 -0.2786  0.4271 -1.4084
  177SLPC  H13Y20234   6.125   0.365   8.894 -0.8152 -0.3694 -0.1252
  177SLPC  C31420235   5.983   0.500   8.999  0.3858 -0.1978  0.0902
  177SLPC  H14X20236   6.077   0.547   9.034 -0.2457  0.2087  1.3051
  177SLPC  H14Y20237   5.906   0.494   9.079 -0.3134  0.2867 -0.5271
  177SLPC  C31520238   5.940   0.568   8.872  0.9568 -0.2610  0.2326
  177SLPC  H15X20239   5.864   0.506   8.820  0.0572  1.8392 -1.1306
  177SLPC  H15Y20240   6.028   0.594   8.808  2.0441  1.7716  2.3915
  177SLPC  C31620241   5.881   0.707   8.899 -0.2643  0.0768 -0.2300
  177SLPC  H16X20242   5.948   0.757   8.973 -0.9222 -2.0264  1.9106
  177SLPC  H16Y20243   5.787   0.691   8.956 -1.3665  2.0465 -1.3980
  177SLPC  C31720244   5.852   0.796   8.780  0.4930 -0.5795  0.0979
  177SLPC  H17X20245   5.807   0.889   8.819 -0.4779 -1.4333  1.0586
  177SLPC  H17Y20246   5.763   0.746   8.736 -0.2942 -0.1791  1.2021
  177SLPC  C31820247   5.960   0.816   8.677  0.4906  0.5228  0.3079
  177SLPC  H18X20248   6.044   0.853   8.739 -1.3255  3.2477  1.3138
  177SLPC  H18Y20249   5.929   0.890   8.600  0.3269  0.8306  0.6666
  177SLPC  H18Z20250   5.973   0.720   8.622 -1.3767  0.8470 -0.7969
  178SLPC     N20251   0.798   5.214  10.807  0.6056 -0.0648 -0.3382
  178SLPC   C1320252   0.686   5.251  10.719  0.3389 -0.0991 -0.2066
  178SLPC  H13A20253   0.595   5.248  10.776  0.0864  0.2686 -0.5828
  178SLPC  H13B20254   0.680   5.358  10.701  0.5953  0.5157  2.8096
  178SLPC  H13C20255   0.684   5.181  10.638  0.6408 -0.2732 -0.0639
  178SLPC   C1420256   0.771   5.072  10.845  0.8038 -0.0261 -0.3207
  178SLPC  H14A20257   0.761   5.005  10.761  2.2228 -0.2380 -0.3531
  178SLPC  H14B20258   0.850   5.024  10.902  0.4374 -0.4075 -0.1250
  178SLPC  H14C20259   0.679   5.076  10.901  0.6937 -0.1149 -0.4984
  178SLPC   C1520260   0.799   5.300  10.921  0.3011 -0.2636 -0.0376
  178SLPC  H15A20261   0.700   5.322  10.957  0.2666 -0.6472  0.1052
  178SLPC  H15B20262   0.855   5.252  10.999 -1.8276 -0.2358  1.5918
  178SLPC  H15C20263   0.843   5.394  10.889  3.1308 -0.2994  3.2172
  178SLPC   C1220264   0.924   5.223  10.737 -0.3377  0.7623  0.5033
  178SLPC  H12A20265   0.919   5.149  10.659 -1.3033 -1.3807  2.4537
  178SLPC  H12B20266   1.004   5.208  10.808  0.7850  0.7750 -0.7280
  178SLPC   C1120267   0.964   5.346  10.676  0.6288 -0.2174 -1.1482
  178SLPC  H11A20268   0.894   5.372  10.594 -0.9649 -1.5222 -0.2647
  178SLPC  H11B20269   1.068   5.346  10.637  0.1806  0.9546 -2.4312
  178SLPC     P20270   0.944   5.599  10.754  0.1856  0.0144 -0.0925
  178SLPC   O1320271   0.858   5.641  10.871 -0.4104  0.0992 -0.0740
  178SLPC   O1420272   1.074   5.661  10.739  0.4072 -0.0163 -0.6259
  178SLPC   O1220273   0.975   5.450  10.778 -0.1750  0.1483 -0.2527
  178SLPC   O1120274   0.858   5.607  10.619 -0.2703  0.5421 -0.0066
  178SLPC    C120275   0.886   5.714  10.524 -0.3089  0.2438  0.2081
  178SLPC    HA20276   0.801   5.785  10.527 -0.2489  0.3452 -0.5191
  178SLPC    HB20277   0.980   5.767  10.551 -0.1648 -0.4999  1.2531
  178SLPC    C220278   0.899   5.651  10.381 -0.2672 -0.5929 -0.7830
  178SLPC    HS20279   0.795   5.617  10.361 -0.2845 -0.5244 -0.8102
  178SLPC   O2120280   0.991   5.544  10.381  0.0894  0.4200 -0.4264
  178SLPC   C2120281   0.978   5.441  10.290  0.0796  0.3098  0.0877
  178SLPC   O2220282   0.879   5.421  10.222  0.3684  0.2426 -0.1188
  178SLPC   C2220283   1.089   5.341  10.315  0.0972 -0.3276  0.0643
  178SLPC   H2R20284   1.181   5.397  10.342 -0.0694 -0.5092  1.0321
  178SLPC   H2S20285   1.049   5.290  10.405 -0.2020 -0.6128 -0.2298
  178SLPC    C320286   0.939   5.759  10.278  1.0915 -0.0400 -0.2368
  178SLPC    HX20287   1.034   5.804  10.316  1.9448 -2.2299  0.3678
  178SLPC    HY20288   0.861   5.837  10.270  1.8183  0.5923 -1.3942
  178SLPC   O3120289   0.970   5.704  10.144  0.4596  0.1834 -0.4888
  178SLPC   C3120290   0.871   5.697  10.060 -0.2644  0.0583 -0.4058
  178SLPC   O3220291   0.756   5.725  10.092  0.0577  0.4904  0.1216
  178SLPC   C3220292   0.924   5.641   9.924 -0.1481 -0.7101  0.5685
  178SLPC   H2X20293   0.900   5.532   9.923 -3.6826 -0.0786  1.0519
  178SLPC   H2Y20294   1.033   5.657   9.913 -0.2482  0.8540  1.5629
  178SLPC   C2320295   1.101   5.239  10.203  0.0435 -0.3979 -0.0427
  178SLPC   H3R20296   0.995   5.207  10.196 -0.1785  0.2676  0.1978
  178SLPC   H3S20297   1.174   5.167  10.244  2.3750  1.9002  0.1126
  178SLPC   C2420298   1.150   5.292  10.077  0.0348  0.3776 -0.5267
  178SLPC   H4R20299   1.253   5.334  10.084  0.4683 -0.6939 -0.4192
  178SLPC   H4S20300   1.092   5.379  10.038 -0.0309  0.1388 -0.9734
  178SLPC   C2520301   1.169   5.179   9.980  0.7376  0.0871  0.5280
  178SLPC   H5R20302   1.073   5.124   9.979 -0.6678  2.3840 -1.3530
  178SLPC   H5S20303   1.243   5.108  10.023  1.7497 -0.7880 -2.3879
  178SLPC   C2620304   1.206   5.215   9.835 -0.1068  0.7644  0.1433
  178SLPC   H6R20305   1.306   5.261   9.821 -1.0360  2.4684 -1.1532
  178SLPC   H6S20306   1.144   5.292   9.784  1.2874  1.0285 -1.2292
  178SLPC   C2720307   1.197   5.084   9.751  0.2909 -0.4738 -0.5422
  178SLPC   H7R20308   1.099   5.035   9.763  1.5152 -3.6195 -2.3322
  178SLPC   H7S20309   1.275   5.014   9.790 -1.0518 -1.0100  1.3212
  178SLPC   C2820310   1.215   5.118   9.605  0.4782  0.0878 -0.4358
  178SLPC   H8R20311   1.227   5.028   9.541  0.0645  1.3666 -2.4203
  178SLPC   H8S20312   1.311   5.174   9.601  0.8408 -0.5858 -1.7179
  178SLPC   C2920313   1.096   5.192   9.545 -0.1935  0.4908 -0.3118
  178SLPC   H9R20314   0.997   5.150   9.567  0.8062 -0.3733  3.1713
  178SLPC  C21020315   1.108   5.281   9.447  0.4001 -0.8118 -0.4581
  178SLPC  H10R20316   1.016   5.322   9.402  0.0799 -0.1892  0.7210
  178SLPC  C21120317   1.238   5.336   9.394  0.2192  0.1070 -0.6668
  178SLPC  H11R20318   1.222   5.355   9.286  1.4302 -0.0721 -0.8907
  178SLPC  H11S20319   1.317   5.259   9.408  2.2482  2.1169 -0.5162
  178SLPC  C21220320   1.284   5.467   9.456  0.7311  0.9107  0.0113
  178SLPC  H12R20321   1.271   5.456   9.564  0.6438  0.2407 -0.0640
  178SLPC  C21320322   1.344   5.565   9.391  0.5252 -0.0546  0.1058
  178SLPC  H13R20323   1.392   5.643   9.452 -0.6715  0.9117 -0.1523
  178SLPC  C21420324   1.380   5.576   9.241  0.4987  0.5750  0.3901
  178SLPC  H14R20325   1.325   5.505   9.176 -1.1572  2.3264 -0.2247
  178SLPC  H14S20326   1.488   5.558   9.219  0.0517  0.8633 -2.4701
  178SLPC  C21520327   1.344   5.714   9.181 -0.2651  0.2497 -0.0917
  178SLPC  H15R20328   1.395   5.801   9.229  0.8083 -1.2705  1.6939
  178SLPC  H15S20329   1.240   5.736   9.212 -0.0305 -0.4475  1.2857
  178SLPC  C21620330   1.356   5.725   9.029 -0.3919  0.7679  0.8042
  178SLPC  H16R20331   1.320   5.825   8.998 -0.9841  0.2873 -0.0845
  178SLPC  H16S20332   1.292   5.652   8.975  0.2897  0.4742  0.3751
  178SLPC  C21720333   1.509   5.713   8.978 -0.3921 -0.9108  0.2081
  178SLPC  H17R20334   1.538   5.609   9.002 -0.1051 -0.7098  0.7381
  178SLPC  H17S20335   1.571   5.789   9.030 -0.9123  0.6020 -1.2786
  178SLPC  C21820336   1.531   5.721   8.831  0.6627 -0.0100  0.2432
  178SLPC  H18R20337   1.638   5.699   8.809  0.3381 -0.9743 -0.4576
  178SLPC  H18S20338   1.510   5.826   8.803  0.1498 -0.2135 -0.1475
  178SLPC  H18T20339   1.468   5.644   8.781  0.7255 -1.6729  2.5389
  178SLPC   C3320340   0.835   5.698   9.801  0.1522 -0.1581 -0.4093
  178SLPC   H3X20341   0.808   5.806   9.797 -0.5619 -0.3557 -1.6529
  178SLPC   H3Y20342   0.733   5.655   9.808 -0.4955  1.1142 -1.5182
  178SLPC   C3420343   0.908   5.658   9.670  0.5463  0.4391 -0.6983
  178SLPC   H4X20344   0.911   5.547   9.678 -2.6005  0.1745 -2.1313
  178SLPC   H4Y20345   1.011   5.699   9.675  1.0137 -0.4713 -2.1767
  178SLPC   C3520346   0.830   5.691   9.547 -0.2086 -0.1370 -0.9713
  178SLPC   H5X20347   0.830   5.801   9.533 -3.0093 -0.1371 -1.4399
  178SLPC   H5Y20348   0.725   5.660   9.566 -0.3981 -0.0486 -1.8516
  178SLPC   C3620349   0.897   5.633   9.421  0.0667 -0.1188  0.8698
  178SLPC   H6X20350   0.914   5.523   9.426  0.2156 -0.1319  0.1811
  178SLPC   H6Y20351   0.992   5.676   9.382  0.1844 -1.6016 -0.5731
  178SLPC   C3720352   0.807   5.643   9.294  0.6365  0.1884 -0.1576
  178SLPC   H7X20353   0.702   5.632   9.329  0.2707 -2.0635 -1.7398
  178SLPC   H7Y20354   0.835   5.558   9.227 -0.2657 -0.7806  0.6606
  178SLPC   C3820355   0.811   5.779   9.217 -0.0623  0.3638 -0.2734
  178SLPC   H8X20356   0.908   5.772   9.163 -1.2402 -0.3022 -2.4020
  178SLPC   H8Y20357   0.819   5.872   9.278 -0.9298  2.5050 -3.1834
  178SLPC   C3920358   0.718   5.817   9.107  0.4033 -0.0833  0.6297
  178SLPC   H9X20359   0.743   5.920   9.072 -0.6377  0.0240  0.1522
  178SLPC   H9Y20360   0.619   5.820   9.157  1.9043 -0.7439  3.9200
  178SLPC  C31020361   0.734   5.745   8.976  0.4914  0.3347  0.3631
  178SLPC  H10X20362   0.723   5.634   8.983  1.5480  0.2446  0.9014
  178SLPC  H10Y20363   0.833   5.772   8.932  0.5606  1.3607  1.1088
  178SLPC  C31120364   0.636   5.801   8.869  0.7196 -0.8228  0.7298
  178SLPC  H11X20365   0.656   5.910   8.864  0.5713 -0.8630 -2.3887
  178SLPC  H11Y20366   0.532   5.775   8.895  1.2417 -2.7506  1.0391
  178SLPC  C31220367   0.667   5.767   8.724  0.2562 -0.5298  0.3611
  178SLPC  H12X20368   0.776   5.776   8.700  0.2712  0.4258  0.7538
  178SLPC  H12Y20369   0.609   5.827   8.652 -0.9345 -2.3300 -0.2593
  178SLPC  C31320370   0.631   5.627   8.685 -0.0493  0.4737 -0.3188
  178SLPC  H13X20371   0.521   5.615   8.699 -0.7822 -1.6095 -5.4399
  178SLPC  H13Y20372   0.681   5.547   8.743 -0.4204 -0.6412 -1.4959
  178SLPC  C31420373   0.659   5.589   8.536  0.2702  0.0746  0.5132
  178SLPC  H14X20374   0.643   5.479   8.538 -1.2851  0.2827  0.2218
  178SLPC  H14Y20375   0.769   5.592   8.521  0.2100 -1.2197 -0.3434
  178SLPC  C31520376   0.570   5.642   8.424 -0.7114  0.0608  0.0677
  178SLPC  H15X20377   0.540   5.563   8.352  1.1919  0.1636 -0.9169
  178SLPC  H15Y20378   0.489   5.693   8.480 -0.9299  1.1513 -1.1819
  178SLPC  C31620379   0.639   5.754   8.342 -0.2640 -0.4717 -0.3041
  178SLPC  H16X20380   0.689   5.829   8.407  0.0676 -0.9483 -0.0057
  178SLPC  H16Y20381   0.560   5.814   8.291 -0.1845  1.1450  1.3733
  178SLPC  C31720382   0.725   5.695   8.229  0.5500  0.4127  0.3066
  178SLPC  H17X20383   0.781   5.607   8.268 -0.3909 -0.2744  0.1455
  178SLPC  H17Y20384   0.802   5.769   8.198  0.6515  0.8995  1.6741
  178SLPC  C31820385   0.642   5.658   8.107  0.5337  0.0171  0.5000
  178SLPC  H18X20386   0.575   5.741   8.079 -1.4106 -1.6566 -0.0586
  178SLPC  H18Y20387   0.581   5.568   8.130 -1.2145  0.2200 -2.8375
  178SLPC  H18Z20388   0.712   5.623   8.028  3.0126  0.0285  2.5361
  179SLPC     N20389   0.343   1.791  10.787  0.0502 -0.1233  0.0486
  179SLPC   C1320390   0.242   1.789  10.898 -0.5977 -0.0957  0.5032
  179SLPC  H13A20391   0.147   1.825  10.862  0.5184  2.0002 -0.5425
  179SLPC  H13B20392   0.235   1.690  10.940  0.9038  0.2259  1.5912
  179SLPC  H13C20393   0.280   1.855  10.975 -2.3380  1.6798 -0.0709
  179SLPC   C1420394   0.480   1.747  10.831  0.5020  0.4477  0.3664
  179SLPC  H14A20395   0.470   1.654  10.885 -2.4446  1.7841  2.4286
  179SLPC  H14B20396   0.536   1.748  10.739 -0.4876  0.4589 -0.2560
  179SLPC  H14C20397   0.526   1.819  10.897  1.7200  0.4679 -0.4711
  179SLPC   C1520398   0.363   1.937  10.744 -0.1048  0.0425  0.1019
  179SLPC  H15A20399   0.393   2.001  10.826  0.0341 -0.1310  0.1866
  179SLPC  H15B20400   0.441   1.935  10.670  0.5179  1.8441  0.6594
  179SLPC  H15C20401   0.275   1.979  10.697  0.5771  0.6022 -0.7006
  179SLPC   C1220402   0.293   1.697  10.675 -0.8603 -0.0059 -0.2460
  179SLPC  H12A20403   0.195   1.722  10.638 -0.4444  2.0830 -0.0089
  179SLPC  H12B20404   0.284   1.597  10.715  1.6696  0.1351  0.8565
  179SLPC   C1120405   0.381   1.689  10.552  0.2022  0.5201  0.0866
  179SLPC  H11A20406   0.410   1.793  10.526 -0.4717  0.6463 -0.1731
  179SLPC  H11B20407   0.329   1.632  10.472 -0.5369 -1.4352  1.8503
  179SLPC     P20408   0.621   1.619  10.477 -0.3273  0.0246 -0.3807
  179SLPC   O1320409   0.715   1.730  10.507 -0.1758 -0.2456 -0.4861
  179SLPC   O1420410   0.677   1.481  10.477 -0.0303 -0.1439  0.0184
  179SLPC   O1220411   0.507   1.623  10.580 -0.0149  0.2426  0.6338
  179SLPC   O1120412   0.549   1.656  10.335 -0.7029 -0.1993  0.0161
  179SLPC    C120413   0.630   1.675  10.226 -0.3380  0.2513 -0.2032
  179SLPC    HA20414   0.698   1.761  10.243  0.1790 -0.4687  1.6284
  179SLPC    HB20415   0.693   1.587  10.203 -0.2310  0.9350 -2.9748
  179SLPC    C220416   0.551   1.707  10.093 -0.1456  0.6111 -0.4602
  179SLPC    HS20417   0.472   1.780  10.121  1.1170  1.8025  0.1486
  179SLPC   O2120418   0.509   1.587  10.037  0.1314  0.2599  0.9700
  179SLPC   C2120419   0.391   1.590   9.991  0.1406 -0.0324 -0.2434
  179SLPC   O2220420   0.309   1.683  10.009 -0.3594 -0.1658 -0.2107
  179SLPC   C2220421   0.351   1.455   9.918 -0.0180  0.6591  0.4132
  179SLPC   H2R20422   0.444   1.401   9.889 -0.1907  0.0452  0.9815
  179SLPC   H2S20423   0.297   1.383   9.983  1.6149 -1.8008 -0.7876
  179SLPC    C320424   0.654   1.778   9.995 -0.1296  0.0042  0.4457
  179SLPC    HX20425   0.729   1.700   9.969 -1.2031 -1.5926  1.9186
  179SLPC    HY20426   0.706   1.856  10.056 -1.1317  0.5317  0.6371
  179SLPC   O3120427   0.595   1.833   9.871  0.4845 -0.2971 -0.5276
  179SLPC   C3120428   0.536   1.948   9.872  0.2022  0.3416 -0.5086
  179SLPC   O3220429   0.538   2.021   9.973  0.4798 -0.1379  0.0149
  179SLPC   C3220430   0.475   1.983   9.737 -0.0029  0.3393 -0.1952
  179SLPC   H2X20431   0.405   1.903   9.706 -0.3969  0.6915 -0.2259
  179SLPC   H2Y20432   0.566   1.983   9.674 -0.0283  0.9162 -0.2409
  179SLPC   C2320433   0.268   1.491   9.791 -0.0967  0.4406 -0.7190
  179SLPC   H3R20434   0.180   1.550   9.827 -0.5047 -0.7582  0.3101
  179SLPC   H3S20435   0.219   1.410   9.733 -1.7531  1.8725 -1.4395
  179SLPC   C2420436   0.352   1.569   9.688 -0.1403 -0.6234 -0.3316
  179SLPC   H4R20437   0.443   1.509   9.666  1.9400  1.6480  1.5293
  179SLPC   H4S20438   0.388   1.666   9.729  0.9985 -0.6011 -1.3227
  179SLPC   C2520439   0.278   1.584   9.554  0.3838  0.8173 -0.6354
  179SLPC   H5R20440   0.192   1.654   9.563 -0.1522  0.3841 -2.1140
  179SLPC   H5S20441   0.236   1.482   9.537  0.0600  0.8853 -0.2544
  179SLPC   C2620442   0.358   1.630   9.427  0.7173 -0.0208 -0.2608
  179SLPC   H6R20443   0.399   1.727   9.462  0.8576 -0.5526  1.1250
  179SLPC   H6S20444   0.282   1.641   9.347 -0.6276  1.3904  1.1406
  179SLPC   C2720445   0.479   1.544   9.388  0.2133 -0.6521 -0.1290
  179SLPC   H7R20446   0.447   1.440   9.368 -0.5729 -0.4176 -0.1479
  179SLPC   H7S20447   0.552   1.551   9.471 -1.1533  1.6745  0.9911
  179SLPC   C2820448   0.563   1.603   9.267 -0.2485 -0.1250  0.1745
  179SLPC   H8R20449   0.649   1.534   9.254  1.0850  1.5733 -0.3270
  179SLPC   H8S20450   0.600   1.705   9.289 -0.8054  0.4244 -1.2607
  179SLPC   C2920451   0.492   1.601   9.133  0.4472  0.1354  0.2450
  179SLPC   H9R20452   0.458   1.502   9.100  2.7051  0.0609 -2.1169
  179SLPC  C21020453   0.471   1.699   9.045  0.2144 -0.8009 -0.2452
  179SLPC  H10R20454   0.419   1.685   8.949 -0.8882 -0.0672  0.2222
  179SLPC  C21120455   0.516   1.844   9.049 -0.0856  0.2502 -0.0985
  179SLPC  H11R20456   0.572   1.881   8.960 -3.0250  1.1098 -1.7533
  179SLPC  H11S20457   0.579   1.867   9.137  0.8126  0.6033 -0.8119
  179SLPC  C21220458   0.396   1.943   9.073 -0.4568  0.3033  0.1338
  179SLPC  H12R20459   0.361   1.949   9.177 -2.1485 -0.7747 -0.3307
  179SLPC  C21320460   0.330   2.011   8.978  0.6693  0.1611  0.0036
  179SLPC  H13R20461   0.254   2.084   9.009  0.7794  0.7972 -1.1716
  179SLPC  C21420462   0.355   2.012   8.832 -0.2422  0.1511  0.3134
  179SLPC  H14R20463   0.437   1.944   8.802 -0.1505 -0.3094  1.5745
  179SLPC  H14S20464   0.392   2.111   8.796 -0.2179  1.7315  4.2179
  179SLPC  C21520465   0.240   1.954   8.745  0.4070 -0.1050  0.5666
  179SLPC  H15R20466   0.140   1.963   8.793  0.2176 -0.0261  0.1599
  179SLPC  H15S20467   0.269   1.852   8.714  1.9421  0.0927  1.2482
  179SLPC  C21620468   0.235   2.041   8.620  0.4644 -0.6419 -0.1953
  179SLPC  H16R20469   0.328   2.015   8.565  0.0884 -1.8350 -0.2985
  179SLPC  H16S20470   0.242   2.149   8.645  1.1474 -1.2659  2.6813
  179SLPC  C21720471   0.115   1.998   8.530 -0.1280 -0.7842  0.1048
  179SLPC  H17R20472   0.023   2.026   8.585 -0.1430 -1.9178  0.6956
  179SLPC  H17S20473   0.125   1.888   8.518  1.8962 -0.5701 -0.6688
  179SLPC  C21820474   0.128   2.047   8.385  0.3287 -0.4167 -0.0309
  179SLPC  H18R20475   0.221   2.012   8.336 -0.7088 -1.0130 -1.6449
  179SLPC  H18S20476   0.118   2.157   8.392 -2.5280 -0.6945  2.5681
  179SLPC  H18T20477   0.045   2.006   8.323  0.3268 -0.0955 -0.2438
  179SLPC   C3320478   0.407   2.120   9.724  0.0441 -0.1370  0.7860
  179SLPC   H3X20479   0.480   2.196   9.759  0.4492 -0.0473 -0.2117
  179SLPC   H3Y20480   0.314   2.128   9.784 -0.0092 -2.1287  1.0520
  179SLPC   C3420481   0.373   2.153   9.582 -0.4616 -0.3318  0.4721
  179SLPC   H4X20482   0.314   2.247   9.578 -0.9220 -0.6685 -1.5642
  179SLPC   H4Y20483   0.304   2.074   9.547 -0.3678  0.2854 -1.1863
  179SLPC   C3520484   0.497   2.170   9.495  0.4062 -0.2682  0.2632
  179SLPC   H5X20485   0.543   2.070   9.481  0.5566 -0.0521 -0.9658
  179SLPC   H5Y20486   0.582   2.235   9.528 -0.2244  1.9997 -2.1704
  179SLPC   C3620487   0.453   2.215   9.358 -0.0546 -0.2238  0.6128
  179SLPC   H6X20488   0.375   2.293   9.374  0.5428 -0.1673  3.8967
  179SLPC   H6Y20489   0.403   2.127   9.312  1.0397 -1.0122  0.8867
  179SLPC   C3720490   0.568   2.278   9.276  0.1171 -0.0867  0.3555
  179SLPC   H7X20491   0.620   2.357   9.333 -1.1936  0.3555  0.9830
  179SLPC   H7Y20492   0.524   2.319   9.183 -1.4357 -1.5454  0.3928
  179SLPC   C3820493   0.671   2.174   9.224 -0.7099 -0.9732  0.4476
  179SLPC   H8X20494   0.618   2.078   9.202  0.0270 -0.6587 -3.4317
  179SLPC   H8Y20495   0.740   2.163   9.310 -0.8134  2.6113  1.1071
  179SLPC   C3920496   0.743   2.220   9.099 -0.2681 -0.4973 -0.5625
  179SLPC   H9X20497   0.836   2.161   9.083 -1.1309 -1.8473 -0.8182
  179SLPC   H9Y20498   0.771   2.326   9.115 -0.6453 -0.4757 -0.0099
  179SLPC  C31020499   0.655   2.231   8.975  0.9472  0.2538 -0.1304
  179SLPC  H10X20500   0.566   2.296   8.983  0.3639 -0.6415  1.1185
  179SLPC  H10Y20501   0.614   2.129   8.959 -0.1345  0.8410 -1.1477
  179SLPC  C31120502   0.736   2.266   8.849 -0.5360 -0.1665 -0.1894
  179SLPC  H11X20503   0.837   2.220   8.851  1.5231  3.9560  0.3133
  179SLPC  H11Y20504   0.755   2.376   8.849  1.5757 -0.4926 -0.7435
  179SLPC  C31220505   0.661   2.244   8.725  0.8637 -0.0455  0.5445
  179SLPC  H12X20506   0.571   2.308   8.738  1.1999  0.6933 -0.6335
  179SLPC  H12Y20507   0.634   2.137   8.718  0.4548  0.0840  0.0578
  179SLPC  C31320508   0.738   2.280   8.591  0.7050 -0.1171 -0.5813
  179SLPC  H13X20509   0.817   2.203   8.584  0.0654 -0.8234 -0.1476
  179SLPC  H13Y20510   0.793   2.377   8.584  1.9189 -0.8778 -2.2016
  179SLPC  C31420511   0.631   2.275   8.472 -0.9289  0.5667  0.2975
  179SLPC  H14X20512   0.548   2.347   8.487  0.5678  2.9492 -2.0714
  179SLPC  H14Y20513   0.579   2.176   8.472 -2.5861  1.3911 -1.1843
  179SLPC  C31520514   0.685   2.282   8.327  0.9283 -0.3152  0.3614
  179SLPC  H15X20515   0.716   2.388   8.322  1.2787 -0.4545 -0.4106
  179SLPC  H15Y20516   0.604   2.257   8.255 -1.3787  2.6746  1.7185
  179SLPC  C31620517   0.795   2.181   8.298  0.7717 -0.6878 -0.3366
  179SLPC  H16X20518   0.746   2.083   8.315  0.0568 -0.1182  1.0524
  179SLPC  H16Y20519   0.876   2.207   8.370 -0.7423 -0.9862  1.5731
  179SLPC  C31720520   0.847   2.202   8.151  0.7127  0.2083 -1.0949
  179SLPC  H17X20521   0.764   2.200   8.078 -1.1911  0.5082  0.9761
  179SLPC  H17Y20522   0.913   2.116   8.127  1.4036  0.5510 -0.4987
  179SLPC  C31820523   0.936   2.322   8.128  0.4438 -0.4091  0.0851
  179SLPC  H18X20524   0.886   2.417   8.156  1.7220 -0.3457  2.4619
  179SLPC  H18Y20525   0.963   2.324   8.020 -1.2869  0.5385 -0.3607
  179SLPC  H18Z20526   1.026   2.315   8.193 -1.0339 -2.3582  2.0640
  180SLPC     N20527   5.457   3.311  10.503 -0.5825  0.0003 -0.5090
  180SLPC   C1320528   5.550   3.201  10.457  0.2156  0.3943 -0.4070
  180SLPC  H13A20529   5.616   3.247  10.386  0.3380 -0.8539 -1.1330
  180SLPC  H13B20530   5.623   3.177  10.533 -0.1612  0.1071 -0.1284
  180SLPC  H13C20531   5.506   3.111  10.417  2.9767 -1.0783 -0.3690
  180SLPC   C1420532   5.415   3.371  10.378 -0.1868  0.5448 -0.5231
  180SLPC  H14A20533   5.349   3.457  10.384 -1.0644 -0.0625 -1.2644
  180SLPC  H14B20534   5.503   3.396  10.320  1.9520  0.1813  2.3587
  180SLPC  H14C20535   5.353   3.307  10.317 -1.0850  0.9312 -0.0405
  180SLPC   C1520536   5.530   3.419  10.577  0.1148 -0.1395  0.0974
  180SLPC  H15A20537   5.563   3.392  10.676 -2.5610  0.0836  1.1215
  180SLPC  H15B20538   5.610   3.456  10.514  1.3341  0.6036  1.9951
  180SLPC  H15C20539   5.459   3.499  10.592  0.0867 -0.4303  1.6978
  180SLPC   C1220540   5.346   3.250  10.587  0.0670 -0.0230  0.0524
  180SLPC  H12A20541   5.388   3.230  10.685  3.2833 -1.8262 -1.5411
  180SLPC  H12B20542   5.306   3.158  10.547  0.1980 -0.1746  0.2674
  180SLPC   C1120543   5.226   3.356  10.617  0.5059 -0.6088 -0.1564
  180SLPC  H11A20544   5.144   3.294  10.659  0.8310 -1.8702 -1.2785
  180SLPC  H11B20545   5.187   3.393  10.520  2.2245  0.7549 -0.3829
  180SLPC     P20546   5.230   3.606  10.662  0.2516  0.3203  0.0029
  180SLPC   O1320547   5.081   3.624  10.645 -0.5647  0.2800  0.3245
  180SLPC   O1420548   5.297   3.700  10.747 -0.3324 -0.3426 -0.6118
  180SLPC   O1220549   5.260   3.453  10.713  0.1785  0.7478 -0.3399
  180SLPC   O1120550   5.300   3.606  10.517  0.6692  0.3922 -0.4542
  180SLPC    C120551   5.315   3.728  10.443 -0.0943 -0.5038 -0.1795
  180SLPC    HA20552   5.229   3.794  10.468  0.8898  0.3669  1.0551
  180SLPC    HB20553   5.414   3.767  10.474  1.3257 -3.1069 -1.1331
  180SLPC    C220554   5.330   3.700  10.295  0.4252 -0.2347  0.3151
  180SLPC    HS20555   5.290   3.790  10.243  1.2725  0.5309  0.9544
  180SLPC   O2120556   5.252   3.585  10.245 -0.1068 -0.5350 -1.0594
  180SLPC   C2120557   5.115   3.590  10.266 -0.4422  0.0222 -0.4479
  180SLPC   O2220558   5.056   3.688  10.302  0.3653 -0.4938  0.2196
  180SLPC   C2220559   5.052   3.465  10.219  0.7207 -0.3199  0.0314
  180SLPC   H2R20560   5.134   3.397  10.186  0.1564 -0.1763 -1.8134
  180SLPC   H2S20561   5.007   3.410  10.305 -1.7513 -0.7928 -1.4492
  180SLPC    C320562   5.474   3.687  10.251  0.5739  0.2228  0.8453
  180SLPC    HX20563   5.523   3.597  10.295  0.4711  0.6160  1.7891
  180SLPC    HY20564   5.526   3.774  10.296 -0.2421 -0.2764  2.9197
  180SLPC   O3120565   5.465   3.704  10.108 -1.0928 -0.0720 -0.3773
  180SLPC   C3120566   5.561   3.655  10.031  0.3196  0.1745 -0.4749
  180SLPC   O3220567   5.656   3.595  10.076 -0.4834 -0.7145  0.0919
  180SLPC   C3220568   5.527   3.699   9.887  0.2031 -0.0448  0.2672
  180SLPC   H2X20569   5.504   3.808   9.886 -1.8202 -0.4163  0.7672
  180SLPC   H2Y20570   5.444   3.638   9.846 -0.5839  0.6609  0.7808
  180SLPC   C2320571   4.939   3.472  10.121  0.4092  0.1478  0.3708
  180SLPC   H3R20572   4.895   3.574  10.121  0.6663  0.2736  1.3875
  180SLPC   H3S20573   4.864   3.392  10.137 -0.2646  0.4037 -1.2959
  180SLPC   C2420574   4.986   3.459   9.975 -0.8697 -0.6804 -0.1144
  180SLPC   H4R20575   5.015   3.355   9.949  0.0172 -0.3171 -0.6022
  180SLPC   H4S20576   5.075   3.525   9.971  0.0866 -1.9561 -0.3425
  180SLPC   C2520577   4.878   3.510   9.886  0.1426 -0.9966  0.5073
  180SLPC   H5R20578   4.850   3.615   9.909 -0.3273 -0.9421 -0.2793
  180SLPC   H5S20579   4.782   3.454   9.893 -0.5072  0.1552  1.2709
  180SLPC   C2620580   4.908   3.509   9.736  0.4265  0.4996 -0.0949
  180SLPC   H6R20581   4.948   3.407   9.718  1.1684  0.2750  2.4230
  180SLPC   H6S20582   4.991   3.577   9.709 -0.1551  1.0768 -0.4441
  180SLPC   C2720583   4.782   3.525   9.644 -0.1597 -0.3883 -0.3685
  180SLPC   H7R20584   4.765   3.634   9.643  1.3372 -0.1191  0.2276
  180SLPC   H7S20585   4.692   3.478   9.690 -0.6309 -0.3360 -1.2211
  180SLPC   C2820586   4.813   3.475   9.502  1.0467 -0.4920  0.3491
  180SLPC   H8R20587   4.830   3.365   9.510  0.7433 -0.4896  1.0978
  180SLPC   H8S20588   4.907   3.531   9.480  0.7264  0.0939  0.4640
  180SLPC   C2920589   4.715   3.524   9.400 -0.1568 -0.2105 -0.2143
  180SLPC   H9R20590   4.696   3.632   9.408  1.6458  0.3073 -2.0036
  180SLPC  C21020591   4.667   3.445   9.306  0.0471 -0.3955 -0.2132
  180SLPC  H10R20592   4.591   3.488   9.240  1.2370 -1.8520 -2.7156
  180SLPC  C21120593   4.700   3.301   9.277  0.3905 -0.3187 -0.0772
  180SLPC  H11R20594   4.613   3.256   9.224 -1.4525  2.3164  0.5111
  180SLPC  H11S20595   4.708   3.242   9.371 -0.2417 -1.2107 -0.5708
  180SLPC  C21220596   4.835   3.278   9.210  0.1143 -0.3843 -0.2691
  180SLPC  H12R20597   4.918   3.345   9.237  0.6143 -0.3935 -1.7066
  180SLPC  C21320598   4.860   3.190   9.106  0.3886  0.2678  0.4490
  180SLPC  H13R20599   4.958   3.188   9.058 -0.7752 -2.3217 -2.0589
  180SLPC  C21420600   4.762   3.087   9.046 -0.0734 -0.7398 -0.1387
  180SLPC  H14R20601   4.658   3.096   9.086 -1.2445  0.1573 -3.0948
  180SLPC  H14S20602   4.795   2.984   9.073  0.7727 -0.1010  1.3686
  180SLPC  C21520603   4.748   3.093   8.894 -0.3421 -0.8895 -0.2851
  180SLPC  H15R20604   4.685   3.180   8.865 -1.3931 -0.8584  1.8298
  180SLPC  H15S20605   4.691   3.007   8.854 -1.5945 -0.1851 -0.0734
  180SLPC  C21620606   4.872   3.074   8.815  0.5882  0.1828 -0.1641
  180SLPC  H16R20607   4.931   3.006   8.880 -0.9556 -1.9787 -0.9178
  180SLPC  H16S20608   4.936   3.166   8.811 -1.4732  1.6434 -1.8186
  180SLPC  C21720609   4.873   3.024   8.671 -0.0343  0.5060 -0.1069
  180SLPC  H17R20610   4.821   3.094   8.603  2.1351  2.3454  0.0161
  180SLPC  H17S20611   4.819   2.927   8.665 -0.3707  0.7701 -1.7370
  180SLPC  C21820612   5.014   3.004   8.616 -0.2065 -0.1932  0.3664
  180SLPC  H18R20613   5.026   2.918   8.546 -0.9380  0.0472 -0.0682
  180SLPC  H18S20614   5.074   2.957   8.697 -0.3591 -2.7280 -0.8866
  180SLPC  H18T20615   5.063   3.097   8.581  2.1851 -1.5811 -0.2750
  180SLPC   C3320616   5.644   3.682   9.788 -0.7016  0.2565  0.0825
  180SLPC   H3X20617   5.658   3.574   9.766  0.6657  0.3079  0.6486
  180SLPC   H3Y20618   5.732   3.711   9.849 -1.0434 -2.7963  2.2579
  180SLPC   C3420619   5.631   3.771   9.662  0.2264 -0.1646  0.6007
  180SLPC   H4X20620   5.671   3.871   9.691  0.7932 -0.8534  2.3367
  180SLPC   H4Y20621   5.525   3.801   9.646  0.1353 -0.7827  0.0147
  180SLPC   C3520622   5.685   3.706   9.534 -0.0324 -0.8386 -0.1171
  180SLPC   H5X20623   5.614   3.625   9.506 -0.4856 -0.1431 -1.0079
  180SLPC   H5Y20624   5.781   3.661   9.570 -1.2949 -1.8141  2.2826
  180SLPC   C3620625   5.695   3.816   9.427  0.2846 -0.4574 -0.2853
  180SLPC   H6X20626   5.769   3.893   9.459  0.3472 -0.4515 -0.4432
  180SLPC   H6Y20627   5.600   3.870   9.411 -0.1711 -0.5593  1.7545
  180SLPC   C3720628   5.750   3.772   9.284  0.4232  0.5433 -0.7036
  180SLPC   H7X20629   5.854   3.737   9.296  0.2399 -0.1779 -1.1600
  180SLPC   H7Y20630   5.758   3.860   9.216 -1.3072 -0.1759 -1.9292
  180SLPC   C3820631   5.659   3.667   9.212  0.3883 -0.0512 -0.6002
  180SLPC   H8X20632   5.555   3.705   9.202 -0.9960 -3.7868 -2.2912
  180SLPC   H8Y20633   5.653   3.580   9.281 -1.3339  1.3872  1.1910
  180SLPC   C3920634   5.719   3.626   9.082 -0.4438  0.1641  0.3335
  180SLPC   H9X20635   5.809   3.564   9.105  1.1096  2.3965  0.5316
  180SLPC   H9Y20636   5.754   3.712   9.021 -0.4329 -0.9477 -1.3166
  180SLPC  C31020637   5.617   3.541   9.000 -0.0738  0.0952  0.6838
  180SLPC  H10X20638   5.524   3.601   8.998 -0.1645 -0.0361  0.8979
  180SLPC  H10Y20639   5.593   3.446   9.053  0.9527  0.5712  2.0773
  180SLPC  C31120640   5.656   3.541   8.854 -0.1174 -0.0180  0.1004
  180SLPC  H11X20641   5.686   3.644   8.826 -0.0607  0.5824  2.2038
  180SLPC  H11Y20642   5.567   3.500   8.801 -1.1541 -1.3945  2.7103
  180SLPC  C31220643   5.764   3.435   8.830 -0.4051 -0.5511 -0.5561
  180SLPC  H12X20644   5.730   3.332   8.854  1.1921 -0.4864  2.3598
  180SLPC  H12Y20645   5.854   3.454   8.891 -0.3481 -2.0143 -0.1443
  180SLPC  C31320646   5.813   3.436   8.684 -0.7906 -0.2187  0.1033
  180SLPC  H13X20647   5.834   3.539   8.649 -1.7815 -0.8595 -2.6745
  180SLPC  H13Y20648   5.735   3.413   8.609 -0.4309  0.4789 -0.5024
  180SLPC  C31420649   5.928   3.349   8.647 -0.6997  0.3838  0.4610
  180SLPC  H14X20650   6.013   3.369   8.717  0.1368 -2.1605  0.2759
  180SLPC  H14Y20651   5.972   3.376   8.549 -2.5242 -0.0677 -0.5270
  180SLPC  C31520652   5.915   3.199   8.654 -0.1036 -0.7003 -0.3067
  180SLPC  H15X20653   5.848   3.157   8.731  1.6745  0.4751  1.9855
  180SLPC  H15Y20654   6.013   3.148   8.666  0.7408  0.3970 -2.0092
  180SLPC  C31620655   5.882   3.134   8.522 -0.1263 -0.2013  0.6313
  180SLPC  H16X20656   5.935   3.180   8.436 -0.0569  1.8172  1.6857
  180SLPC  H16Y20657   5.774   3.133   8.496  0.2148 -1.0228 -0.8578
  180SLPC  C31720658   5.931   2.987   8.516 -0.8343  0.1739 -0.2837
  180SLPC  H17X20659   6.041   2.993   8.534 -0.6851  1.1681 -1.4461
  180SLPC  H17Y20660   5.916   2.927   8.425  0.0668 -0.2657 -0.1591
  180SLPC  C31820661   5.880   2.894   8.637 -0.4296  0.4867  0.3869
  180SLPC  H18X20662   5.770   2.885   8.634 -0.4726  1.1639 -2.1125
  180SLPC  H18Y20663   5.914   2.936   8.734 -0.8687 -1.0416  1.2348
  180SLPC  H18Z20664   5.926   2.793   8.629  0.7146  1.0385 -0.3102
  181SLPC     N20665   0.253   6.505  10.803  0.5354  0.0360  0.2168
  181SLPC   C1320666   0.281   6.609  10.699  0.5468  0.0800 -0.6472
  181SLPC  H13A20667   0.278   6.713  10.731 -1.8004  0.5711 -2.2508
  181SLPC  H13B20668   0.386   6.589  10.686  0.8215  0.7503  0.3498
  181SLPC  H13C20669   0.222   6.599  10.610  0.8102 -1.2279 -0.6968
  181SLPC   C1420670   0.274   6.372  10.733 -0.6192  0.0979  0.6148
  181SLPC  H14A20671   0.233   6.294  10.794  0.0708 -2.1576 -1.6252
  181SLPC  H14B20672   0.213   6.381  10.644  0.5435  2.1424 -0.0651
  181SLPC  H14C20673   0.380   6.365  10.714 -0.7657  0.4698 -0.4183
  181SLPC   C1520674   0.112   6.506  10.851 -1.1000  0.1381 -0.5290
  181SLPC  H15A20675   0.105   6.437  10.934  1.7989 -0.6025 -0.7623
  181SLPC  H15B20676   0.072   6.606  10.861  1.5682  1.2932 -0.4271
  181SLPC  H15C20677   0.041   6.469  10.779 -0.0264  0.2210 -1.6628
  181SLPC   C1220678   0.351   6.525  10.916 -1.0166 -0.5415  0.5887
  181SLPC  H12A20679   0.328   6.446  10.986 -2.3382 -0.8347 -0.1338
  181SLPC  H12B20680   0.330   6.618  10.967  3.9401  0.3132  1.5505
  181SLPC   C1120681   0.501   6.523  10.886 -0.3257 -0.2144  0.1278
  181SLPC  H11A20682   0.519   6.422  10.842 -1.6053 -1.2518  1.8702
  181SLPC  H11B20683   0.543   6.534  10.988 -0.6906 -0.1315  0.2678
  181SLPC     P20684   0.705   6.633  10.767  0.6528 -0.4375 -0.0978
  181SLPC   O1320685   0.750   6.770  10.741  0.1692  0.3926  0.6136
  181SLPC   O1420686   0.787   6.559  10.864 -0.5846 -0.3359 -0.2692
  181SLPC   O1220687   0.550   6.633  10.801 -0.2087 -0.1068  0.3068
  181SLPC   O1120688   0.716   6.554  10.635 -0.3446  0.1806  0.2482
  181SLPC    C120689   0.624   6.457  10.592  0.7233  0.8968 -0.3684
  181SLPC    HA20690   0.635   6.361  10.647  0.2860  0.7794 -0.4816
  181SLPC    HB20691   0.524   6.504  10.601  1.4203  2.1189  1.6997
  181SLPC    C220692   0.647   6.424  10.442  0.3528 -0.6510  0.5116
  181SLPC    HS20693   0.617   6.518  10.392  1.6497 -1.0564 -1.1050
  181SLPC   O2120694   0.576   6.308  10.404 -0.3706  0.2124  0.3609
  181SLPC   C2120695   0.443   6.314  10.402  0.1166  0.7561 -0.2856
  181SLPC   O2220696   0.376   6.407  10.437  0.3890 -0.4306  0.3893
  181SLPC   C2220697   0.388   6.177  10.373  0.1755 -0.0395 -0.4705
  181SLPC   H2R20698   0.426   6.106  10.449  1.1652  0.0138 -0.9002
  181SLPC   H2S20699   0.282   6.189  10.403 -0.3156 -0.2495 -2.0135
  181SLPC    C320700   0.794   6.387  10.412 -0.1570  0.2149  0.2460
  181SLPC    HX20701   0.828   6.305  10.479  0.8529  0.3310 -0.1094
  181SLPC    HY20702   0.848   6.472  10.458  0.9225 -2.0332  3.4881
  181SLPC   O3120703   0.826   6.367  10.268 -0.0647  0.4024 -0.4275
  181SLPC   C3120704   0.837   6.238  10.229 -1.0595 -0.2868  0.0264
  181SLPC   O3220705   0.842   6.144  10.304 -0.7694 -0.2326  0.4378
  181SLPC   C3220706   0.845   6.219  10.074  0.3504 -0.4839 -0.1457
  181SLPC   H2X20707   0.852   6.109  10.056  0.5302 -0.3720 -0.7799
  181SLPC   H2Y20708   0.932   6.275  10.034  0.2648  0.4735  0.9568
  181SLPC   C2320709   0.399   6.121  10.230  0.2137  0.0741  0.4055
  181SLPC   H3R20710   0.353   6.020  10.225 -0.7684  0.5848 -1.9490
  181SLPC   H3S20711   0.507   6.141  10.208 -0.4013  4.1620  0.2650
  181SLPC   C2420712   0.319   6.205  10.129 -0.4445 -0.2376 -0.2150
  181SLPC   H4R20713   0.374   6.295  10.095  0.7215 -1.6814 -2.4280
  181SLPC   H4S20714   0.228   6.244  10.179 -1.5146 -0.2339 -2.0926
  181SLPC   C2520715   0.276   6.125   9.998  0.0855 -0.5136 -0.5421
  181SLPC   H5R20716   0.218   6.032  10.015 -1.0813 -0.2130 -2.5355
  181SLPC   H5S20717   0.368   6.099   9.940 -0.1264 -0.0787 -1.0813
  181SLPC   C2620718   0.176   6.215   9.924 -0.0100  0.1918  0.6606
  181SLPC   H6R20719   0.210   6.321   9.917  0.9097 -0.1767 -1.0584
  181SLPC   H6S20720   0.084   6.215   9.985 -1.6301 -1.4747 -1.6173
  181SLPC   C2720721   0.138   6.155   9.790 -0.0220  0.1768  0.3772
  181SLPC   H7R20722   0.113   6.047   9.791  3.3829 -0.7451 -0.6055
  181SLPC   H7S20723   0.230   6.164   9.728 -1.1045 -1.5662 -1.6044
  181SLPC   C2820724   0.018   6.230   9.725  0.0240  0.2448  0.1228
  181SLPC   H8R20725   0.011   6.337   9.755 -0.4459 -0.5558  3.1338
  181SLPC   H8S20726  -0.073   6.187   9.772  1.1042 -0.8570  1.2810
  181SLPC   C2920727   0.010   6.204   9.574  0.1509  0.4874  0.4337
  181SLPC   H9R20728   0.021   6.099   9.541  1.0895  0.6564  0.1568
  181SLPC  C21020729  -0.004   6.292   9.475  0.0743  0.0618  0.1056
  181SLPC  H10R20730   0.004   6.258   9.371 -0.0359  1.6918 -0.4566
  181SLPC  C21120731  -0.012   6.444   9.480 -0.0935  0.3895 -0.3829
  181SLPC  H11R20732   0.020   6.481   9.579 -0.1086 -1.7911  0.4952
  181SLPC  H11S20733  -0.116   6.476   9.460 -0.3304 -0.5260 -0.6750
  181SLPC  C21220734   0.082   6.512   9.374  0.2190 -0.1284 -0.1152
  181SLPC  H12R20735   0.171   6.567   9.410  0.7583 -3.0402  3.6384
  181SLPC  C21320736   0.050   6.523   9.245  0.0057  0.2579  1.1850
  181SLPC  H13R20737   0.124   6.577   9.184  0.1436  2.5078  3.1935
  181SLPC  C21420738  -0.076   6.478   9.165  0.3603 -0.0526 -1.2896
  181SLPC  H14R20739  -0.144   6.564   9.150  1.4503  1.0088 -0.3664
  181SLPC  H14S20740  -0.128   6.402   9.227 -0.8814  2.9824  1.7217
  181SLPC  C21520741  -0.051   6.422   9.022  0.2983  0.2071 -0.9292
  181SLPC  H15R20742  -0.137   6.359   8.989 -0.7433  2.4025 -2.6302
  181SLPC  H15S20743   0.028   6.346   9.041  0.4662  0.7313  0.5762
  181SLPC  C21620744  -0.015   6.517   8.914 -0.5269 -0.7521  0.4661
  181SLPC  H16R20745   0.087   6.559   8.929 -0.2868 -0.6457 -1.2457
  181SLPC  H16S20746  -0.088   6.600   8.903  0.1877 -0.4118 -2.6075
  181SLPC  C21720747  -0.013   6.455   8.771  0.3381 -0.1214 -0.6155
  181SLPC  H17R20748  -0.119   6.438   8.741 -0.3990  1.0791  1.1212
  181SLPC  H17S20749   0.026   6.351   8.758 -2.1974 -1.0778 -1.2107
  181SLPC  C21820750   0.038   6.548   8.665  0.2531  0.3975 -0.1824
  181SLPC  H18R20751   0.143   6.576   8.690  0.9032 -1.0635 -1.1372
  181SLPC  H18S20752  -0.021   6.642   8.675 -0.3749  0.2170 -1.8126
  181SLPC  H18T20753   0.022   6.500   8.566 -0.1722  0.7214 -0.2717
  181SLPC   C3320754   0.717   6.249   9.988  0.3309  0.7019  0.2562
  181SLPC   H3X20755   0.681   6.353  10.002 -0.5678  0.6185 -1.2012
  181SLPC   H3Y20756   0.638   6.173  10.005 -0.3239  0.2981 -3.6117
  181SLPC   C3420757   0.751   6.219   9.836 -0.5807 -0.4540 -0.3837
  181SLPC   H4X20758   0.792   6.117   9.825 -2.4461 -1.2592 -0.2275
  181SLPC   H4Y20759   0.834   6.286   9.805 -0.0982  0.5221  2.6705
  181SLPC   C3520760   0.633   6.251   9.748  0.6080 -0.4679  0.3684
  181SLPC   H5X20761   0.599   6.356   9.765 -1.6392 -1.2887  1.3547
  181SLPC   H5Y20762   0.541   6.198   9.782 -1.0855  1.1517 -1.3954
  181SLPC   C3620763   0.656   6.224   9.595  0.3650 -0.3083 -0.0629
  181SLPC   H6X20764   0.629   6.117   9.576  0.7403 -0.8788  2.3161
  181SLPC   H6Y20765   0.764   6.229   9.567  0.3257 -0.7734 -0.3244
  181SLPC   C3720766   0.575   6.309   9.492 -0.7526  0.6090 -0.0421
  181SLPC   H7X20767   0.633   6.404   9.485  1.8787 -0.9984 -1.7557
  181SLPC   H7Y20768   0.473   6.314   9.535 -0.7869 -2.4720  0.4039
  181SLPC   C3820769   0.567   6.234   9.356  0.3197 -1.0707 -0.1456
  181SLPC   H8X20770   0.489   6.157   9.372  1.2444 -2.1431 -0.6861
  181SLPC   H8Y20771   0.654   6.166   9.347  0.9997 -0.1548 -0.7459
  181SLPC   C3920772   0.546   6.329   9.241 -0.3548  0.1721  0.1120
  181SLPC   H9X20773   0.642   6.377   9.214 -0.8619  0.9018 -0.4381
  181SLPC   H9Y20774   0.484   6.415   9.275  1.1204  1.0690  0.6318
  181SLPC  C31020775   0.489   6.245   9.127  0.2211 -0.5387  0.0949
  181SLPC  H10X20776   0.413   6.170   9.157 -0.0360 -1.2213 -2.1444
  181SLPC  H10Y20777   0.573   6.189   9.080  0.3111 -2.5199  2.3749
  181SLPC  C31120778   0.400   6.327   9.038  0.1380 -0.6554 -0.1325
  181SLPC  H11X20779   0.452   6.409   8.984 -1.6912  1.4844  1.1115
  181SLPC  H11Y20780   0.326   6.388   9.095  1.2080 -1.8786  2.7653
  181SLPC  C31220781   0.320   6.240   8.933 -0.2902 -0.6675 -0.6647
  181SLPC  H12X20782   0.232   6.299   8.901 -0.8869 -1.7371 -1.0511
  181SLPC  H12Y20783   0.271   6.147   8.968  0.0147 -0.2579  0.9009
  181SLPC  C31320784   0.405   6.200   8.809  0.1323  0.0699  0.4819
  181SLPC  H13X20785   0.491   6.149   8.858 -0.0411 -0.8813 -0.1545
  181SLPC  H13Y20786   0.442   6.285   8.749 -1.0374 -0.0256 -0.4024
  181SLPC  C31420787   0.333   6.106   8.704 -0.6720 -0.4295  0.0109
  181SLPC  H14X20788   0.242   6.163   8.674 -0.0937  0.6031  0.1882
  181SLPC  H14Y20789   0.299   6.005   8.737 -1.4082 -0.0012  0.6116
  181SLPC  C31520790   0.424   6.099   8.586  0.8512  0.2407 -0.4332
  181SLPC  H15X20791   0.530   6.089   8.619  0.7194 -0.0031 -0.0830
  181SLPC  H15Y20792   0.427   6.198   8.536 -2.6998  1.4033  1.3384
  181SLPC  C31620793   0.374   5.991   8.482 -0.3050 -1.3898 -0.2580
  181SLPC  H16X20794   0.375   5.900   8.546  1.5205 -0.4720  1.1186
  181SLPC  H16Y20795   0.442   5.985   8.394  0.6588 -0.3215  0.3985
  181SLPC  C31720796   0.239   6.034   8.428 -0.0153  0.3288 -0.3282
  181SLPC  H17X20797   0.244   6.124   8.364 -0.1546  0.3756 -0.2740
  181SLPC  H17Y20798   0.165   6.060   8.506 -0.0462  0.6793 -0.4734
  181SLPC  C31820799   0.173   5.931   8.334 -0.1063  1.0948 -0.7961
  181SLPC  H18X20800   0.093   5.977   8.272 -1.2026 -0.7515 -0.8260
  181SLPC  H18Y20801   0.113   5.855   8.389  0.0430 -0.6685 -2.9338
  181SLPC  H18Z20802   0.253   5.880   8.277 -0.4931 -0.4208 -0.0428
  182SLPC     N20803   4.603   6.389  10.535  0.1843  0.4254  0.2729
  182SLPC   C1320804   4.454   6.396  10.544  0.5135  0.5070  0.9861
  182SLPC  H13A20805   4.417   6.296  10.563 -1.7649  0.4072 -2.9760
  182SLPC  H13B20806   4.414   6.464  10.618 -1.2049  0.5038  0.1010
  182SLPC  H13C20807   4.406   6.424  10.452  1.6092  1.2331  0.6098
  182SLPC   C1420808   4.666   6.388  10.672  0.6647 -0.1054 -0.5336
  182SLPC  H14A20809   4.615   6.318  10.737  0.2813  1.6665  1.1538
  182SLPC  H14B20810   4.773   6.373  10.675  0.6718 -0.2817 -1.5279
  182SLPC  H14C20811   4.654   6.482  10.723  0.1658  0.1328 -1.0878
  182SLPC   C1520812   4.658   6.509  10.459  0.2329 -0.4540 -0.1396
  182SLPC  H15A20813   4.629   6.605  10.499  0.4142 -1.3206  2.2525
  182SLPC  H15B20814   4.765   6.507  10.466  0.1836 -1.4141  0.5509
  182SLPC  H15C20815   4.625   6.500  10.356  0.6626 -0.5942 -0.2662
  182SLPC   C1220816   4.648   6.261  10.466 -0.4419  0.0986  1.2937
  182SLPC  H12A20817   4.754   6.256  10.446 -0.8318 -0.4361 -0.9963
  182SLPC  H12B20818   4.607   6.268  10.366 -0.6874  1.4843  1.4650
  182SLPC   C1120819   4.604   6.123  10.520  0.5784  0.1860  0.9957
  182SLPC  H11A20820   4.622   6.033  10.457 -0.5301  0.8190 -0.2638
  182SLPC  H11B20821   4.493   6.128  10.517  0.6037  0.5903  0.7762
  182SLPC     P20822   4.797   6.040  10.677 -0.0620  0.4886 -0.3282
  182SLPC   O1320823   4.853   6.094  10.805  0.6725 -0.4477 -0.0369
  182SLPC   O1420824   4.801   5.894  10.662 -0.1261  0.2080 -0.7995
  182SLPC   O1220825   4.648   6.098  10.649 -0.1535  0.1284  0.0822
  182SLPC   O1120826   4.864   6.101  10.550  0.3364 -0.2150  0.4059
  182SLPC    C120827   5.007   6.099  10.524  0.5542  0.3698  0.3657
  182SLPC    HA20828   5.059   6.161  10.600  1.4705  0.2700 -0.1704
  182SLPC    HB20829   5.048   5.998  10.546  0.7872  0.6888  1.4584
  182SLPC    C220830   5.046   6.139  10.383 -0.1906 -0.0932  0.2463
  182SLPC    HS20831   5.156   6.128  10.374  0.0762  1.5160  1.1695
  182SLPC   O2120832   5.021   6.283  10.349  0.0349  0.3914 -0.0197
  182SLPC   C2120833   5.090   6.372  10.421 -0.5464 -0.1298 -0.5072
  182SLPC   O2220834   5.190   6.348  10.489 -0.7628 -0.2230  0.5543
  182SLPC   C2220835   5.050   6.519  10.383  0.0250 -0.0966  0.2999
  182SLPC   H2R20836   4.965   6.555  10.446 -0.4157 -0.6449  0.0266
  182SLPC   H2S20837   5.137   6.586  10.401 -0.4380  1.2658 -2.1490
  182SLPC    C320838   4.976   6.056  10.272 -0.4873  0.5587 -0.1263
  182SLPC    HX20839   4.866   6.073  10.281 -0.4865  1.8527 -1.9622
  182SLPC    HY20840   4.998   5.948  10.281  2.0671  0.8441 -1.7681
  182SLPC   O3120841   5.013   6.105  10.142  0.3116 -0.1902  0.1915
  182SLPC   C3120842   5.135   6.072  10.103 -0.1628 -0.4040  0.2810
  182SLPC   O3220843   5.210   5.993  10.164  0.7419 -0.3558 -0.0971
  182SLPC   C3220844   5.170   6.148   9.971  0.4488 -0.7629 -0.4012
  182SLPC   H2X20845   5.146   6.257   9.977  0.9361 -0.5595 -1.7405
  182SLPC   H2Y20846   5.105   6.101   9.895 -1.8204 -0.0963  1.0384
  182SLPC   C2320847   5.004   6.536  10.233 -0.5944  0.1763 -0.2025
  182SLPC   H3R20848   4.936   6.623  10.248 -1.1774 -0.7210  3.5002
  182SLPC   H3S20849   4.954   6.447  10.190  0.0938 -0.3050 -0.0283
  182SLPC   C2420850   5.111   6.587  10.142 -0.1039 -0.8248 -0.0888
  182SLPC   H4R20851   5.197   6.517  10.141  1.6096  1.1882  0.7759
  182SLPC   H4S20852   5.151   6.678  10.190 -1.4650 -1.1037  1.6601
  182SLPC   C2520853   5.061   6.625  10.002 -0.8752 -1.0859  1.0466
  182SLPC   H5R20854   4.957   6.661  10.015 -0.6500 -0.7814  2.1067
  182SLPC   H5S20855   5.061   6.546   9.924 -0.8720  1.8771 -2.1841
  182SLPC   C2620856   5.159   6.730   9.934 -0.1489  0.0693 -0.4643
  182SLPC   H6R20857   5.260   6.691   9.961 -0.7654 -1.3516 -0.1457
  182SLPC   H6S20858   5.138   6.831   9.976  1.4703  0.7244 -1.1341
  182SLPC   C2720859   5.160   6.720   9.782  0.5435  0.4480 -0.1052
  182SLPC   H7R20860   5.062   6.735   9.732  0.5282 -0.2979 -0.3086
  182SLPC   H7S20861   5.188   6.617   9.751 -0.1016  0.0727  0.5303
  182SLPC   C2820862   5.259   6.814   9.717  0.1546  0.8374 -0.1202
  182SLPC   H8R20863   5.350   6.805   9.781  1.2690 -4.5236 -1.9404
  182SLPC   H8S20864   5.226   6.919   9.733 -0.7768  0.3979  0.9782
  182SLPC   C2920865   5.288   6.771   9.573  0.1181 -0.0304  0.1521
  182SLPC   H9R20866   5.280   6.664   9.549  2.3763  0.3565 -2.8417
  182SLPC  C21020867   5.307   6.846   9.467 -0.1312 -0.0774  0.6122
  182SLPC  H10R20868   5.327   6.799   9.369  1.0711 -1.6569  1.5668
  182SLPC  C21120869   5.296   6.995   9.459  0.1734 -0.5555  0.1844
  182SLPC  H11R20870   5.385   7.026   9.402  1.9706 -4.4263  0.5923
  182SLPC  H11S20871   5.317   7.049   9.554  1.6264  0.5658 -0.7367
  182SLPC  C21220872   5.160   7.052   9.405 -0.1549  0.1937 -1.0651
  182SLPC  H12R20873   5.082   7.082   9.476 -0.5538  4.1179 -2.9157
  182SLPC  C21320874   5.138   7.079   9.276  0.1506  1.3571 -0.3543
  182SLPC  H13R20875   5.035   7.111   9.252 -0.9994 -1.0257  0.9700
  182SLPC  C21420876   5.232   7.068   9.159 -0.2491 -1.1993  0.3005
  182SLPC  H14R20877   5.170   7.039   9.071 -0.4140  0.4090 -0.1292
  182SLPC  H14S20878   5.314   6.993   9.167  2.5686  1.7493  1.1859
  182SLPC  C21520879   5.292   7.200   9.121  0.5782  0.5877 -0.2193
  182SLPC  H15R20880   5.342   7.250   9.206 -2.0336  0.1035  1.7158
  182SLPC  H15S20881   5.210   7.262   9.081  0.8998  1.0186 -0.2122
  182SLPC  C21620882   5.406   7.175   9.016  0.5004  0.3629 -0.5429
  182SLPC  H16R20883   5.370   7.104   8.938  2.0587 -1.3831  0.2599
  182SLPC  H16S20884   5.483   7.116   9.070 -1.1956 -1.0207  0.4555
  182SLPC  C21720885   5.453   7.306   8.956  0.1170  0.0647 -0.0838
  182SLPC  H17R20886   5.363   7.360   8.920 -1.1960 -1.4102  0.8471
  182SLPC  H17S20887   5.514   7.295   8.864  0.8048  0.1264  0.3618
  182SLPC  C21820888   5.541   7.389   9.053 -0.5397  0.5398  0.0044
  182SLPC  H18R20889   5.572   7.488   9.015 -0.2724  0.1055 -0.9433
  182SLPC  H18S20890   5.629   7.331   9.089  0.3974  2.1289  0.3702
  182SLPC  H18T20891   5.489   7.409   9.149  0.9241  0.9026  0.7525
  182SLPC   C3320892   5.319   6.138   9.919  0.1633  0.2558 -0.7374
  182SLPC   H3X20893   5.331   6.032   9.889 -3.9355 -0.4793 -0.3907
  182SLPC   H3Y20894   5.390   6.170   9.998  1.1656 -0.5771 -1.2730
  182SLPC   C3420895   5.318   6.225   9.793  0.2826 -0.3329  0.9107
  182SLPC   H4X20896   5.216   6.251   9.756 -0.2755 -0.1330  2.5373
  182SLPC   H4Y20897   5.353   6.154   9.715  0.0397 -1.7777  2.0770
  182SLPC   C3520898   5.406   6.352   9.805 -0.1516  0.7379  0.3869
  182SLPC   H5X20899   5.481   6.328   9.882  0.1906  0.2781 -0.0804
  182SLPC   H5Y20900   5.342   6.434   9.844 -1.1117  0.0300  0.3517
  182SLPC   C3620901   5.477   6.406   9.680 -0.0523  0.0353 -0.9233
  182SLPC   H6X20902   5.586   6.385   9.677  0.4966  1.8033  2.2262
  182SLPC   H6Y20903   5.473   6.517   9.687  1.1094  0.1668 -1.9142
  182SLPC   C3720904   5.413   6.361   9.551 -0.1034 -0.2214  0.2888
  182SLPC   H7X20905   5.304   6.367   9.570 -0.0580 -0.8930  0.8161
  182SLPC   H7Y20906   5.411   6.252   9.530 -2.8744 -1.0228  3.7070
  182SLPC   C3820907   5.462   6.440   9.429  0.5500  0.7516 -0.2307
  182SLPC   H8X20908   5.573   6.443   9.423  0.4799  3.0410 -1.6371
  182SLPC   H8Y20909   5.427   6.545   9.441  0.7328  0.6081  2.0141
  182SLPC   C3920910   5.396   6.389   9.300 -0.1408 -0.1428  0.1488
  182SLPC   H9X20911   5.286   6.399   9.301 -0.0775  0.5860  0.4768
  182SLPC   H9Y20912   5.417   6.280   9.287  2.0121  0.2677 -0.1302
  182SLPC  C31020913   5.470   6.467   9.193  0.7598  0.9036  0.5729
  182SLPC  H10X20914   5.570   6.420   9.194  0.1872 -0.3777  0.2866
  182SLPC  H10Y20915   5.479   6.576   9.209  0.9147  1.0736 -0.6257
  182SLPC  C31120916   5.412   6.442   9.049  0.5408  0.1171 -0.0588
  182SLPC  H11X20917   5.461   6.513   8.979  1.8529 -0.2017  0.5184
  182SLPC  H11Y20918   5.305   6.472   9.049  0.7195  0.8427 -1.4746
  182SLPC  C31220919   5.422   6.292   9.000  0.8943  0.0728 -0.6230
  182SLPC  H12X20920   5.353   6.244   9.072  0.8382  1.2188  0.1310
  182SLPC  H12Y20921   5.531   6.276   9.015  0.5208 -2.2018  0.0391
  182SLPC  C31320922   5.378   6.264   8.854  0.7197 -0.0917 -0.1029
  182SLPC  H13X20923   5.428   6.332   8.782  0.0005  0.3542 -0.1937
  182SLPC  H13Y20924   5.271   6.291   8.846  0.3671 -0.8288  1.7224
  182SLPC  C31420925   5.391   6.110   8.827 -0.1842 -0.2030  0.1275
  182SLPC  H14X20926   5.306   6.051   8.868 -0.4348 -0.0403 -0.1623
  182SLPC  H14Y20927   5.488   6.067   8.860  0.9752  0.5897 -2.0462
  182SLPC  C31520928   5.386   6.090   8.674  0.0172 -0.0081 -0.4908
  182SLPC  H15X20929   5.443   6.163   8.613 -0.2248  0.3458 -0.3038
  182SLPC  H15Y20930   5.283   6.089   8.633 -0.1623 -0.2752 -0.0513
  182SLPC  C31620931   5.448   5.946   8.647  0.4153 -0.8455 -0.2446
  182SLPC  H16X20932   5.387   5.874   8.705  0.1746  0.0562  0.6458
  182SLPC  H16Y20933   5.552   5.928   8.680  0.4018 -1.4526 -0.5235
  182SLPC  C31720934   5.448   5.911   8.497  1.0234  0.4780 -0.4108
  182SLPC  H17X20935   5.497   5.812   8.486  0.5853  0.1619  0.4051
  182SLPC  H17Y20936   5.500   5.981   8.427  0.2582  0.9018 -0.5634
  182SLPC  C31820937   5.302   5.884   8.442  0.0861  0.0630 -0.1643
  182SLPC  H18X20938   5.281   5.957   8.361  2.1636  2.5990  1.4292
  182SLPC  H18Y20939   5.219   5.896   8.514 -0.1121 -1.7438 -0.0308
  182SLPC  H18Z20940   5.301   5.778   8.407  0.3910 -0.4260  1.2646
  183SLPC     N20941   3.666   1.582  10.524 -0.2819 -0.4399  0.8651
  183SLPC   C1320942   3.763   1.475  10.547  0.1013  0.7099  0.2537
  183SLPC  H13A20943   3.784   1.486  10.652  0.4140  1.0137  0.1580
  183SLPC  H13B20944   3.731   1.374  10.523 -1.0742  1.1614 -0.1494
  183SLPC  H13C20945   3.859   1.485  10.497  0.8208 -2.3350  0.8212
  183SLPC   C1420946   3.573   1.595  10.640 -0.2845  0.5195 -0.4979
  183SLPC  H14A20947   3.619   1.621  10.733 -1.1183 -1.0577  0.4090
  183SLPC  H14B20948   3.481   1.648  10.620 -1.0896  0.2242  2.0876
  183SLPC  H14C20949   3.541   1.492  10.653 -2.0652  1.0124 -0.6362
  183SLPC   C1520950   3.592   1.561  10.395  0.7821  0.2878  0.2201
  183SLPC  H15A20951   3.663   1.549  10.315  1.4203  0.3596  0.7706
  183SLPC  H15B20952   3.520   1.480  10.390  1.5565 -0.3494 -1.3046
  183SLPC  H15C20953   3.526   1.643  10.370 -0.5149 -0.6068  0.5645
  183SLPC   C1220954   3.751   1.707  10.514 -0.2751 -0.1707  0.0709
  183SLPC  H12A20955   3.807   1.720  10.605 -2.1397  0.6414  1.1782
  183SLPC  H12B20956   3.693   1.798  10.517  0.0865  0.0835 -0.4624
  183SLPC   C1120957   3.847   1.730  10.395 -0.3381  0.4985  0.5770
  183SLPC  H11A20958   3.877   1.837  10.407 -0.6113  0.6424 -0.0100
  183SLPC  H11B20959   3.802   1.727  10.293  1.0313  0.5451 -0.0555
  183SLPC     P20960   4.068   1.669  10.501 -0.3836  0.0693 -0.0356
  183SLPC   O1320961   4.082   1.809  10.546  0.5746 -0.3376 -0.0145
  183SLPC   O1420962   4.050   1.565  10.608  0.0199 -0.7440 -0.3193
  183SLPC   O1220963   3.958   1.635  10.398 -0.4011  0.0572  0.5227
  183SLPC   O1120964   4.208   1.631  10.426 -0.3641 -0.2102  0.3341
  183SLPC    C120965   4.194   1.557  10.302 -0.2004  0.4065 -0.3155
  183SLPC    HA20966   4.139   1.461  10.312 -1.9877  1.5680  1.7862
  183SLPC    HB20967   4.147   1.620  10.223 -1.1185  0.9613  0.6601
  183SLPC    C220968   4.341   1.540  10.252 -0.2075 -0.6150  0.3486
  183SLPC    HS20969   4.387   1.638  10.275  1.1484 -1.6692  2.5263
  183SLPC   O2120970   4.342   1.503  10.111  0.4669 -0.4762  0.0060
  183SLPC   C2120971   4.366   1.598  10.024  0.0196  0.5793  0.5866
  183SLPC   O2220972   4.406   1.709  10.042 -0.2066 -0.3270  0.3512
  183SLPC   C2220973   4.332   1.549   9.889  0.2049  0.0084 -0.0190
  183SLPC   H2R20974   4.400   1.466   9.859 -0.7920 -1.1229  0.7309
  183SLPC   H2S20975   4.233   1.499   9.895  0.9885 -1.4217  3.3757
  183SLPC    C320976   4.415   1.440  10.338 -0.2666 -0.6474  0.5798
  183SLPC    HX20977   4.367   1.340  10.348 -1.4288 -0.0219  1.5154
  183SLPC    HY20978   4.407   1.473  10.444  0.0589 -1.4974  0.8791
  183SLPC   O3120979   4.553   1.429  10.284 -0.6360  0.6566 -0.0618
  183SLPC   C3120980   4.641   1.504  10.345 -0.1000 -0.3288 -0.5467
  183SLPC   O3220981   4.619   1.566  10.449  0.3183 -0.3970 -0.6818
  183SLPC   C3220982   4.779   1.482  10.277  0.0105 -0.1212  0.6938
  183SLPC   H2X20983   4.783   1.393  10.211 -0.6080 -0.3809  1.0037
  183SLPC   H2Y20984   4.853   1.460  10.357  0.7822 -1.6638 -0.3971
  183SLPC   C2320985   4.345   1.660   9.787  0.3506 -0.1881 -0.6388
  183SLPC   H3R20986   4.449   1.698   9.789  0.7190 -1.1199 -1.6211
  183SLPC   H3S20987   4.269   1.740   9.804 -0.4083 -1.0857  0.3528
  183SLPC   C2420988   4.322   1.604   9.645  0.4703  0.2216  0.1875
  183SLPC   H4R20989   4.319   1.692   9.578 -0.6818  0.9671  1.1809
  183SLPC   H4S20990   4.221   1.558   9.644 -0.3703  2.0002 -0.0759
  183SLPC   C2520991   4.426   1.504   9.582 -0.7890 -0.6166  0.3441
  183SLPC   H5R20992   4.471   1.433   9.655  2.1612 -0.3887 -1.1208
  183SLPC   H5S20993   4.508   1.568   9.545 -2.6687  1.3486 -0.6431
  183SLPC   C2620994   4.370   1.412   9.476  0.3408 -0.3781 -0.1033
  183SLPC   H6R20995   4.330   1.474   9.393  1.3749  0.0043 -0.3244
  183SLPC   H6S20996   4.277   1.366   9.515 -0.8129  0.8635 -1.2748
  183SLPC   C2720997   4.471   1.318   9.420 -0.7463  0.7183 -0.3768
  183SLPC   H7R20998   4.514   1.252   9.498 -0.0475 -0.7661 -1.9699
  183SLPC   H7S20999   4.567   1.371   9.400  0.4609  0.3689  3.5660
  183SLPC   C2821000   4.423   1.229   9.303  0.0186  0.0854  0.2608
  183SLPC   H8R21001   4.374   1.292   9.226 -1.7402 -0.3143  1.0077
  183SLPC   H8S21002   4.338   1.162   9.330 -0.8399  0.4057 -1.4726
  183SLPC   C2921003   4.539   1.151   9.249 -0.7225  0.0882 -1.1832
  183SLPC   H9R21004   4.572   1.071   9.318 -1.8226 -0.3420 -1.1399
  183SLPC  C21021005   4.584   1.141   9.122  0.8038 -0.8354  0.1911
  183SLPC  H10R21006   4.671   1.080   9.095  0.7958 -0.3684 -0.9414
  183SLPC  C21121007   4.537   1.213   9.001 -0.2388  0.2831  0.7758
  183SLPC  H11R21008   4.430   1.241   9.014 -1.0324 -1.7531 -0.8225
  183SLPC  H11S21009   4.535   1.140   8.917 -1.5649  0.2309  0.8370
  183SLPC  C21221010   4.621   1.337   8.982 -0.5018  0.9931  0.2912
  183SLPC  H12R21011   4.636   1.389   9.078  1.3082 -0.1921  0.6884
  183SLPC  C21321012   4.664   1.388   8.863 -0.3185 -0.0192 -0.2761
  183SLPC  H13R21013   4.724   1.480   8.870  0.7148 -0.8028  2.0900
  183SLPC  C21421014   4.644   1.332   8.727 -0.4862  0.3542 -0.3368
  183SLPC  H14R21015   4.617   1.224   8.730  2.7704 -0.6238 -1.9547
  183SLPC  H14S21016   4.749   1.337   8.692  0.3818 -2.7413  1.4680
  183SLPC  C21521017   4.557   1.416   8.635 -0.0628  0.0818  0.5150
  183SLPC  H15R21018   4.562   1.369   8.535 -1.0214  1.3055 -0.1387
  183SLPC  H15S21019   4.587   1.522   8.622 -0.3789  0.2828  1.3493
  183SLPC  C21621020   4.404   1.414   8.655 -0.1827  0.9088  0.1749
  183SLPC  H16R21021   4.346   1.440   8.564 -0.6850 -0.9939 -0.0970
  183SLPC  H16S21022   4.368   1.491   8.726 -1.1118  3.7650 -3.1203
  183SLPC  C21721023   4.345   1.269   8.684  0.3549  0.2774  0.4421
  183SLPC  H17R21024   4.383   1.221   8.776  0.1383  1.1755  1.0129
  183SLPC  H17S21025   4.382   1.204   8.602  0.8645 -0.1775  1.0269
  183SLPC  C21821026   4.192   1.263   8.661 -0.6215 -0.4174 -0.0477
  183SLPC  H18R21027   4.170   1.305   8.561 -2.7943 -0.7913  0.2387
  183SLPC  H18S21028   4.142   1.315   8.745 -2.0125 -0.0984 -1.0397
  183SLPC  H18T21029   4.162   1.157   8.648 -1.1018 -0.2952  0.0497
  183SLPC   C3321030   4.831   1.607  10.196  0.2747  0.0597  0.0497
  183SLPC   H3X21031   4.942   1.602  10.188  0.3866 -1.4052  1.9049
  183SLPC   H3Y21032   4.809   1.706  10.241  0.0014 -0.5300  1.2328
  183SLPC   C3421033   4.785   1.620  10.041  0.3483  0.0060 -0.0471
  183SLPC   H4X21034   4.781   1.726  10.007  0.3696  0.2175  0.5944
  183SLPC   H4Y21035   4.677   1.594  10.042 -0.0292  1.3915  2.1166
  183SLPC   C3521036   4.887   1.551   9.953 -0.1640  0.3523  0.0646
  183SLPC   H5X21037   4.881   1.442   9.975 -1.7499  1.0355  3.8493
  183SLPC   H5Y21038   4.989   1.589   9.975 -0.0853  0.6232 -0.7530
  183SLPC   C3621039   4.856   1.583   9.801 -0.6411  0.1023 -0.2486
  183SLPC   H6X21040   4.829   1.690   9.795 -2.3594 -0.1863  1.3724
  183SLPC   H6Y21041   4.765   1.527   9.772  0.1175 -2.0637  1.2643
  183SLPC   C3721042   4.970   1.547   9.701  0.3675 -0.1268  0.3676
  183SLPC   H7X21043   4.976   1.436   9.704 -0.8946 -0.2247 -0.1802
  183SLPC   H7Y21044   5.065   1.595   9.733  1.5680 -0.9323 -1.7861
  183SLPC   C3821045   4.932   1.596   9.559 -1.0564 -0.3394 -0.0325
  183SLPC   H8X21046   5.028   1.609   9.504 -0.5690  1.1648  1.0748
  183SLPC   H8Y21047   4.886   1.697   9.567 -1.7481 -0.7082  0.8009
  183SLPC   C3921048   4.838   1.502   9.481  0.5720 -0.2815  0.0530
  183SLPC   H9X21049   4.761   1.464   9.552  0.2592  1.6819  0.8134
  183SLPC   H9Y21050   4.895   1.418   9.436 -0.0520 -0.6712 -0.0256
  183SLPC  C31021051   4.771   1.558   9.355  0.2956  0.1661  0.5885
  183SLPC  H10X21052   4.696   1.631   9.392  0.7023  0.9285 -0.0562
  183SLPC  H10Y21053   4.717   1.480   9.298  2.3179  0.5695 -2.0822
  183SLPC  C31121054   4.876   1.621   9.265 -0.5440 -0.0146  0.6698
  183SLPC  H11X21055   4.969   1.561   9.269  0.9536  2.1858  0.6193
  183SLPC  H11Y21056   4.911   1.715   9.312 -1.2945  0.6081  0.0137
  183SLPC  C31221057   4.848   1.619   9.111 -0.4727  0.2945  0.8046
  183SLPC  H12X21058   4.765   1.692   9.098 -1.5724 -0.7410  1.8060
  183SLPC  H12Y21059   4.812   1.523   9.069 -1.0756  1.2761 -1.0796
  183SLPC  C31321060   4.962   1.669   9.022 -0.1551 -0.8071  0.2490
  183SLPC  H13X21061   5.043   1.594   9.037 -0.5332 -0.7218  3.3300
  183SLPC  H13Y21062   4.988   1.768   9.064 -1.1873 -0.0366 -0.8741
  183SLPC  C31421063   4.929   1.685   8.872 -0.2728  0.4628 -0.0239
  183SLPC  H14X21064   4.828   1.731   8.862 -1.0264 -1.2478 -0.5479
  183SLPC  H14Y21065   4.920   1.587   8.821 -1.0103 -0.9163  2.5594
  183SLPC  C31521066   5.016   1.787   8.800 -0.2870  0.5776  0.2089
  183SLPC  H15X21067   5.063   1.862   8.868  1.0767  1.2492 -1.4145
  183SLPC  H15Y21068   4.966   1.842   8.718 -0.5671 -0.4361 -0.3134
  183SLPC  C31621069   5.131   1.710   8.739  0.1355 -0.3781 -0.2281
  183SLPC  H16X21070   5.079   1.635   8.675 -3.8186  1.2858  0.6979
  183SLPC  H16Y21071   5.186   1.655   8.818 -2.4669  1.4910  3.1466
  183SLPC  C31721072   5.224   1.801   8.669  0.1001 -0.4980 -0.1375
  183SLPC  H17X21073   5.257   1.883   8.737 -0.5309 -2.0094  2.0911
  183SLPC  H17Y21074   5.166   1.860   8.595  0.1902  2.9824  2.3290
  183SLPC  C31821075   5.337   1.731   8.594  0.4882  0.1609  0.1522
  183SLPC  H18X21076   5.404   1.681   8.667  1.6083  2.3620  0.6936
  183SLPC  H18Y21077   5.384   1.804   8.526 -2.2288  1.1989 -0.7533
  183SLPC  H18Z21078   5.286   1.650   8.538 -0.5815 -0.4526  1.8956
  184SLPC     N21079   2.175   5.274  10.978 -0.3332  1.0990 -0.9545
  184SLPC   C1321080   2.087   5.329  11.084 -0.4834  0.5039 -0.2182
  184SLPC  H13A21081   2.041   5.420  11.049  2.2065  1.4254 -1.6336
  184SLPC  H13B21082   2.014   5.254  11.111  0.3072 -0.0143  0.5490
  184SLPC  H13C21083   2.133   5.362  11.176  1.4396  2.1838 -1.6838
  184SLPC   C1421084   2.246   5.150  11.031  0.1532 -0.4384 -0.2173
  184SLPC  H14A21085   2.323   5.178  11.100 -1.2996 -0.7243  1.5967
  184SLPC  H14B21086   2.172   5.078  11.063 -0.3228 -0.0158 -0.3450
  184SLPC  H14C21087   2.293   5.101  10.947  2.3074 -2.0556  1.8154
  184SLPC   C1521088   2.282   5.373  10.951  0.3310 -0.1109 -0.5877
  184SLPC  H15A21089   2.365   5.322  10.904  0.0241 -1.1606 -0.0172
  184SLPC  H15B21090   2.248   5.448  10.882 -1.1677 -0.4768 -0.2713
  184SLPC  H15C21091   2.318   5.421  11.041 -2.2383  3.1388 -1.0958
  184SLPC   C1221092   2.096   5.232  10.856  0.6292  0.6257  0.9389
  184SLPC  H12A21093   2.053   5.320  10.809 -0.6436 -0.8731 -0.8505
  184SLPC  H12B21094   2.017   5.162  10.877  1.0567 -0.2569 -0.2633
  184SLPC   C1121095   2.170   5.152  10.734 -0.0295  0.7294 -0.2152
  184SLPC  H11A21096   2.266   5.204  10.711  1.5335 -2.3281 -1.1744
  184SLPC  H11B21097   2.094   5.149  10.653 -1.1276  1.1625  0.7786
  184SLPC     P21098   2.131   4.895  10.719  0.0052  0.2994  0.6576
  184SLPC   O1321099   2.201   4.770  10.752 -0.7881  0.1786  0.5658
  184SLPC   O1421100   1.997   4.914  10.774  0.6131  0.1345 -0.1428
  184SLPC   O1221101   2.216   5.017  10.767  0.2462 -0.3782  0.2215
  184SLPC   O1121102   2.124   4.916  10.568 -0.7095  0.1050  0.3437
  184SLPC    C121103   2.050   4.846  10.470  0.3518  0.6234  0.9329
  184SLPC    HA21104   2.029   4.742  10.503  0.3214  0.6007  0.8412
  184SLPC    HB21105   1.955   4.899  10.448 -0.3748 -0.9106  0.2645
  184SLPC    C221106   2.136   4.836  10.336 -0.5491  0.1301  0.0223
  184SLPC    HS21107   2.207   4.752  10.352 -2.7899 -2.1179 -1.1169
  184SLPC   O2121108   2.210   4.959  10.316  0.4810 -0.3213  0.0161
  184SLPC   C2121109   2.324   4.948  10.248  0.3654 -0.2509 -0.1340
  184SLPC   O2221110   2.389   4.851  10.230  0.2842  0.0626  0.4353
  184SLPC   C2221111   2.363   5.093  10.208 -0.7616  0.1789 -0.0710
  184SLPC   H2R21112   2.315   5.168  10.274 -0.3105  1.8073 -1.5174
  184SLPC   H2S21113   2.469   5.102  10.240 -0.4025 -1.2105 -0.7798
  184SLPC    C321114   2.041   4.790  10.222 -0.2613  0.4303  0.4685
  184SLPC    HX21115   1.945   4.845  10.226 -1.5772 -1.7093 -0.3678
  184SLPC    HY21116   2.021   4.682  10.238 -0.0370  0.5788  1.8085
  184SLPC   O3121117   2.105   4.816  10.096  0.3460 -0.1099  0.0896
  184SLPC   C3121118   2.051   4.748   9.991  0.5267  0.0154 -0.3041
  184SLPC   O3221119   1.956   4.675  10.001  0.4062 -0.2643  0.3472
  184SLPC   C3221120   2.129   4.799   9.866 -0.7843 -0.0784  1.4601
  184SLPC   H2X21121   2.207   4.723   9.841 -1.8942 -0.5553 -0.9081
  184SLPC   H2Y21122   2.175   4.897   9.889  1.0161 -0.0483 -1.7087
  184SLPC   C2321123   2.347   5.142  10.058 -0.4087 -0.1943 -1.3868
  184SLPC   H3R21124   2.358   5.253  10.053 -2.0525  0.1237  0.6942
  184SLPC   H3S21125   2.251   5.106  10.017 -0.1502 -0.7400 -1.5220
  184SLPC   C2421126   2.464   5.091   9.965 -0.5947  0.3406  0.2109
  184SLPC   H4R21127   2.465   4.980   9.962  3.4282  0.2432 -1.1164
  184SLPC   H4S21128   2.564   5.127   9.998  0.0143  0.7406 -1.8803
  184SLPC   C2521129   2.428   5.141   9.826  0.5964 -0.2421 -0.0538
  184SLPC   H5R21130   2.431   5.252   9.819 -0.8961  0.0886  2.8266
  184SLPC   H5S21131   2.326   5.102   9.804  0.6449 -1.1073  1.1322
  184SLPC   C2621132   2.531   5.075   9.726  0.7160 -0.1711 -0.0114
  184SLPC   H6R21133   2.514   4.965   9.729 -1.5478  0.0772 -1.0991
  184SLPC   H6S21134   2.635   5.100   9.756  0.2698 -0.4188  1.8110
  184SLPC   C2721135   2.497   5.116   9.577  0.2209 -0.0419  0.2381
  184SLPC   H7R21136   2.535   5.220   9.574 -1.6888  0.6999 -0.2183
  184SLPC   H7S21137   2.389   5.141   9.567  0.5514  1.7794  0.8780
  184SLPC   C2821138   2.550   5.027   9.461 -0.1538  0.3176 -0.6719
  184SLPC   H8R21139   2.505   5.052   9.363 -1.1035  1.8064  0.1093
  184SLPC   H8S21140   2.536   4.920   9.490  0.1446  0.3397 -0.4413
  184SLPC   C2921141   2.700   5.059   9.450  0.6948  0.6157  0.1293
  184SLPC   H9R21142   2.753   5.059   9.546  1.7890  0.0034 -0.4679
  184SLPC  C21021143   2.764   5.098   9.339 -0.1284  0.2384 -0.1985
  184SLPC  H10R21144   2.870   5.125   9.350  0.7846 -2.1237 -2.3787
  184SLPC  C21121145   2.717   5.107   9.199  0.2587 -0.1716  0.2369
  184SLPC  H11R21146   2.774   5.173   9.131  1.5308 -1.0379  0.4106
  184SLPC  H11S21147   2.616   5.153   9.196 -0.1676 -1.1738 -1.7154
  184SLPC  C21221148   2.729   4.963   9.159  0.2608  0.2134 -0.1852
  184SLPC  H12R21149   2.687   4.885   9.225 -1.2564  0.5746 -0.6806
  184SLPC  C21321150   2.787   4.916   9.050  0.0547  0.3449 -0.2123
  184SLPC  H13R21151   2.801   4.809   9.032 -2.3127  0.4133 -3.3231
  184SLPC  C21421152   2.849   5.004   8.944  0.0332  0.8487 -0.7004
  184SLPC  H14R21153   2.933   5.059   8.991  1.7532 -1.8570 -0.3797
  184SLPC  H14S21154   2.766   5.073   8.916 -1.9126 -1.0413  0.1506
  184SLPC  C21521155   2.915   4.938   8.830  0.9160 -0.4894  0.0180
  184SLPC  H15R21156   2.851   4.864   8.778 -0.7755  0.7269  0.2556
  184SLPC  H15S21157   3.006   4.887   8.869  1.1778 -0.0040  0.0468
  184SLPC  C21621158   2.960   5.031   8.723  0.4391  0.4537  0.7862
  184SLPC  H16R21159   3.022   5.111   8.769 -1.2347  1.5605  1.2164
  184SLPC  H16S21160   2.873   5.088   8.686  0.5786  0.4578  0.4591
  184SLPC  C21721161   3.026   4.967   8.597 -0.5613  0.3113  0.0481
  184SLPC  H17R21162   2.959   4.910   8.529  0.2880  1.8797 -2.2030
  184SLPC  H17S21163   3.097   4.891   8.633  0.2503  0.7966 -0.5017
  184SLPC  C21821164   3.096   5.073   8.510 -0.3484 -0.0588 -0.3637
  184SLPC  H18R21165   3.137   5.032   8.416 -0.4373  1.8100 -1.2575
  184SLPC  H18S21166   3.182   5.111   8.570  0.9236 -2.9330 -0.2033
  184SLPC  H18T21167   3.020   5.149   8.483 -1.5234 -0.6752  1.0565
  184SLPC   C3321168   2.034   4.816   9.747  0.3114 -0.0506 -0.3665
  184SLPC   H3X21169   1.966   4.896   9.782  1.4521  0.3840  0.9699
  184SLPC   H3Y21170   1.989   4.717   9.724  1.0300 -0.1977 -1.2194
  184SLPC   C3421171   2.103   4.867   9.622 -0.6814 -0.3546  0.1471
  184SLPC   H4X21172   2.154   4.777   9.582  0.8228  0.5281  0.0014
  184SLPC   H4Y21173   2.183   4.943   9.639 -0.0781 -0.9762  0.1392
  184SLPC   C3521174   2.011   4.935   9.522 -0.5615  0.3331 -0.1669
  184SLPC   H5X21175   2.029   5.045   9.518 -2.7682  0.7331 -0.4901
  184SLPC   H5Y21176   1.903   4.915   9.543 -0.6985 -0.8495 -1.8203
  184SLPC   C3621177   2.036   4.894   9.373 -0.3991  0.3671 -0.0563
  184SLPC   H6X21178   1.966   4.947   9.303 -0.2412  0.0799 -0.4347
  184SLPC   H6Y21179   2.020   4.785   9.376  0.9966 -0.0210 -2.9718
  184SLPC   C3721180   2.185   4.893   9.321  0.2817  0.2937  0.3846
  184SLPC   H7X21181   2.256   4.837   9.386  1.1976  2.4703  1.3566
  184SLPC   H7Y21182   2.221   4.998   9.321  0.4880  0.2367 -1.0609
  184SLPC   C3821183   2.194   4.830   9.183 -0.3833 -0.9523  0.0950
  184SLPC   H8X21184   2.143   4.889   9.104  0.4929  0.2898  0.4321
  184SLPC   H8Y21185   2.137   4.735   9.179 -2.0875  0.0122  0.2734
  184SLPC   C3921186   2.337   4.824   9.130  0.2522  0.1793  0.9035
  184SLPC   H9X21187   2.395   4.762   9.202  2.7700  0.9792 -0.3114
  184SLPC   H9Y21188   2.381   4.926   9.129 -1.3684  0.9633 -2.0626
  184SLPC  C31021189   2.338   4.772   8.986 -0.1476 -0.5248  0.0426
  184SLPC  H10X21190   2.274   4.838   8.924  1.0098  0.1178 -0.5006
  184SLPC  H10Y21191   2.279   4.678   8.983 -0.3910 -0.3570 -0.6083
  184SLPC  C31121192   2.482   4.749   8.942 -1.0078  0.0230 -0.0416
  184SLPC  H11X21193   2.530   4.694   9.025  0.1881  1.2946  0.1497
  184SLPC  H11Y21194   2.528   4.849   8.927  2.9076 -1.4237  1.1889
  184SLPC  C31221195   2.479   4.663   8.820  0.4513 -0.2295  0.1083
  184SLPC  H12X21196   2.411   4.710   8.746  0.7616  2.8374  1.6183
  184SLPC  H12Y21197   2.436   4.563   8.847  1.7327 -0.5237  1.1824
  184SLPC  C31321198   2.617   4.636   8.757 -0.2073 -0.1611  0.1665
  184SLPC  H13X21199   2.686   4.590   8.831  2.4014  3.2773  0.1107
  184SLPC  H13Y21200   2.667   4.731   8.730  0.7137 -0.5777  0.3631
  184SLPC  C31421201   2.612   4.539   8.634  0.0507  0.4038 -0.2037
  184SLPC  H14X21202   2.569   4.583   8.542 -1.7936  0.4979  0.6450
  184SLPC  H14Y21203   2.536   4.466   8.669 -0.3442  0.7810 -0.2618
  184SLPC  C31521204   2.752   4.475   8.616  0.2563  0.5403  0.3155
  184SLPC  H15X21205   2.729   4.382   8.560  0.2150  0.2304  0.8400
  184SLPC  H15Y21206   2.789   4.456   8.719  0.3903  2.2660  0.6110
  184SLPC  C31621207   2.840   4.576   8.547  0.0624  0.0141  0.5639
  184SLPC  H16X21208   2.848   4.668   8.610  0.9182  0.0677  0.3810
  184SLPC  H16Y21209   2.784   4.604   8.455 -2.7749 -0.7130  1.9399
  184SLPC  C31721210   2.970   4.520   8.503 -0.4875 -0.1565  0.4583
  184SLPC  H17X21211   2.961   4.428   8.441 -0.5400  0.1164  0.0601
  184SLPC  H17Y21212   3.015   4.474   8.594 -0.3291  0.7147  0.8345
  184SLPC  C31821213   3.053   4.626   8.434 -0.8640 -0.8724  1.0725
  184SLPC  H18X21214   3.000   4.649   8.340  0.4016 -1.4919  0.1807
  184SLPC  H18Y21215   3.147   4.574   8.405 -2.1332 -2.6685  0.0086
  184SLPC  H18Z21216   3.076   4.721   8.487  0.4905  0.2147 -1.3076
  185SLPC     N21217   5.109   1.554   5.854  0.6560  0.3748  0.1318
  185SLPC   C1321218   5.003   1.666   5.847 -0.3906  0.2439 -0.4373
  185SLPC  H13A21219   4.922   1.645   5.915  0.5141 -0.7102  0.3766
  185SLPC  H13B21220   5.061   1.754   5.875 -1.4101  0.7090  0.2877
  185SLPC  H13C21221   4.974   1.680   5.744  0.6718 -0.5371 -0.8560
  185SLPC   C1421222   5.218   1.583   5.752 -0.0662 -0.2913 -0.5259
  185SLPC  H14A21223   5.174   1.565   5.655  1.6915 -0.3884 -1.3467
  185SLPC  H14B21224   5.257   1.683   5.744  0.7767 -0.4755  0.8251
  185SLPC  H14C21225   5.306   1.520   5.753 -1.4698 -2.3808 -1.6890
  185SLPC   C1521226   5.050   1.420   5.802  0.3685  0.0541  0.4584
  185SLPC  H15A21227   5.123   1.343   5.824  1.5999  0.7877 -0.8463
  185SLPC  H15B21228   4.952   1.406   5.845  0.7847  0.0804  1.4445
  185SLPC  H15C21229   5.033   1.430   5.696  0.1146 -1.8396  0.2949
  185SLPC   C1221230   5.168   1.537   5.992  0.0883 -0.4546 -0.0255
  185SLPC  H12A21231   5.226   1.626   6.011 -1.8400  0.8481  0.0356
  185SLPC  H12B21232   5.230   1.449   5.987  1.3910  0.3087  1.7725
  185SLPC   C1121233   5.069   1.513   6.116  0.1250  0.4203 -0.2975
  185SLPC  H11A21234   5.003   1.603   6.120 -1.4848 -0.7243 -0.1995
  185SLPC  H11B21235   5.125   1.506   6.211 -2.0863  2.0573  1.2366
  185SLPC     P21236   4.952   1.284   6.198 -0.1980 -0.6251  0.2185
  185SLPC   O1321237   4.861   1.192   6.136 -0.5038  0.5874  1.0618
  185SLPC   O1421238   5.081   1.233   6.252 -0.0468 -0.6425  0.8354
  185SLPC   O1221239   4.986   1.404   6.094  0.1965  0.7894  0.0367
  185SLPC   O1121240   4.885   1.366   6.310  0.3016 -0.0570  0.2216
  185SLPC    C121241   4.748   1.409   6.320  0.3828 -1.3958 -0.2394
  185SLPC    HA21242   4.741   1.508   6.270  0.7161 -0.6917  1.0683
  185SLPC    HB21243   4.682   1.336   6.267  0.5699  0.5574 -3.4411
  185SLPC    C221244   4.686   1.420   6.460  0.2637 -0.3729 -0.4059
  185SLPC    HS21245   4.578   1.446   6.454  0.0308 -1.6855 -2.7696
  185SLPC   O2121246   4.754   1.515   6.538  0.0012 -0.2412  0.1727
  185SLPC   C2121247   4.744   1.638   6.507  0.1477 -0.1664 -0.0992
  185SLPC   O2221248   4.687   1.687   6.409  0.3676 -0.2135  0.0072
  185SLPC   C2221249   4.789   1.726   6.623  0.5797 -0.6033  0.7617
  185SLPC   H2R21250   4.878   1.780   6.583 -0.3706  0.2676 -0.2495
  185SLPC   H2S21251   4.715   1.807   6.636 -1.7555 -2.7666  1.5999
  185SLPC    C321252   4.708   1.289   6.536 -0.3379  0.3381  1.0814
  185SLPC    HX21253   4.815   1.266   6.559  0.1258 -1.5255 -2.3034
  185SLPC    HY21254   4.678   1.205   6.472  0.1028  0.6653  0.4300
  185SLPC   O3121255   4.632   1.291   6.661  0.8486 -0.3879 -0.1482
  185SLPC   C3121256   4.700   1.292   6.781  0.5076 -0.1342  1.0011
  185SLPC   O3221257   4.819   1.305   6.797  0.2501 -0.3918  0.2671
  185SLPC   C3221258   4.600   1.282   6.897 -0.3836  0.3191  0.1150
  185SLPC   H2X21259   4.547   1.185   6.892  0.1662  0.0421 -0.4718
  185SLPC   H2Y21260   4.525   1.363   6.884  0.8760  1.5419  0.0984
  185SLPC   C2321261   4.809   1.658   6.757 -0.0772  0.2156  0.1886
  185SLPC   H3R21262   4.882   1.576   6.737 -0.4720  0.5285 -2.9928
  185SLPC   H3S21263   4.712   1.617   6.792  1.0201 -1.1552  1.7845
  185SLPC   C2421264   4.874   1.740   6.867 -0.0511 -0.4677 -0.0185
  185SLPC   H4R21265   4.815   1.825   6.907 -0.0169 -1.4662  2.2859
  185SLPC   H4S21266   4.972   1.779   6.832  0.2403 -1.9252 -0.9292
  185SLPC   C2521267   4.909   1.656   6.993 -0.3357  0.2803 -0.3695
  185SLPC   H5R21268   4.964   1.564   6.962 -1.1196 -0.0176 -0.8965
  185SLPC   H5S21269   4.811   1.627   7.036  0.1121 -0.8804 -0.0801
  185SLPC   C2621270   4.999   1.731   7.102  0.0997 -0.3778  0.0423
  185SLPC   H6R21271   5.078   1.793   7.054 -3.4114  3.7120 -1.0889
  185SLPC   H6S21272   5.039   1.646   7.162  1.3425  0.2999  0.2072
  185SLPC   C2721273   4.923   1.834   7.187  0.2615  0.6466 -0.1001
  185SLPC   H7R21274   4.853   1.784   7.257 -0.1520 -0.1047 -1.0161
  185SLPC   H7S21275   4.860   1.888   7.113  0.4026 -1.5892 -1.9785
  185SLPC   C2821276   5.031   1.923   7.260  0.5022  0.5275  0.1695
  185SLPC   H8R21277   5.057   1.993   7.178 -1.1493  0.5423 -0.3912
  185SLPC   H8S21278   5.107   1.855   7.305  0.2487 -0.5055 -0.9031
  185SLPC   C2921279   4.945   2.013   7.350  0.0896 -0.6246 -0.2490
  185SLPC   H9R21280   4.873   2.085   7.308  1.2914  0.9372  0.3175
  185SLPC  C21021281   4.954   2.029   7.486 -0.4066  0.5178  0.1061
  185SLPC  H10R21282   4.893   2.106   7.534 -0.1561 -0.5526  2.2791
  185SLPC  C21121283   5.053   1.951   7.573 -0.0996  0.4563  0.4367
  185SLPC  H11R21284   5.147   2.010   7.567 -0.3775  0.8689  0.0348
  185SLPC  H11S21285   5.072   1.854   7.522 -0.3624 -1.4042  3.6090
  185SLPC  C21221286   4.984   1.930   7.709 -0.5177  0.0559  0.1638
  185SLPC  H12R21287   4.927   1.836   7.702 -1.1925  0.5651 -1.5384
  185SLPC  C21321288   4.977   2.010   7.818  0.0768 -0.5390  1.1654
  185SLPC  H13R21289   4.928   1.981   7.912 -1.8348  0.3117  0.4729
  185SLPC  C21421290   5.033   2.150   7.820 -0.9874  0.1295  0.5234
  185SLPC  H14R21291   4.960   2.214   7.766 -1.0213  0.0609  0.4875
  185SLPC  H14S21292   5.129   2.164   7.767 -0.8502  1.9364  1.1987
  185SLPC  C21521293   5.056   2.201   7.967  0.0257  0.0750 -0.4555
  185SLPC  H15R21294   5.120   2.292   7.970 -0.3703  0.3690 -0.9253
  185SLPC  H15S21295   5.124   2.121   8.005 -2.3307 -2.2459 -0.8459
  185SLPC  C21621296   4.930   2.233   8.056 -0.9403 -0.0753  0.2529
  185SLPC  H16R21297   4.868   2.142   8.072 -1.1039 -0.2097 -1.0576
  185SLPC  H16S21298   4.862   2.302   8.001 -1.4169  1.0975  2.2177
  185SLPC  C21721299   4.963   2.302   8.188 -1.1392 -0.3629 -0.3409
  185SLPC  H17R21300   5.011   2.401   8.181  0.8097 -1.2678 -0.4215
  185SLPC  H17S21301   5.043   2.245   8.241 -0.0470  1.3113 -0.1044
  185SLPC  C21821302   4.844   2.320   8.280  0.2388  0.6316 -0.4543
  185SLPC  H18R21303   4.876   2.349   8.382 -2.7580  1.5555  0.3256
  185SLPC  H18S21304   4.799   2.218   8.280  1.4442  0.0781 -0.4672
  185SLPC  H18T21305   4.782   2.402   8.240  1.6512  3.5170  2.7228
  185SLPC   C3321306   4.661   1.292   7.033  0.1847  0.7667 -0.1759
  185SLPC   H3X21307   4.709   1.390   7.055 -0.3816  1.0713 -0.2755
  185SLPC   H3Y21308   4.735   1.211   7.048 -1.3660 -0.3297  2.3539
  185SLPC   C3421309   4.553   1.273   7.147 -0.3075  0.0211  0.6256
  185SLPC   H4X21310   4.517   1.168   7.144  0.6905 -0.4393  2.9125
  185SLPC   H4Y21311   4.463   1.337   7.137 -1.1049 -1.1194  0.3454
  185SLPC   C3521312   4.599   1.295   7.290 -0.5669 -0.1372  0.8468
  185SLPC   H5X21313   4.646   1.395   7.296 -1.8908  0.5758 -0.2536
  185SLPC   H5Y21314   4.680   1.222   7.313  1.0048  0.9672 -0.9508
  185SLPC   C3621315   4.486   1.287   7.393 -0.6187 -0.9339 -0.8456
  185SLPC   H6X21316   4.438   1.190   7.368 -1.8516 -0.3123 -0.9616
  185SLPC   H6Y21317   4.412   1.366   7.368  1.3728  1.2131 -0.3814
  185SLPC   C3721318   4.536   1.296   7.536 -0.4142 -0.5304 -0.5027
  185SLPC   H7X21319   4.589   1.392   7.557 -1.5495 -0.0837  0.3897
  185SLPC   H7Y21320   4.606   1.213   7.560 -0.6799  0.3280  4.0171
  185SLPC   C3821321   4.426   1.282   7.636  0.7794  0.2183 -0.1450
  185SLPC   H8X21322   4.447   1.219   7.725  0.8561  2.1629  1.2533
  185SLPC   H8Y21323   4.341   1.218   7.603  0.6158 -0.3555  1.3288
  185SLPC   C3921324   4.368   1.410   7.688 -0.2451 -0.0677 -0.0167
  185SLPC   H9X21325   4.341   1.460   7.593  1.0216 -0.1738 -0.4625
  185SLPC   H9Y21326   4.446   1.471   7.739 -0.2501  0.0121 -0.1058
  185SLPC  C31021327   4.247   1.391   7.776  0.1007  0.5073  0.3144
  185SLPC  H10X21328   4.294   1.370   7.875 -0.7515 -2.2931  0.2294
  185SLPC  H10Y21329   4.190   1.301   7.743 -1.7817  1.9360 -0.5601
  185SLPC  C31121330   4.161   1.514   7.788 -0.7467 -0.1804 -0.2100
  185SLPC  H11X21331   4.140   1.542   7.682  3.9155 -0.2483 -1.3495
  185SLPC  H11Y21332   4.227   1.596   7.824 -1.0447  0.1761 -0.4620
  185SLPC  C31221333   4.037   1.492   7.877  0.3551  0.2746 -0.3814
  185SLPC  H12X21334   3.964   1.420   7.834 -0.5712  1.1538 -0.2998
  185SLPC  H12Y21335   3.986   1.590   7.879 -1.7144 -0.7162 -1.2242
  185SLPC  C31321336   4.070   1.446   8.023 -0.9137  0.0015 -0.2806
  185SLPC  H13X21337   4.156   1.496   8.072  0.5626 -1.2800 -1.4746
  185SLPC  H13Y21338   4.091   1.338   8.008  2.0570  0.4325  0.2204
  185SLPC  C31421339   3.946   1.467   8.115 -0.4557 -0.3614  0.0440
  185SLPC  H14X21340   3.854   1.436   8.062  0.4925 -0.3565 -1.6789
  185SLPC  H14Y21341   3.938   1.576   8.136  1.6405 -0.1176 -0.2121
  185SLPC  C31521342   3.961   1.380   8.239 -0.5097 -0.1502 -0.2917
  185SLPC  H15X21343   4.036   1.422   8.309 -0.9015 -2.6220  1.8004
  185SLPC  H15Y21344   3.994   1.278   8.208 -0.1810 -0.3894  0.7966
  185SLPC  C31621345   3.831   1.360   8.325 -0.1289 -0.2882 -0.0652
  185SLPC  H16X21346   3.748   1.315   8.266 -0.0578  1.7989 -1.8566
  185SLPC  H16Y21347   3.798   1.459   8.363  1.8690 -0.3046  1.9543
  185SLPC  C31721348   3.847   1.294   8.463 -0.9725 -0.5807 -0.0008
  185SLPC  H17X21349   3.921   1.359   8.514  0.0372 -1.6922  0.0058
  185SLPC  H17Y21350   3.908   1.203   8.444 -0.9462 -0.5407 -0.1108
  185SLPC  C31821351   3.722   1.279   8.536  1.1557  0.4037 -0.3515
  185SLPC  H18X21352   3.654   1.207   8.486 -1.8591  1.8350  1.3764
  185SLPC  H18Y21353   3.660   1.371   8.549 -0.9691 -0.9126 -0.7922
  185SLPC  H18Z21354   3.739   1.246   8.641 -0.5839 -1.5224 -0.6147
  186SLPC     N21355   6.664   0.629   6.010 -0.4811  0.4939  0.2175
  186SLPC   C1321356   6.617   0.765   5.973 -0.3402 -0.1644  0.3777
  186SLPC  H13A21357   6.513   0.778   5.997 -0.5756  0.8385 -1.0705
  186SLPC  H13B21358   6.683   0.834   6.024 -0.6171 -2.2434  3.8382
  186SLPC  H13C21359   6.641   0.778   5.869  1.3671  0.2052  0.7860
  186SLPC   C1421360   6.802   0.600   5.954 -0.2662 -0.0120  0.1278
  186SLPC  H14A21361   6.806   0.594   5.846 -0.6687 -0.6692  0.1461
  186SLPC  H14B21362   6.869   0.679   5.983  0.5633 -0.1689 -1.2843
  186SLPC  H14C21363   6.848   0.512   5.997 -0.6639  0.5939  1.9033
  186SLPC   C1521364   6.573   0.526   5.953 -0.2600  0.6856  0.7005
  186SLPC  H15A21365   6.470   0.553   5.973 -1.1790 -1.9473 -0.0679
  186SLPC  H15B21366   6.579   0.515   5.846  0.0001  2.4811  0.4918
  186SLPC  H15C21367   6.591   0.429   5.996  0.6387  2.4886  4.8522
  186SLPC   C1221368   6.668   0.612   6.163  0.2614  0.2530  0.4155
  186SLPC  H12A21369   6.679   0.507   6.183  0.9377 -0.4065 -2.8206
  186SLPC  H12B21370   6.571   0.637   6.204  0.3512 -1.2594  1.6409
  186SLPC   C1121371   6.777   0.685   6.248 -0.1676  0.0798  0.1272
  186SLPC  H11A21372   6.880   0.643   6.249 -0.6218 -1.0945 -0.2820
  186SLPC  H11B21373   6.736   0.660   6.349 -2.0782 -1.4610 -0.9560
  186SLPC     P21374   6.889   0.916   6.217 -0.2767  0.0594  0.2540
  186SLPC   O1321375   6.996   0.846   6.137  0.5192 -0.5305  0.4970
  186SLPC   O1421376   6.853   1.050   6.175 -0.5754 -0.4778 -0.0939
  186SLPC   O1221377   6.763   0.830   6.232 -0.1821 -0.4927  0.5354
  186SLPC   O1121378   6.947   0.932   6.368 -0.2406  0.1447  0.5507
  186SLPC    C121379   6.856   0.938   6.477  0.2391  0.4098  0.6027
  186SLPC    HA21380   6.785   1.023   6.467 -0.0517  0.3117  1.7136
  186SLPC    HB21381   6.786   0.853   6.486  1.0508 -0.5721 -1.6940
  186SLPC    C221382   6.933   0.939   6.610  0.3002 -0.0583  0.1983
  186SLPC    HS21383   6.876   0.882   6.685  0.7063 -0.8860 -0.1125
  186SLPC   O2121384   6.949   1.070   6.666  0.3429  0.1973 -0.2897
  186SLPC   C2121385   6.832   1.125   6.714 -0.2366  0.7013 -0.2252
  186SLPC   O2221386   6.722   1.073   6.713 -0.7226 -0.5062 -0.0174
  186SLPC   C2221387   6.861   1.261   6.779 -0.3617  0.0582  0.9483
  186SLPC   H2R21388   6.864   1.337   6.697 -2.7894  0.9871  1.6202
  186SLPC   H2S21389   6.775   1.287   6.844 -1.4386  1.2020 -0.8533
  186SLPC    C321390   7.066   0.866   6.609 -0.2536  0.6144  0.0316
  186SLPC    HX21391   7.133   0.928   6.546  1.8383 -1.7935 -0.2592
  186SLPC    HY21392   7.051   0.764   6.568 -2.3114  0.9958 -0.2818
  186SLPC   O3121393   7.134   0.868   6.741 -0.0954  0.0771  0.3592
  186SLPC   C3121394   7.091   0.773   6.829  0.7255 -0.1520  0.1936
  186SLPC   O3221395   7.037   0.669   6.793 -0.0133 -0.7723 -0.6136
  186SLPC   C3221396   7.130   0.814   6.972  0.5606 -0.8677  0.1293
  186SLPC   H2X21397   7.187   0.909   6.965  1.1432 -1.2688 -0.8388
  186SLPC   H2Y21398   7.207   0.742   7.006  2.5836  0.7992 -0.6970
  186SLPC   C2321399   6.994   1.258   6.857 -0.5621  0.0580 -0.0358
  186SLPC   H3R21400   7.020   1.354   6.905 -0.3391  0.8215 -1.6323
  186SLPC   H3S21401   7.078   1.238   6.787  1.0370 -1.7947  2.2246
  186SLPC   C2421402   6.987   1.167   6.982  0.2816 -0.6864  0.1430
  186SLPC   H4R21403   7.080   1.158   7.042 -1.1200  1.5682  2.8587
  186SLPC   H4S21404   6.951   1.063   6.966  1.2133 -1.0353  0.2582
  186SLPC   C2521405   6.881   1.234   7.074  0.5064 -0.1909  0.1526
  186SLPC   H5R21406   6.779   1.228   7.031  0.3642  0.5350  0.3853
  186SLPC   H5S21407   6.921   1.337   7.076 -0.6422  0.2988 -1.0323
  186SLPC   C2621408   6.862   1.167   7.217 -0.2112  0.2775 -0.0941
  186SLPC   H6R21409   6.959   1.175   7.270  0.2067  0.3601 -0.8647
  186SLPC   H6S21410   6.835   1.061   7.198  0.5779  0.3876 -2.1006
  186SLPC   C2721411   6.759   1.223   7.305  0.9915 -0.2294 -0.5770
  186SLPC   H7R21412   6.661   1.212   7.254  1.5130 -2.0430 -1.2616
  186SLPC   H7S21413   6.780   1.332   7.321  0.5402 -0.0404 -1.2554
  186SLPC   C2821414   6.757   1.169   7.447  0.3417 -0.2754 -0.0225
  186SLPC   H8R21415   6.853   1.201   7.493 -0.1867 -0.5430  1.3234
  186SLPC   H8S21416   6.751   1.059   7.455  1.6904 -0.2798  1.3955
  186SLPC   C2921417   6.631   1.226   7.512 -0.4107  0.1244  0.9549
  186SLPC   H9R21418   6.535   1.184   7.478  0.4718 -0.4110 -1.0181
  186SLPC  C21021419   6.629   1.326   7.598 -0.1901  0.3491  0.3772
  186SLPC  H10R21420   6.536   1.380   7.621 -0.5076  0.9469 -2.0455
  186SLPC  C21121421   6.756   1.390   7.654  1.0226  0.2975  0.1506
  186SLPC  H11R21422   6.842   1.401   7.586  0.6394  1.5922 -0.1504
  186SLPC  H11S21423   6.787   1.335   7.746 -0.2482 -0.3448  0.2222
  186SLPC  C21221424   6.728   1.527   7.697  0.1545  0.1439 -0.0487
  186SLPC  H12R21425   6.747   1.601   7.617  0.8884  0.0322  0.0214
  186SLPC  C21321426   6.687   1.577   7.819  0.3794  0.0670  0.1558
  186SLPC  H13R21427   6.667   1.684   7.840  0.2306 -0.3049  2.0599
  186SLPC  C21421428   6.648   1.486   7.929 -0.8373  0.4482  0.1300
  186SLPC  H14R21429   6.722   1.498   8.011  0.0079 -0.5218 -0.4725
  186SLPC  H14S21430   6.650   1.377   7.906  0.7037  0.3214  0.7658
  186SLPC  C21521431   6.502   1.510   7.973  0.5001 -0.2116 -0.4092
  186SLPC  H15R21432   6.436   1.502   7.884  0.4823 -0.0318 -0.4125
  186SLPC  H15S21433   6.463   1.610   8.000  0.4278 -0.5829  0.9391
  186SLPC  C21621434   6.443   1.398   8.077  0.2191  0.2465  0.2993
  186SLPC  H16R21435   6.482   1.418   8.179  1.1988  0.3147 -0.0804
  186SLPC  H16S21436   6.467   1.294   8.043 -5.0266 -1.1328 -0.1299
  186SLPC  C21721437   6.296   1.405   8.079 -0.0730 -0.2252  0.0782
  186SLPC  H17R21438   6.254   1.394   7.977 -1.4558 -2.9734  0.8389
  186SLPC  H17S21439   6.274   1.506   8.120 -2.0109 -0.8202  0.6358
  186SLPC  C21821440   6.237   1.309   8.173 -0.4669 -0.2001  0.0817
  186SLPC  H18R21441   6.296   1.293   8.266 -1.2040  0.2322  0.6338
  186SLPC  H18S21442   6.213   1.212   8.125  0.7298  1.0750 -3.4316
  186SLPC  H18T21443   6.143   1.358   8.208 -0.6863 -2.1069  2.4205
  186SLPC   C3321444   7.012   0.807   7.078  0.2750 -0.2993  0.9056
  186SLPC   H3X21445   6.962   0.708   7.070 -1.1864  0.5278 -1.8180
  186SLPC   H3Y21446   6.927   0.877   7.063 -0.0515 -0.6311  1.1882
  186SLPC   C3421447   7.052   0.833   7.226  0.0579 -0.1052  0.0933
  186SLPC   H4X21448   7.106   0.929   7.235  0.5370 -0.4498  0.9526
  186SLPC   H4Y21449   7.126   0.752   7.238 -0.8010 -1.1206 -1.2128
  186SLPC   C3521450   6.943   0.805   7.327  0.4425 -0.8679 -1.4059
  186SLPC   H5X21451   6.914   0.698   7.316  0.0572 -0.8743 -0.3572
  186SLPC   H5Y21452   6.850   0.863   7.306  0.3994 -0.5589 -0.3869
  186SLPC   C3621453   6.989   0.822   7.472  0.0186  0.2902  0.2450
  186SLPC   H6X21454   7.035   0.922   7.491  2.1302 -0.8007  1.3521
  186SLPC   H6Y21455   7.065   0.742   7.485  2.0814  2.1955  0.7200
  186SLPC   C3721456   6.882   0.783   7.568 -0.3222 -0.4116 -0.2077
  186SLPC   H7X21457   6.850   0.677   7.559 -0.8625 -0.1477 -1.8156
  186SLPC   H7Y21458   6.788   0.836   7.541 -0.5509 -0.8307 -0.2399
  186SLPC   C3821459   6.906   0.820   7.717 -0.5193 -0.5977  0.3186
  186SLPC   H8X21460   7.007   0.779   7.738 -0.1470  1.5589  3.4256
  186SLPC   H8Y21461   6.826   0.767   7.774 -1.4516  0.2534 -0.1631
  186SLPC   C3921462   6.895   0.974   7.742  0.4470 -0.1271  0.4526
  186SLPC   H9X21463   6.828   1.031   7.674 -1.9705 -1.2923  1.7499
  186SLPC   H9Y21464   6.994   1.013   7.709  0.5546 -1.0360 -0.3655
  186SLPC  C31021465   6.857   1.009   7.885  0.3079 -0.2814  0.1106
  186SLPC  H10X21466   6.929   1.083   7.927 -0.9413 -0.9746  3.7589
  186SLPC  H10Y21467   6.874   0.917   7.944  2.8827  0.9406  1.4634
  186SLPC  C31121468   6.708   1.049   7.901 -0.7824 -0.1810  0.2814
  186SLPC  H11X21469   6.652   0.974   7.840 -1.3782  0.1319  0.4391
  186SLPC  H11Y21470   6.691   1.142   7.843 -2.2676 -0.5330  0.0899
  186SLPC  C31221471   6.654   1.057   8.046  0.5094 -0.3172 -0.1145
  186SLPC  H12X21472   6.659   0.952   8.082  1.5619 -0.9563 -1.9880
  186SLPC  H12Y21473   6.546   1.079   8.035  0.1937 -1.7299 -0.0952
  186SLPC  C31321474   6.723   1.145   8.141  0.1007 -0.3929 -0.5189
  186SLPC  H13X21475   6.727   1.247   8.097  3.0617  1.2905  3.1497
  186SLPC  H13Y21476   6.829   1.120   8.162 -0.2307 -1.7154 -0.3245
  186SLPC  C31421477   6.650   1.143   8.277 -0.9803 -0.2683 -0.2905
  186SLPC  H14X21478   6.657   1.036   8.307 -1.1888 -0.2155 -0.0425
  186SLPC  H14Y21479   6.542   1.164   8.268 -0.4491  2.6391 -0.9096
  186SLPC  C31521480   6.708   1.252   8.374  0.2234 -0.7074  0.0342
  186SLPC  H15X21481   6.714   1.345   8.314  0.7413  0.0842  1.2776
  186SLPC  H15Y21482   6.812   1.231   8.406  1.0171  1.6218 -0.8560
  186SLPC  C31621483   6.611   1.263   8.496 -0.2460  0.5166  0.5781
  186SLPC  H16X21484   6.601   1.156   8.524  0.3147  0.1056 -0.6936
  186SLPC  H16Y21485   6.515   1.303   8.457 -0.4310 -1.4056 -1.1077
  186SLPC  C31721486   6.666   1.329   8.621 -0.6268 -0.1166 -0.3552
  186SLPC  H17X21487   6.704   1.432   8.601 -1.0516  0.8380  3.0427
  186SLPC  H17Y21488   6.750   1.261   8.647  0.5506  0.2193 -2.9324
  186SLPC  C31821489   6.563   1.332   8.729  0.1299 -0.2472 -0.1618
  186SLPC  H18X21490   6.541   1.228   8.762  0.9229 -0.6162 -0.7612
  186SLPC  H18Y21491   6.467   1.377   8.694  0.4894 -0.3634 -1.3437
  186SLPC  H18Z21492   6.597   1.392   8.816  1.8393  0.4598 -1.2562
  187SLPC     N21493   1.811   6.824   6.314 -0.6808 -1.0193  0.3002
  187SLPC   C1321494   1.918   6.720   6.314 -0.2992 -0.0615 -0.1176
  187SLPC  H13A21495   1.947   6.698   6.416  0.9131  1.2206 -0.1503
  187SLPC  H13B21496   1.882   6.635   6.258 -1.3039  0.7724 -0.7629
  187SLPC  H13C21497   2.007   6.758   6.265  1.1374 -0.1388  2.2440
  187SLPC   C1421498   1.686   6.769   6.375 -0.0533  0.2667  0.2554
  187SLPC  H14A21499   1.591   6.819   6.360 -0.3545 -0.6520 -1.0303
  187SLPC  H14B21500   1.665   6.672   6.333 -2.4277  1.5453 -1.8161
  187SLPC  H14C21501   1.700   6.743   6.479  0.4334  0.7547  0.3171
  187SLPC   C1521502   1.782   6.852   6.173 -0.1560  0.6451  0.0855
  187SLPC  H15A21503   1.870   6.894   6.126 -0.5727  1.4003 -0.0414
  187SLPC  H15B21504   1.758   6.758   6.125 -0.9125  0.8844 -0.0147
  187SLPC  H15C21505   1.691   6.910   6.164 -0.3423  0.7174  1.9929
  187SLPC   C1221506   1.856   6.948   6.386  0.0643 -0.3205  0.6086
  187SLPC  H12A21507   1.957   6.969   6.356  0.0545 -0.0079  0.7873
  187SLPC  H12B21508   1.862   6.930   6.492 -2.1579  3.8553  1.6958
  187SLPC   C1121509   1.769   7.074   6.364 -0.2739  0.5395 -0.5300
  187SLPC  H11A21510   1.784   7.152   6.442  2.1299 -1.0424  0.7453
  187SLPC  H11B21511   1.664   7.049   6.392  0.7397 -0.3824  3.0567
  187SLPC     P21512   1.921   7.189   6.189 -0.4337  0.4982 -0.6872
  187SLPC   O1321513   2.026   7.084   6.212 -0.2857 -0.6214 -0.1139
  187SLPC   O1421514   1.910   7.244   6.052  0.2730  0.3247 -0.0745
  187SLPC   O1221515   1.772   7.141   6.233  0.1667  0.1727 -0.0364
  187SLPC   O1121516   1.948   7.302   6.295 -0.2099 -0.1751  0.7898
  187SLPC    C121517   1.970   7.444   6.249  0.6398  0.7464 -0.0271
  187SLPC    HA21518   2.062   7.453   6.188  0.9848 -1.1231  0.1708
  187SLPC    HB21519   1.885   7.483   6.189  0.6849  1.2144  0.2098
  187SLPC    C221520   1.973   7.528   6.373 -0.4031 -0.1013  0.5550
  187SLPC    HS21521   1.967   7.635   6.343 -1.4182 -0.1447  0.5772
  187SLPC   O2121522   2.098   7.504   6.443  0.0614  0.0297 -0.5038
  187SLPC   C2121523   2.139   7.607   6.518 -0.1048 -0.1929 -0.5242
  187SLPC   O2221524   2.093   7.719   6.517 -0.7626  0.6470 -0.3932
  187SLPC   C2221525   2.272   7.561   6.581  0.2570 -0.3793  0.1920
  187SLPC   H2R21526   2.285   7.451   6.579 -3.2962 -1.0096  2.2649
  187SLPC   H2S21527   2.357   7.607   6.526  0.0070  1.7063  1.4315
  187SLPC    C321528   1.842   7.503   6.458 -0.0702  0.7787 -0.0552
  187SLPC    HX21529   1.817   7.394   6.462 -1.0324  1.0186  1.3538
  187SLPC    HY21530   1.761   7.556   6.405  0.7472  1.6962 -0.4150
  187SLPC   O3121531   1.861   7.553   6.592 -0.0893 -0.2511  0.2033
  187SLPC   C3121532   1.800   7.660   6.636 -0.0354 -0.0263  0.4619
  187SLPC   O3221533   1.733   7.737   6.567  0.1031 -0.4172 -0.5803
  187SLPC   C3221534   1.842   7.680   6.783 -0.0509 -0.2024  0.9349
  187SLPC   H2X21535   1.915   7.764   6.791  0.8369 -0.9603  1.0037
  187SLPC   H2Y21536   1.873   7.583   6.827  1.3858  0.4918  1.5412
  187SLPC   C2321537   2.275   7.603   6.732 -0.0731  0.1102  0.5251
  187SLPC   H3R21538   2.242   7.708   6.745  0.3862  0.3234  0.0193
  187SLPC   H3S21539   2.380   7.600   6.767 -0.0540  0.3823  0.4885
  187SLPC   C2421540   2.200   7.509   6.819 -0.5050  0.1342 -0.7356
  187SLPC   H4R21541   2.228   7.402   6.802  1.2539  0.5167 -0.5031
  187SLPC   H4S21542   2.093   7.513   6.793 -0.4619 -0.2453 -0.9799
  187SLPC   C2521543   2.225   7.535   6.974 -0.0090  0.4132 -0.2246
  187SLPC   H5R21544   2.333   7.535   6.997  0.4128 -1.4558 -1.8690
  187SLPC   H5S21545   2.189   7.446   7.030  0.1001  0.5899  0.1268
  187SLPC   C2621546   2.176   7.672   7.021 -0.3193 -0.2733  0.3801
  187SLPC   H6R21547   2.067   7.673   7.042  0.0726  2.2238  2.9937
  187SLPC   H6S21548   2.197   7.742   6.937 -1.4155 -3.5214 -2.8724
  187SLPC   C2721549   2.244   7.714   7.157 -0.1610 -0.1680 -0.0946
  187SLPC   H7R21550   2.216   7.819   7.178 -1.5546 -0.3869 -0.7418
  187SLPC   H7S21551   2.351   7.700   7.129  0.1230 -0.3089  1.0143
  187SLPC   C2821552   2.203   7.614   7.263  0.4163  0.5311 -0.1672
  187SLPC   H8R21553   2.222   7.509   7.234  1.4970  0.4248  0.8495
  187SLPC   H8S21554   2.092   7.617   7.264  0.3194 -1.2441  2.2080
  187SLPC   C2921555   2.271   7.665   7.386 -0.0865  0.0048  0.2759
  187SLPC   H9R21556   2.374   7.702   7.375 -0.7762  2.2051  0.7576
  187SLPC  C21021557   2.214   7.681   7.507  0.3495  0.6111 -0.5639
  187SLPC  H10R21558   2.275   7.710   7.594 -0.5512  1.2798 -0.1409
  187SLPC  C21121559   2.071   7.641   7.540  0.2370  1.1201 -0.1814
  187SLPC  H11R21560   2.065   7.589   7.639 -1.8231 -0.5351 -1.0931
  187SLPC  H11S21561   2.037   7.566   7.466  1.5015 -0.1607  0.4604
  187SLPC  C21221562   1.983   7.765   7.544  0.0172 -0.0206  0.5991
  187SLPC  H12R21563   1.991   7.837   7.462 -0.3745  2.9811  3.0201
  187SLPC  C21321564   1.889   7.785   7.633 -0.0816 -0.2095  0.6091
  187SLPC  H13R21565   1.822   7.872   7.626 -0.7432 -0.7421  0.1365
  187SLPC  C21421566   1.844   7.705   7.752 -0.2825 -0.4950  0.2176
  187SLPC  H14R21567   1.891   7.605   7.755  0.0145 -0.4285 -1.4193
  187SLPC  H14S21568   1.734   7.703   7.767 -0.2565  0.8544  0.7198
  187SLPC  C21521569   1.890   7.769   7.883 -0.2065 -0.6158  0.5877
  187SLPC  H15R21570   1.861   7.876   7.881 -2.2736 -1.1151 -1.6160
  187SLPC  H15S21571   1.999   7.751   7.893  0.2842  1.8793  0.3227
  187SLPC  C21621572   1.821   7.721   8.011 -0.5918  0.0780  0.7993
  187SLPC  H16R21573   1.867   7.623   8.036 -2.0270 -0.1699  2.6990
  187SLPC  H16S21574   1.711   7.709   8.000 -0.5321 -0.5165  0.8349
  187SLPC  C21721575   1.848   7.814   8.127 -0.1149  0.6546  0.7558
  187SLPC  H17R21576   1.785   7.762   8.202 -2.1767 -1.3179 -2.1422
  187SLPC  H17S21577   1.815   7.916   8.100 -0.1838  1.0607  2.2613
  187SLPC  C21821578   1.990   7.824   8.169 -0.0471  0.4382  0.2701
  187SLPC  H18R21579   2.029   7.720   8.177  2.0451  1.2061  0.7313
  187SLPC  H18S21580   2.015   7.895   8.250  1.0163  0.6701 -0.2459
  187SLPC  H18T21581   2.046   7.877   8.088 -0.4042  0.1960 -0.1418
  187SLPC   C3321582   1.719   7.712   6.873 -0.0480 -0.0755 -0.1029
  187SLPC   H3X21583   1.656   7.620   6.878 -0.8570  0.5170  1.3714
  187SLPC   H3Y21584   1.660   7.798   6.836 -3.8625 -2.0111  0.9153
  187SLPC   C3421585   1.758   7.743   7.016 -0.2486  0.4427  0.5612
  187SLPC   H4X21586   1.816   7.837   7.023 -2.2109  1.7355  0.3638
  187SLPC   H4Y21587   1.820   7.661   7.057  2.0767  1.7771 -0.1485
  187SLPC   C3521588   1.633   7.753   7.095  0.2266 -0.4265  0.3969
  187SLPC   H5X21589   1.561   7.669   7.082 -0.4021  0.0676  0.5751
  187SLPC   H5Y21590   1.580   7.837   7.045  1.5597 -0.1328 -0.5745
  187SLPC   C3621591   1.659   7.785   7.244 -0.4440  0.2574 -0.2614
  187SLPC   H6X21592   1.732   7.868   7.247  0.1648 -0.2300 -1.1013
  187SLPC   H6Y21593   1.712   7.697   7.287 -0.3659 -0.4909 -1.8169
  187SLPC   C3721594   1.536   7.804   7.325  0.3206  0.2757  0.3304
  187SLPC   H7X21595   1.488   7.895   7.283 -1.6980 -0.7384  0.3332
  187SLPC   H7Y21596   1.471   7.714   7.321  1.2819 -0.3938 -0.9906
  187SLPC   C3821597   1.572   7.831   7.475 -0.1396 -0.3007 -0.4809
  187SLPC   H8X21598   1.601   7.938   7.472  0.3216 -0.4340 -1.0539
  187SLPC   H8Y21599   1.654   7.769   7.518  0.8239  2.4696  2.0252
  187SLPC   C3921600   1.442   7.829   7.558 -0.6610  0.3400  0.3009
  187SLPC   H9X21601   1.396   7.729   7.547  1.0797 -0.5456  0.6859
  187SLPC   H9Y21602   1.373   7.904   7.513 -1.7986  1.4107  3.5268
  187SLPC  C31021603   1.469   7.853   7.699 -0.1006 -0.9690  0.1455
  187SLPC  H10X21604   1.548   7.931   7.708 -1.1537  0.1726 -0.2127
  187SLPC  H10Y21605   1.508   7.759   7.745 -1.1993 -1.0959  0.8485
  187SLPC  C31121606   1.350   7.913   7.766  0.0859 -0.1683  0.2407
  187SLPC  H11X21607   1.266   7.848   7.735  1.1562 -1.5406  0.1114
  187SLPC  H11Y21608   1.331   8.019   7.737  0.4182  1.1206  4.0451
  187SLPC  C31221609   1.360   7.918   7.925  0.0464  0.3468  0.0649
  187SLPC  H12X21610   1.381   7.811   7.950 -1.6451 -0.0802 -0.2191
  187SLPC  H12Y21611   1.261   7.951   7.964 -0.4317 -0.8663 -0.0527
  187SLPC  C31321612   1.462   8.014   7.992 -0.2066  0.1261  0.2587
  187SLPC  H13X21613   1.443   8.108   7.936 -0.1517 -0.5074 -0.8659
  187SLPC  H13Y21614   1.564   7.974   7.977 -1.0119 -1.8611 -0.2757
  187SLPC  C31421615   1.435   8.036   8.141  0.4090 -0.3490  1.2233
  187SLPC  H14X21616   1.341   8.096   8.146  0.3869 -0.1126 -0.9708
  187SLPC  H14Y21617   1.512   8.105   8.182 -0.0200  0.7494  0.2264
  187SLPC  C31521618   1.432   7.910   8.225 -0.2969  0.6208  0.1399
  187SLPC  H15X21619   1.516   7.851   8.182  0.6037  0.2895  2.2021
  187SLPC  H15Y21620   1.334   7.862   8.202 -0.2643  1.5095 -2.1270
  187SLPC  C31621621   1.448   7.937   8.367 -0.5001 -0.0794  0.0568
  187SLPC  H16X21622   1.363   7.993   8.411  0.8714  1.3035  1.0497
  187SLPC  H16Y21623   1.534   8.006   8.380  0.7994 -1.6165 -0.1334
  187SLPC  C31721624   1.489   7.819   8.453 -0.1034 -0.2327  0.2698
  187SLPC  H17X21625   1.577   7.774   8.402  1.0111  1.8184  0.2925
  187SLPC  H17Y21626   1.404   7.748   8.448 -2.1233  2.1348 -2.2571
  187SLPC  C31821627   1.523   7.857   8.600 -0.5510 -0.0491 -0.1017
  187SLPC  H18X21628   1.433   7.889   8.658 -0.8992  0.1235 -0.7317
  187SLPC  H18Y21629   1.590   7.945   8.589 -0.2085 -0.5942 -3.4106
  187SLPC  H18Z21630   1.588   7.780   8.646 -0.7952 -0.2182 -0.0405
  188SLPC     N21631   1.485   0.549   5.945 -0.3704  0.5840 -0.7755
  188SLPC   C1321632   1.445   0.444   5.837  0.5016 -0.1413 -0.2550
  188SLPC  H13A21633   1.342   0.461   5.811  0.3873  0.8313  0.7751
  188SLPC  H13B21634   1.513   0.451   5.753 -0.3407  0.5467 -0.9048
  188SLPC  H13C21635   1.453   0.339   5.862 -0.8018  0.2292  1.9179
  188SLPC   C1421636   1.409   0.683   5.923 -0.4017  0.8368 -1.0115
  188SLPC  H14A21637   1.453   0.726   5.835  1.1319 -1.2674 -1.3653
  188SLPC  H14B21638   1.307   0.667   5.894 -0.3835  0.0772 -0.7054
  188SLPC  H14C21639   1.411   0.744   6.012 -1.8427 -0.4006 -0.0799
  188SLPC   C1521640   1.629   0.571   5.946  0.1358  0.3891  0.0906
  188SLPC  H15A21641   1.676   0.474   5.948 -0.0989  0.0963 -3.1718
  188SLPC  H15B21642   1.663   0.630   5.861  0.8546  0.5072  0.4490
  188SLPC  H15C21643   1.657   0.632   6.031 -0.1452  0.1681  0.3434
  188SLPC   C1221644   1.436   0.495   6.073  0.4050  0.4476 -0.7388
  188SLPC  H12A21645   1.425   0.388   6.068  0.2377  0.4832 -1.1649
  188SLPC  H12B21646   1.333   0.527   6.076  0.7034  1.7189 -2.4124
  188SLPC   C1121647   1.495   0.535   6.215  0.2734 -0.3218 -0.7685
  188SLPC  H11A21648   1.601   0.503   6.216  0.4918  0.3839 -0.0661
  188SLPC  H11B21649   1.440   0.480   6.294  1.7432  0.3811  0.8071
  188SLPC     P21650   1.369   0.757   6.291 -0.0124 -0.2210 -0.3718
  188SLPC   O1321651   1.412   0.894   6.327 -0.2646  0.0654 -0.5256
  188SLPC   O1421652   1.250   0.746   6.208 -0.5357 -0.1471 -0.0993
  188SLPC   O1221653   1.487   0.675   6.224 -0.4214 -0.2160  0.3511
  188SLPC   O1121654   1.336   0.675   6.422  0.1136  0.7275  0.1498
  188SLPC    C121655   1.438   0.662   6.514 -0.3749  0.0039  0.2913
  188SLPC    HA21656   1.530   0.613   6.476 -0.9001 -2.3031  1.7403
  188SLPC    HB21657   1.475   0.761   6.547  0.7586 -0.6723  1.1105
  188SLPC    C221658   1.389   0.579   6.627 -0.2794  0.0965  0.8064
  188SLPC    HS21659   1.475   0.578   6.698  1.4446  2.0410 -1.1023
  188SLPC   O2121660   1.353   0.447   6.579 -0.1700  0.0780  1.1545
  188SLPC   C2121661   1.452   0.365   6.585 -0.2333 -0.5524  0.0525
  188SLPC   O2221662   1.574   0.393   6.599  0.0903  0.7913 -0.5625
  188SLPC   C2221663   1.404   0.220   6.570 -1.0650  0.7704 -1.0004
  188SLPC   H2R21664   1.293   0.225   6.576 -0.9539  2.2911  0.3118
  188SLPC   H2S21665   1.434   0.184   6.470 -1.3571 -0.5205 -0.6525
  188SLPC    C321666   1.263   0.637   6.693  0.2321  0.2304 -0.6816
  188SLPC    HX21667   1.175   0.608   6.631 -1.4750  1.7957  0.8585
  188SLPC    HY21668   1.266   0.748   6.687  2.4703  0.1886 -0.9304
  188SLPC   O3121669   1.235   0.583   6.827 -0.2608 -0.0800  0.4051
  188SLPC   C3121670   1.309   0.633   6.925  0.6427 -0.6686 -0.6160
  188SLPC   O3221671   1.398   0.715   6.909 -0.3892  0.0972  0.2752
  188SLPC   C3221672   1.261   0.582   7.057  0.5127  0.3945  0.6844
  188SLPC   H2X21673   1.327   0.504   7.099 -0.0662  0.5685  1.9661
  188SLPC   H2Y21674   1.172   0.519   7.036  2.6030 -1.7918 -2.6424
  188SLPC   C2321675   1.482   0.132   6.681  0.0870  0.5730  0.3023
  188SLPC   H3R21676   1.584   0.174   6.693  1.0528 -1.4033 -0.6357
  188SLPC   H3S21677   1.483   0.028   6.643  1.5248  0.5451  0.3594
  188SLPC   C2421678   1.419   0.122   6.821 -0.1836  0.0899 -0.7242
  188SLPC   H4R21679   1.334   0.054   6.800 -0.9144  0.7149  0.1628
  188SLPC   H4S21680   1.376   0.217   6.860  0.1712  0.6434 -1.6465
  188SLPC   C2521681   1.515   0.065   6.928  0.6400  0.4282 -0.7863
  188SLPC   H5R21682   1.599   0.136   6.940  1.0286 -0.3268  1.2690
  188SLPC   H5S21683   1.563  -0.025   6.883  2.9769  0.6807  1.0422
  188SLPC   C2621684   1.451   0.027   7.060 -0.5500  0.3896 -0.0707
  188SLPC   H6R21685   1.529   0.004   7.136  0.8290  1.0424 -1.2583
  188SLPC   H6S21686   1.376  -0.054   7.048  0.8372 -0.6798 -2.0582
  188SLPC   C2721687   1.367   0.137   7.128 -0.0411 -0.4432 -0.2626
  188SLPC   H7R21688   1.272   0.153   7.073 -0.8475  0.0070  1.2132
  188SLPC   H7S21689   1.426   0.231   7.121 -0.5864 -0.0604  0.1592
  188SLPC   C2821690   1.339   0.115   7.283  0.4171  0.6916  0.0818
  188SLPC   H8R21691   1.439   0.116   7.332  1.2770 -0.2001 -1.5542
  188SLPC   H8S21692   1.293   0.014   7.282  0.6791  0.5725 -0.3568
  188SLPC   C2921693   1.253   0.212   7.353  0.4375  0.9659 -0.3049
  188SLPC   H9R21694   1.195   0.272   7.282 -1.8507  0.4856  1.0425
  188SLPC  C21021695   1.238   0.242   7.488  0.0292  0.5845 -0.2533
  188SLPC  H10R21696   1.146   0.296   7.513 -2.1649 -3.1595  0.5561
  188SLPC  C21121697   1.311   0.184   7.609 -0.8309  0.2782 -0.3805
  188SLPC  H11R21698   1.337   0.275   7.666 -0.4999  0.7176 -1.2126
  188SLPC  H11S21699   1.410   0.141   7.582 -1.3732 -2.5834  1.7009
  188SLPC  C21221700   1.249   0.086   7.703 -0.3026 -0.1172 -0.1724
  188SLPC  H12R21701   1.283  -0.018   7.696  4.0875  1.1690 -1.4761
  188SLPC  C21321702   1.171   0.113   7.804 -0.2622  0.2639 -0.3061
  188SLPC  H13R21703   1.139   0.026   7.863 -0.0224  0.7659  0.5746
  188SLPC  C21421704   1.130   0.245   7.857 -0.5930 -0.0188  0.3211
  188SLPC  H14R21705   1.023   0.264   7.878 -1.7238 -0.3241 -4.1205
  188SLPC  H14S21706   1.175   0.327   7.796  0.3453 -2.0033 -1.8567
  188SLPC  C21521707   1.207   0.256   7.992 -0.8238  0.6992  0.0273
  188SLPC  H15R21708   1.199   0.366   8.003 -1.0366  0.7890 -0.9195
  188SLPC  H15S21709   1.315   0.233   7.976 -1.2171 -0.0808 -1.7183
  188SLPC  C21621710   1.155   0.171   8.105  0.5048  0.2424 -0.2889
  188SLPC  H16R21711   1.155   0.065   8.073  2.5508  0.3659 -0.8093
  188SLPC  H16S21712   1.049   0.201   8.120  0.7512  0.7821  0.4383
  188SLPC  C21721713   1.218   0.199   8.242 -0.6657 -0.6959 -0.0374
  188SLPC  H17R21714   1.198   0.306   8.263  0.2210 -0.3903 -0.6684
  188SLPC  H17S21715   1.328   0.187   8.231 -0.6408 -1.6288  1.1058
  188SLPC  C21821716   1.160   0.113   8.353 -0.2414 -0.2752 -0.1695
  188SLPC  H18R21717   1.191   0.008   8.337  0.1233 -0.2818  0.5313
  188SLPC  H18S21718   1.050   0.123   8.341 -0.1816 -0.4069 -0.8469
  188SLPC  H18T21719   1.176   0.149   8.457 -1.5224 -1.4729  0.4761
  188SLPC   C3321720   1.226   0.696   7.150  0.4061  0.1029  0.1434
  188SLPC   H3X21721   1.159   0.777   7.112  1.3226  2.3644  3.0194
  188SLPC   H3Y21722   1.321   0.751   7.169  1.1270 -1.1478  0.2348
  188SLPC   C3421723   1.171   0.636   7.279 -0.2520  0.3763 -0.1470
  188SLPC   H4X21724   1.258   0.579   7.319  2.5859  2.6613 -2.5518
  188SLPC   H4Y21725   1.088   0.564   7.261 -0.6648  0.4133  1.4709
  188SLPC   C3521726   1.123   0.728   7.386 -0.4903  0.2226 -0.5236
  188SLPC   H5X21727   1.038   0.792   7.353  0.5704  1.4071 -1.0474
  188SLPC   H5Y21728   1.205   0.797   7.416  0.5753 -1.4813  0.6363
  188SLPC   C3621729   1.078   0.659   7.515  0.2204  0.8769 -0.0276
  188SLPC   H6X21730   1.158   0.588   7.547 -1.2584 -1.4748 -1.2765
  188SLPC   H6Y21731   0.991   0.597   7.486  0.6327 -0.1646  0.8566
  188SLPC   C3721732   1.057   0.750   7.629 -0.1429 -0.6156 -0.3529
  188SLPC   H7X21733   0.980   0.828   7.606 -0.8297 -0.6740  1.5327
  188SLPC   H7Y21734   1.155   0.799   7.646 -1.5267  1.5410  2.3162
  188SLPC   C3821735   1.019   0.684   7.765  0.2173  0.1747 -0.2011
  188SLPC   H8X21736   1.106   0.621   7.792 -0.7247 -1.4807 -0.8991
  188SLPC   H8Y21737   0.937   0.611   7.747  1.8780 -1.6728 -0.5094
  188SLPC   C3921738   0.978   0.793   7.866  0.5860  0.1013 -0.3757
  188SLPC   H9X21739   0.902   0.854   7.812  1.7393  1.5415 -0.4631
  188SLPC   H9Y21740   1.057   0.866   7.896 -1.2004  1.3855  1.4665
  188SLPC  C31021741   0.921   0.750   7.998 -0.3400  1.0177  0.7149
  188SLPC  H10X21742   0.992   0.688   8.057 -1.9069 -1.0444  0.5142
  188SLPC  H10Y21743   0.833   0.695   7.960  0.4929  1.6574 -2.5296
  188SLPC  C31121744   0.875   0.865   8.078  0.5080 -0.0993 -0.7356
  188SLPC  H11X21745   0.793   0.926   8.032 -1.4014 -0.7142  1.6211
  188SLPC  H11Y21746   0.958   0.939   8.081  0.7905 -0.3749  2.5630
  188SLPC  C31221747   0.826   0.840   8.221 -0.2523  0.2924  0.3822
  188SLPC  H12X21748   0.900   0.761   8.247 -0.5759 -0.5241 -1.0724
  188SLPC  H12Y21749   0.722   0.802   8.228 -0.3862  0.4200 -0.7076
  188SLPC  C31321750   0.836   0.954   8.322 -0.4534  0.4635  0.0733
  188SLPC  H13X21751   0.796   0.921   8.420 -0.7601  0.0196 -0.2022
  188SLPC  H13Y21752   0.774   1.035   8.278 -2.2724 -2.0549 -2.3496
  188SLPC  C31421753   0.974   1.018   8.361  0.6980  0.6137 -0.3977
  188SLPC  H14X21754   0.960   1.126   8.382 -0.6670  0.7488 -1.8265
  188SLPC  H14Y21755   1.035   1.010   8.268  1.2194 -0.5229  0.0190
  188SLPC  C31521756   1.038   0.951   8.486 -0.6675 -0.0526  0.1566
  188SLPC  H15X21757   0.988   1.000   8.572  0.2014  2.0072 -0.4409
  188SLPC  H15Y21758   1.142   0.991   8.493 -0.7369  0.0680  0.5289
  188SLPC  C31621759   1.040   0.803   8.482  0.0388  0.2505  0.2466
  188SLPC  H16X21760   1.091   0.761   8.392 -2.2912 -1.5830 -0.3270
  188SLPC  H16Y21761   0.942   0.752   8.471 -0.1289  0.2888  1.4513
  188SLPC  C31721762   1.108   0.749   8.611  0.3696 -0.1159  0.5123
  188SLPC  H17X21763   1.064   0.791   8.704  0.1547  1.7323 -0.3757
  188SLPC  H17Y21764   1.215   0.780   8.606 -0.1822  1.9466  0.7566
  188SLPC  C31821765   1.121   0.597   8.623 -0.4822 -0.1992 -0.3512
  188SLPC  H18X21766   1.197   0.574   8.700  0.2167  1.3956 -0.5299
  188SLPC  H18Y21767   1.167   0.557   8.531 -2.6653 -1.5141 -0.9572
  188SLPC  H18Z21768   1.023   0.551   8.647 -0.3096 -0.7504 -0.6897
  189SLPC     N21769   5.203   4.462   6.429 -0.1090 -0.7553  0.0986
  189SLPC   C1321770   5.108   4.354   6.461 -0.2101 -0.4996 -0.0026
  189SLPC  H13A21771   5.135   4.265   6.406 -2.3317  0.5055 -2.9640
  189SLPC  H13B21772   5.105   4.345   6.568  0.6194  2.5105  0.3682
  189SLPC  H13C21773   5.012   4.382   6.420  0.0066 -0.0858 -0.2362
  189SLPC   C1421774   5.140   4.590   6.463  0.1790  0.2022  0.0160
  189SLPC  H14A21775   5.207   4.666   6.426 -1.7477  1.0307 -2.0378
  189SLPC  H14B21776   5.046   4.601   6.411  0.6237  0.0625 -0.8266
  189SLPC  H14C21777   5.128   4.598   6.570  0.5162 -3.0852  0.4255
  189SLPC   C1521778   5.228   4.465   6.283  0.1400 -0.1298 -0.7468
  189SLPC  H15A21779   5.145   4.513   6.234 -0.3418 -0.8631 -0.6567
  189SLPC  H15B21780   5.311   4.532   6.263  0.4887  0.2119  1.4653
  189SLPC  H15C21781   5.241   4.369   6.236  0.9704  0.4917 -1.8293
  189SLPC   C1221782   5.332   4.448   6.509  0.8152 -0.0201  0.7976
  189SLPC  H12A21783   5.311   4.464   6.614 -1.3871  0.3109  0.3349
  189SLPC  H12B21784   5.396   4.530   6.481 -1.7634  2.5156  1.8797
  189SLPC   C1121785   5.402   4.318   6.498  0.0530  0.1838 -0.0285
  189SLPC  H11A21786   5.341   4.226   6.515 -1.7483  1.2187 -0.5825
  189SLPC  H11B21787   5.483   4.307   6.573 -0.8525 -0.3024  0.9043
  189SLPC     P21788   5.594   4.359   6.318 -0.0784  0.2370 -0.2315
  189SLPC   O1321789   5.602   4.350   6.171 -0.5916  0.2129  0.2163
  189SLPC   O1421790   5.629   4.484   6.384  0.5751  0.2740 -0.7353
  189SLPC   O1221791   5.452   4.307   6.361  0.6916 -0.0889 -0.2047
  189SLPC   O1121792   5.690   4.247   6.379  0.4193  0.0241  0.2696
  189SLPC    C121793   5.662   4.110   6.391  0.0752  0.0765  0.1806
  189SLPC    HA21794   5.562   4.081   6.352 -1.4075  2.0214  2.3040
  189SLPC    HB21795   5.740   4.058   6.332  0.4719  0.7900  0.0558
  189SLPC    C221796   5.661   4.057   6.534 -0.6943  0.0070 -0.3991
  189SLPC    HS21797   5.572   4.104   6.581 -1.2509  1.2364 -2.5311
  189SLPC   O2121798   5.784   4.100   6.598 -0.3298 -0.1256  0.2131
  189SLPC   C2121799   5.774   4.116   6.727 -0.0575 -0.2076  0.3221
  189SLPC   O2221800   5.667   4.098   6.788 -0.1819 -0.1039 -0.2446
  189SLPC   C2221801   5.917   4.137   6.781  1.3608 -0.3902  0.2734
  189SLPC   H2R21802   5.982   4.055   6.744  1.2367 -0.0837 -0.6754
  189SLPC   H2S21803   5.955   4.234   6.740  0.3802  0.0459  0.3447
  189SLPC    C321804   5.654   3.906   6.536 -0.3021 -0.2907  0.5012
  189SLPC    HX21805   5.753   3.882   6.491  0.0737  4.2666 -1.7411
  189SLPC    HY21806   5.566   3.877   6.475 -1.0575  2.1434  0.3187
  189SLPC   O3121807   5.640   3.832   6.665 -0.1875 -0.7985  0.4646
  189SLPC   C3121808   5.516   3.823   6.723  0.6180 -0.1446  0.3053
  189SLPC   O3221809   5.409   3.857   6.677  0.0931 -0.1196  0.5467
  189SLPC   C3221810   5.538   3.752   6.854  0.2212  0.2762 -0.6966
  189SLPC   H2X21811   5.464   3.784   6.931  0.4083  0.9899 -0.8128
  189SLPC   H2Y21812   5.636   3.784   6.895 -0.1282 -0.4562  0.8025
  189SLPC   C2321813   5.920   4.137   6.939  0.1111 -0.2196 -0.4850
  189SLPC   H3R21814   5.836   4.075   6.976 -0.1239  0.3308 -0.0857
  189SLPC   H3S21815   5.889   4.241   6.963 -1.5923 -0.5195 -1.2603
  189SLPC   C2421816   6.062   4.110   6.996 -0.1532  0.1476 -0.0115
  189SLPC   H4R21817   6.128   4.184   6.946 -0.9622  0.7369 -0.2364
  189SLPC   H4S21818   6.087   4.004   6.976  1.5314  0.5587 -0.1855
  189SLPC   C2521819   6.076   4.157   7.140 -0.0728  0.4036 -0.4255
  189SLPC   H5R21820   6.029   4.257   7.154  0.6969  0.5926  1.0008
  189SLPC   H5S21821   6.185   4.170   7.153  0.5740 -2.5745 -2.0748
  189SLPC   C2621822   6.031   4.064   7.246  0.2222 -0.7441 -0.3678
  189SLPC   H6R21823   6.061   3.960   7.222  3.2879 -0.1412  0.4015
  189SLPC   H6S21824   5.921   4.058   7.258  0.0995 -1.1161 -1.5692
  189SLPC   C2721825   6.086   4.106   7.382  0.4522 -0.2854 -0.3087
  189SLPC   H7R21826   6.046   4.204   7.417 -1.8621 -1.5243  0.8052
  189SLPC   H7S21827   6.196   4.109   7.375  0.4123 -1.0363 -1.5562
  189SLPC   C2821828   6.050   4.018   7.506  0.4695 -0.5907 -0.1907
  189SLPC   H8R21829   5.939   4.024   7.513  0.4765 -1.4335  0.9195
  189SLPC   H8S21830   6.083   4.080   7.591  0.4910  1.1350 -1.4147
  189SLPC   C2921831   6.110   3.877   7.491 -0.5991 -0.1330 -0.3669
  189SLPC   H9R21832   6.075   3.807   7.414  2.5187 -1.0621 -1.1064
  189SLPC  C21021833   6.217   3.836   7.570  0.3993  0.2272 -0.2807
  189SLPC  H10R21834   6.253   3.733   7.553 -3.8263 -1.0764 -2.8131
  189SLPC  C21121835   6.277   3.924   7.679  0.3595  0.5360  0.0306
  189SLPC  H11R21836   6.302   4.026   7.644  0.5619 -0.1212 -1.9192
  189SLPC  H11S21837   6.377   3.886   7.707  0.9819 -0.5124 -3.1343
  189SLPC  C21221838   6.195   3.933   7.809 -0.3349  0.1893 -0.5614
  189SLPC  H12R21839   6.093   3.894   7.796 -0.6350  0.7340  0.1033
  189SLPC  C21321840   6.228   3.992   7.926 -0.3924  0.5328 -0.1600
  189SLPC  H13R21841   6.163   4.000   8.014  0.2973  1.6176  0.2774
  189SLPC  C21421842   6.359   4.055   7.962 -0.0750  0.1883  0.7209
  189SLPC  H14R21843   6.335   4.161   7.989  0.8517  0.6376 -0.1707
  189SLPC  H14S21844   6.425   4.052   7.873  0.4652  2.0680  1.0090
  189SLPC  C21521845   6.421   3.980   8.073  0.1393  0.5252  0.1512
  189SLPC  H15R21846   6.507   4.040   8.110 -0.0449  1.6279 -1.1427
  189SLPC  H15S21847   6.457   3.877   8.049 -0.5039  0.3990 -0.3097
  189SLPC  C21621848   6.334   3.956   8.203 -0.4123  0.0489 -0.1339
  189SLPC  H16R21849   6.385   3.907   8.288 -1.2648  0.0101  0.3742
  189SLPC  H16S21850   6.261   3.883   8.161 -0.5772  0.8675 -1.3209
  189SLPC  C21721851   6.272   4.084   8.270  0.3974 -0.4500  0.6752
  189SLPC  H17R21852   6.222   4.136   8.186 -1.0972 -2.5331  0.1964
  189SLPC  H17S21853   6.358   4.140   8.313  0.9204  0.7180 -1.7148
  189SLPC  C21821854   6.155   4.062   8.369 -0.4479 -0.3824  0.0590
  189SLPC  H18R21855   6.079   3.988   8.335 -0.5031 -0.5083  0.4487
  189SLPC  H18S21856   6.096   4.152   8.395 -0.1331 -0.1247 -0.1178
  189SLPC  H18T21857   6.203   4.030   8.464  0.6887  2.1435  0.4312
  189SLPC   C3321858   5.542   3.598   6.839 -0.4334  0.1660 -0.3944
  189SLPC   H3X21859   5.616   3.573   6.760  0.7878  1.0507  0.4124
  189SLPC   H3Y21860   5.437   3.572   6.815 -0.2917  0.1998 -1.0552
  189SLPC   C3421861   5.582   3.532   6.970 -0.1069  0.6378  0.2305
  189SLPC   H4X21862   5.692   3.535   6.983  0.0479 -1.7567  0.0411
  189SLPC   H4Y21863   5.568   3.423   6.955  1.4787  0.4581 -0.1150
  189SLPC   C3521864   5.506   3.584   7.097  0.1763 -0.0025  0.0749
  189SLPC   H5X21865   5.537   3.691   7.096 -1.4147  0.4817 -0.0950
  189SLPC   H5Y21866   5.553   3.531   7.183  1.6602  0.3222 -0.4930
  189SLPC   C3621867   5.358   3.564   7.105 -0.2629 -0.8569  0.5347
  189SLPC   H6X21868   5.309   3.620   7.023  0.4318  0.5462  1.0434
  189SLPC   H6Y21869   5.310   3.603   7.196 -0.1212 -0.2104  0.3356
  189SLPC   C3721870   5.313   3.416   7.091  0.0290 -0.1454  0.6375
  189SLPC   H7X21871   5.348   3.380   6.992 -0.9562  0.4542  0.0556
  189SLPC   H7Y21872   5.202   3.412   7.087 -0.1129  2.4376  0.3265
  189SLPC   C3821873   5.348   3.325   7.207  0.7024  0.0005 -0.0866
  189SLPC   H8X21874   5.458   3.312   7.216  1.1924  2.5538 -1.4891
  189SLPC   H8Y21875   5.300   3.229   7.180 -0.7375  0.6709 -0.0094
  189SLPC   C3921876   5.295   3.372   7.346  0.7879 -0.5867 -0.1561
  189SLPC   H9X21877   5.329   3.477   7.360 -1.6015  0.4197 -1.3365
  189SLPC   H9Y21878   5.339   3.309   7.426  0.0230 -1.4661 -0.4087
  189SLPC  C31021879   5.140   3.360   7.362 -0.8121 -0.0081 -0.3669
  189SLPC  H10X21880   5.107   3.254   7.353  1.3514 -0.8825  1.1314
  189SLPC  H10Y21881   5.081   3.410   7.282 -0.7224 -0.1152 -0.5019
  189SLPC  C31121882   5.084   3.412   7.498 -0.3022 -0.6445  0.1653
  189SLPC  H11X21883   4.975   3.393   7.505 -0.9074  2.2376 -0.0357
  189SLPC  H11Y21884   5.079   3.522   7.487  0.8289 -0.4817  1.1698
  189SLPC  C31221885   5.163   3.370   7.624  0.2066  0.0582  0.1643
  189SLPC  H12X21886   5.260   3.421   7.642 -0.2566  1.0614 -0.1044
  189SLPC  H12Y21887   5.182   3.261   7.620 -1.5228 -0.4012  2.3042
  189SLPC  C31321888   5.085   3.394   7.753 -0.3103 -0.0535  0.4180
  189SLPC  H13X21889   5.114   3.316   7.828  0.4231  0.0219  0.2208
  189SLPC  H13Y21890   4.980   3.365   7.733  0.4305 -2.8969  0.2072
  189SLPC  C31421891   5.118   3.534   7.817 -0.5010 -0.0215 -0.0367
  189SLPC  H14X21892   5.092   3.609   7.739  2.0181  1.0791  0.1137
  189SLPC  H14Y21893   5.226   3.539   7.839 -0.2773  0.1910 -1.1591
  189SLPC  C31521894   5.039   3.562   7.943  0.3075  0.2905  0.1328
  189SLPC  H15X21895   5.073   3.488   8.020 -1.8888 -1.9203 -0.8560
  189SLPC  H15Y21896   4.930   3.547   7.923 -0.0637  1.7761  0.9222
  189SLPC  C31621897   5.050   3.704   7.990 -0.2268 -0.4445 -0.2243
  189SLPC  H16X21898   5.032   3.777   7.909  1.2817  0.5266  0.2820
  189SLPC  H16Y21899   5.150   3.734   8.027 -1.0064 -0.2709  1.8850
  189SLPC  C31721900   4.954   3.746   8.108 -0.5578 -0.3776 -0.4889
  189SLPC  H17X21901   4.857   3.713   8.063 -0.6601  0.6022 -0.9981
  189SLPC  H17Y21902   4.957   3.854   8.134  0.1438 -0.9840  2.2845
  189SLPC  C31821903   4.981   3.670   8.235  0.4625  0.0488 -0.6026
  189SLPC  H18X21904   4.953   3.562   8.229  0.4386  0.0179 -0.0428
  189SLPC  H18Y21905   4.920   3.712   8.317  0.1009 -0.1559 -0.7649
  189SLPC  H18Z21906   5.090   3.681   8.252  0.3616  1.5632 -0.8307
  190SLPC     N21907   3.869   1.898   5.982  0.8196 -0.4452 -0.4005
  190SLPC   C1321908   3.743   1.827   5.953 -0.4029 -0.0137 -0.3023
  190SLPC  H13A21909   3.756   1.722   5.972  0.0956  0.2765  1.0782
  190SLPC  H13B21910   3.654   1.868   5.998  0.4867 -0.2884  1.7806
  190SLPC  H13C21911   3.722   1.843   5.848 -0.4960  0.9546 -0.1493
  190SLPC   C1421912   3.843   2.041   5.943  0.7217 -0.3499 -0.5570
  190SLPC  H14A21913   3.915   2.100   5.998 -0.7444  1.1809 -0.1949
  190SLPC  H14B21914   3.853   2.049   5.836  0.3348  0.4024 -0.5425
  190SLPC  H14C21915   3.744   2.073   5.972  0.2241 -1.4542 -0.9627
  190SLPC   C1521916   3.980   1.849   5.897  0.2672  0.5344  0.3966
  190SLPC  H15A21917   4.077   1.888   5.925  0.4227  1.0388 -0.7881
  190SLPC  H15B21918   3.969   1.742   5.899 -1.1207  0.6567  0.3326
  190SLPC  H15C21919   3.960   1.872   5.793  0.3843  0.3433  0.3314
  190SLPC   C1221920   3.900   1.896   6.130 -0.4530  0.3625 -0.1306
  190SLPC  H12A21921   3.883   1.796   6.167  4.5973 -0.8199 -0.2706
  190SLPC  H12B21922   3.828   1.970   6.162 -0.5649  0.6087 -0.9234
  190SLPC   C1121923   4.040   1.943   6.181  0.1951  0.3845 -0.0868
  190SLPC  H11A21924   4.123   1.879   6.145  0.9117  0.4039  1.4686
  190SLPC  H11B21925   4.032   1.919   6.289  1.4805 -2.6987 -0.5905
  190SLPC     P21926   4.178   2.136   6.066  0.2693  0.3039 -0.4194
  190SLPC   O1321927   4.230   2.030   5.978 -0.3927  0.1153  0.4210
  190SLPC   O1421928   4.127   2.264   6.008 -0.3216 -0.1441 -0.0032
  190SLPC   O1221929   4.057   2.084   6.163  0.2331 -0.0324  0.3478
  190SLPC   O1121930   4.302   2.176   6.161 -0.1728  0.3109  0.3759
  190SLPC    C121931   4.399   2.074   6.203  0.1257  0.3316 -0.7744
  190SLPC    HA21932   4.397   1.979   6.144 -0.5155  0.3888 -0.8532
  190SLPC    HB21933   4.499   2.123   6.198  0.1855  0.4176  0.9058
  190SLPC    C221934   4.376   2.035   6.354  0.0861  0.2287  0.0217
  190SLPC    HS21935   4.279   1.982   6.365 -0.5598  1.1025 -1.1874
  190SLPC   O2121936   4.387   2.159   6.427  0.1067 -0.1340 -0.1818
  190SLPC   C2121937   4.286   2.181   6.504 -0.1868 -0.5138  0.5931
  190SLPC   O2221938   4.189   2.105   6.522 -0.5772  0.1907 -0.3007
  190SLPC   C2221939   4.308   2.316   6.576  0.5940 -0.4139 -0.4090
  190SLPC   H2R21940   4.415   2.326   6.604  0.1484  0.2484  1.2117
  190SLPC   H2S21941   4.278   2.389   6.497 -1.3934 -1.2215 -0.4600
  190SLPC    C321942   4.492   1.947   6.414 -0.0580  0.3194 -0.2936
  190SLPC    HX21943   4.588   2.002   6.412  1.1910 -1.7174  0.1024
  190SLPC    HY21944   4.513   1.857   6.352 -1.1968 -2.0442  2.5339
  190SLPC   O3121945   4.468   1.890   6.547  0.1423 -0.2302  0.1397
  190SLPC   C3121946   4.403   1.781   6.569  0.7358  0.4534  0.8902
  190SLPC   O3221947   4.350   1.713   6.483  0.6610  0.1824  0.6131
  190SLPC   C3221948   4.409   1.757   6.721 -0.5001 -0.1546  1.0612
  190SLPC   H2X21949   4.333   1.828   6.759  0.7200  1.7875  0.0042
  190SLPC   H2Y21950   4.513   1.776   6.755 -0.1581 -0.5676  0.2799
  190SLPC   C2321951   4.219   2.329   6.707 -0.3966  0.0198  0.2322
  190SLPC   H3R21952   4.234   2.244   6.777 -3.6757  0.3479  1.4817
  190SLPC   H3S21953   4.110   2.321   6.688 -0.6418 -1.7294  2.0896
  190SLPC   C2421954   4.241   2.447   6.799  0.1459  0.0333  0.2391
  190SLPC   H4R21955   4.244   2.537   6.733 -1.7915 -0.4290 -0.5449
  190SLPC   H4S21956   4.336   2.435   6.854  0.2009  3.2474  1.0380
  190SLPC   C2521957   4.132   2.457   6.914  0.0427  0.4469  0.4328
  190SLPC   H5R21958   4.038   2.495   6.868 -0.0374  2.0976  1.8582
  190SLPC   H5S21959   4.147   2.551   6.973 -1.0113  2.2096 -1.9324
  190SLPC   C2621960   4.134   2.336   7.011 -0.5918  0.6269 -0.2293
  190SLPC   H6R21961   4.241   2.327   7.039 -0.1405 -0.4801 -2.1418
  190SLPC   H6S21962   4.114   2.247   6.947  0.2863  1.3598 -1.5714
  190SLPC   C2721963   4.038   2.334   7.130 -0.4381 -0.5034  0.0515
  190SLPC   H7R21964   4.025   2.236   7.181  0.7421  0.1071  1.5884
  190SLPC   H7S21965   3.942   2.364   7.082 -0.7967 -1.6132  0.0510
  190SLPC   C2821966   4.061   2.424   7.251 -0.6606  0.3734  0.4903
  190SLPC   H8R21967   3.958   2.424   7.294 -0.3018  1.6069  1.4426
  190SLPC   H8S21968   4.071   2.527   7.210  1.1216 -0.1510 -0.4828
  190SLPC   C2921969   4.164   2.394   7.350 -0.2228  0.1093 -0.1243
  190SLPC   H9R21970   4.258   2.359   7.305 -0.5054 -0.3375 -0.3675
  190SLPC  C21021971   4.155   2.405   7.487  0.5893  0.2895  0.0384
  190SLPC  H10R21972   4.240   2.375   7.549  0.2643  0.3642  0.5283
  190SLPC  C21121973   4.028   2.451   7.561 -0.4821 -0.2359 -0.0912
  190SLPC  H11R21974   3.971   2.524   7.499  0.8267  1.0451  0.1652
  190SLPC  H11S21975   4.052   2.489   7.662 -0.0505  0.4038 -0.4273
  190SLPC  C21221976   3.940   2.338   7.586  0.5710  0.6860  0.4338
  190SLPC  H12R21977   3.914   2.272   7.502  0.8091  1.8707 -0.5908
  190SLPC  C21321978   3.895   2.299   7.702  0.3296 -0.0515 -0.0031
  190SLPC  H13R21979   3.843   2.202   7.708  1.7632 -0.7508  2.9585
  190SLPC  C21421980   3.926   2.360   7.835 -0.6711 -0.1343 -0.1053
  190SLPC  H14R21981   3.959   2.466   7.827  1.3444 -0.7782 -0.9641
  190SLPC  H14S21982   4.015   2.307   7.875  0.1734  0.1123 -1.5574
  190SLPC  C21521983   3.804   2.349   7.926 -0.0454  0.1598  0.0505
  190SLPC  H15R21984   3.771   2.243   7.921  0.5119 -0.1657  2.2046
  190SLPC  H15S21985   3.726   2.414   7.881 -0.9436 -0.0505  1.2552
  190SLPC  C21621986   3.826   2.384   8.080  0.0641 -0.7520  0.5376
  190SLPC  H16R21987   3.843   2.490   8.106  1.2122 -0.1019 -2.4414
  190SLPC  H16S21988   3.924   2.344   8.114 -0.4726 -0.9036  1.9649
  190SLPC  C21721989   3.723   2.311   8.166 -0.1755  0.4435 -0.0674
  190SLPC  H17R21990   3.618   2.336   8.140 -0.4770 -0.8002 -0.1246
  190SLPC  H17S21991   3.738   2.341   8.272  1.2550  2.0534 -0.6712
  190SLPC  C21821992   3.726   2.151   8.161  0.2605 -0.2293  0.2101
  190SLPC  H18R21993   3.825   2.115   8.197  0.5562 -0.2583 -0.6063
  190SLPC  H18S21994   3.717   2.108   8.059  0.3319  0.6643 -0.1790
  190SLPC  H18T21995   3.651   2.104   8.228  1.6599 -1.6286  0.8420
  190SLPC   C3321996   4.363   1.616   6.756  0.1456  0.5749  0.1581
  190SLPC   H3X21997   4.444   1.542   6.738 -0.7708 -0.8091  1.4294
  190SLPC   H3Y21998   4.274   1.578   6.702 -0.3546  1.2018  0.5232
  190SLPC   C3421999   4.330   1.604   6.909 -0.2745  0.0590  0.2099
  190SLPC   H4X22000   4.312   1.499   6.941  1.7320  0.3233  2.4096
  190SLPC   H4Y22001   4.240   1.659   6.944 -0.9474 -3.4767  4.9166
  190SLPC   C3522002   4.441   1.655   7.009  0.2411 -0.6027  0.8634
  190SLPC   H5X22003   4.455   1.764   6.993  2.8035 -0.9295  0.5741
  190SLPC   H5Y22004   4.539   1.610   6.983 -1.0878 -2.1383 -2.0228
  190SLPC   C3622005   4.405   1.642   7.163  0.1006 -0.7034 -0.8298
  190SLPC   H6X22006   4.385   1.536   7.188 -1.7638  0.3334  2.6760
  190SLPC   H6Y22007   4.311   1.698   7.181 -0.3582 -0.8930 -2.4748
  190SLPC   C3722008   4.512   1.693   7.263  0.3214  0.3368  0.3832
  190SLPC   H7X22009   4.543   1.796   7.234 -2.6918  1.7422  1.7017
  190SLPC   H7Y22010   4.598   1.629   7.233 -0.1024 -1.2636  2.3959
  190SLPC   C3822011   4.473   1.685   7.408 -0.0448 -0.5700 -0.4322
  190SLPC   H8X22012   4.480   1.583   7.452  2.1364 -0.0478  0.6197
  190SLPC   H8Y22013   4.366   1.712   7.419 -0.3086 -1.2194 -1.2583
  190SLPC   C3922014   4.560   1.772   7.496 -0.1963 -0.2079  0.4637
  190SLPC   H9X22015   4.565   1.875   7.456  0.6879 -0.9206 -1.4020
  190SLPC   H9Y22016   4.658   1.719   7.491 -0.5787 -0.8690 -0.5952
  190SLPC  C31022017   4.512   1.775   7.639 -0.0681  0.5205 -0.1431
  190SLPC  H10X22018   4.467   1.680   7.674 -0.6115  1.3204  1.3988
  190SLPC  H10Y22019   4.425   1.844   7.631 -1.8733 -1.7891 -2.3074
  190SLPC  C31122020   4.620   1.825   7.743 -0.3454 -1.0332  0.2014
  190SLPC  H11X22021   4.654   1.920   7.696 -1.9055  1.1700  3.1957
  190SLPC  H11Y22022   4.698   1.747   7.757  0.4720 -0.0143  1.6574
  190SLPC  C31222023   4.568   1.854   7.888 -0.2788 -0.4014  0.2206
  190SLPC  H12X22024   4.515   1.769   7.936  0.0247 -2.2581 -2.4753
  190SLPC  H12Y22025   4.488   1.928   7.869 -1.5006 -1.8546 -0.4884
  190SLPC  C31322026   4.673   1.911   7.983  0.0801 -0.2364 -0.1550
  190SLPC  H13X22027   4.705   2.011   7.947  0.9411 -0.5361 -0.2484
  190SLPC  H13Y22028   4.762   1.846   7.968  0.7302  0.4814  0.4836
  190SLPC  C31422029   4.632   1.912   8.126 -0.1630  0.2924 -0.1004
  190SLPC  H14X22030   4.530   1.954   8.135 -0.2856 -0.3068  1.6633
  190SLPC  H14Y22031   4.698   1.974   8.190  0.2878  0.4671 -0.7267
  190SLPC  C31522032   4.639   1.777   8.194 -0.8369  0.3093 -0.3363
  190SLPC  H15X22033   4.610   1.692   8.129  1.4788 -1.2559  0.5162
  190SLPC  H15Y22034   4.571   1.782   8.281 -0.0172  0.1060  0.3407
  190SLPC  C31622035   4.784   1.733   8.239  0.3549  0.7991  0.0721
  190SLPC  H16X22036   4.854   1.816   8.261  1.6483  0.6417 -2.9249
  190SLPC  H16Y22037   4.842   1.680   8.160  1.0825  1.5546  0.0911
  190SLPC  C31722038   4.772   1.628   8.357  0.2455 -0.2019  0.0023
  190SLPC  H17X22039   4.711   1.542   8.321 -1.5993  0.3187  1.6669
  190SLPC  H17Y22040   4.713   1.679   8.437  1.6648 -0.3055  1.1634
  190SLPC  C31822041   4.897   1.578   8.421 -0.2337  0.4901  0.8305
  190SLPC  H18X22042   4.945   1.507   8.349 -0.2251 -0.1853  1.4944
  190SLPC  H18Y22043   4.882   1.529   8.519  3.8169  0.6068  1.6675
  190SLPC  H18Z22044   4.967   1.661   8.444  0.1969  0.4806 -0.3755
  191SLPC     N22045   2.880   4.433   5.619  0.0242  0.4883 -0.1548
  191SLPC   C1322046   2.841   4.454   5.470  0.3284 -1.0852 -0.0874
  191SLPC  H13A22047   2.737   4.434   5.446  0.1468 -1.9142  1.2791
  191SLPC  H13B22048   2.876   4.553   5.444  0.4236 -1.0128  0.3114
  191SLPC  H13C22049   2.894   4.385   5.407  0.7519  0.2743 -1.2782
  191SLPC   C1422050   2.806   4.537   5.694  0.0940  0.6058  0.1857
  191SLPC  H14A22051   2.849   4.548   5.792  2.9310 -2.6050 -0.4964
  191SLPC  H14B22052   2.813   4.634   5.645  0.4978  0.6660  0.3592
  191SLPC  H14C22053   2.701   4.516   5.700  0.0407  0.9103  0.3471
  191SLPC   C1522054   3.025   4.471   5.625  0.5325 -0.0443 -0.2794
  191SLPC  H15A22055   3.100   4.410   5.577  1.2547 -1.6544  2.6875
  191SLPC  H15B22056   3.035   4.574   5.593 -2.2240  0.5348  0.4469
  191SLPC  H15C22057   3.048   4.471   5.730 -1.5691 -1.7267  0.2483
  191SLPC   C1222058   2.862   4.291   5.671 -0.3004  0.2411 -0.3015
  191SLPC  H12A22059   2.896   4.229   5.590 -1.5092  0.6102 -1.1226
  191SLPC  H12B22060   2.756   4.267   5.674 -0.0466 -0.8610  1.0966
  191SLPC   C1122061   2.920   4.274   5.812  0.1665  0.7730 -0.3604
  191SLPC  H11A22062   2.878   4.356   5.873 -1.4226  0.5966 -1.1765
  191SLPC  H11B22063   3.031   4.278   5.812  0.2044  0.0482 -0.8346
  191SLPC     P22064   2.738   4.131   5.927 -0.1249 -0.3754 -0.3143
  191SLPC   O1322065   2.638   4.204   5.840 -0.1359 -0.0154 -0.4813
  191SLPC   O1422066   2.719   3.985   5.956 -0.2529 -0.1858 -0.8395
  191SLPC   O1222067   2.884   4.136   5.857  0.4155 -0.3245 -0.1268
  191SLPC   O1122068   2.757   4.211   6.062  0.0207  0.4014  0.4754
  191SLPC    C122069   2.878   4.195   6.136 -0.1591  0.9844 -0.5215
  191SLPC    HA22070   2.969   4.175   6.076  1.8555  0.9479  2.3663
  191SLPC    HB22071   2.899   4.289   6.191  4.3235  1.1805 -2.1664
  191SLPC    C222072   2.854   4.092   6.250 -0.6272  0.2816  0.0124
  191SLPC    HS22073   2.810   4.004   6.198 -0.1296  0.3184 -0.4843
  191SLPC   O2122074   2.765   4.162   6.341  0.0008  0.3791  0.3749
  191SLPC   C2122075   2.675   4.081   6.401 -0.5295  0.1710 -0.6433
  191SLPC   O2222076   2.663   3.962   6.378 -0.3830  0.0664 -0.1168
  191SLPC   C2222077   2.607   4.169   6.512 -0.0616 -0.0487 -0.0445
  191SLPC   H2R22078   2.527   4.234   6.470 -1.2161 -0.9411  0.7253
  191SLPC   H2S22079   2.550   4.105   6.582 -0.1514  0.4322  0.3211
  191SLPC    C322080   2.987   4.064   6.327 -0.6704  0.2265 -0.1033
  191SLPC    HX22081   3.027   4.167   6.338  0.0368  0.4235 -3.3737
  191SLPC    HY22082   3.063   4.010   6.266  0.8130 -0.6531  2.3846
  191SLPC   O3122083   2.966   3.987   6.446 -0.1798 -0.3340 -0.6584
  191SLPC   C3122084   3.018   3.862   6.467 -0.9167  0.0870 -0.6106
  191SLPC   O3222085   3.079   3.794   6.383  0.6930 -0.1817  0.1081
  191SLPC   C3222086   2.977   3.798   6.601 -0.1537 -0.1677  1.0824
  191SLPC   H2X22087   3.066   3.750   6.647  0.9785  1.7337  0.9583
  191SLPC   H2Y22088   2.910   3.712   6.576  1.7640 -1.1661 -0.9503
  191SLPC   C2322089   2.719   4.247   6.589 -0.2053 -0.8376 -0.2724
  191SLPC   H3R22090   2.772   4.320   6.524  1.8794 -1.1801  0.9524
  191SLPC   H3S22091   2.801   4.177   6.615  1.2116  1.2812  1.3005
  191SLPC   C2422092   2.666   4.334   6.706 -0.3416  0.3968 -0.7595
  191SLPC   H4R22093   2.555   4.343   6.699 -1.0942 -2.5336  3.6281
  191SLPC   H4S22094   2.702   4.438   6.690  0.5979  0.1246 -0.4694
  191SLPC   C2522095   2.703   4.280   6.844  0.0929 -0.5802  0.4056
  191SLPC   H5R22096   2.811   4.254   6.847  0.3233 -0.0337 -1.8709
  191SLPC   H5S22097   2.653   4.183   6.868 -3.3140  1.2840  1.4626
  191SLPC   C2622098   2.669   4.373   6.963 -0.4562  0.0809  0.0055
  191SLPC   H6R22099   2.559   4.381   6.972 -0.5595  0.1131 -1.0959
  191SLPC   H6S22100   2.711   4.475   6.949 -1.7469  0.7459  0.8514
  191SLPC   C2722101   2.736   4.328   7.088  0.6346 -0.7056  0.4034
  191SLPC   H7R22102   2.845   4.334   7.066  0.4063 -0.1316 -0.6675
  191SLPC   H7S22103   2.718   4.219   7.093  3.4973 -1.3868 -1.3762
  191SLPC   C2822104   2.693   4.396   7.219  0.0290  0.1835  0.2143
  191SLPC   H8R22105   2.585   4.380   7.240  0.4043 -0.8891  1.4148
  191SLPC   H8S22106   2.712   4.506   7.211  0.4462  0.1989  1.2447
  191SLPC   C2922107   2.784   4.345   7.330 -0.5521  1.0276 -0.1469
  191SLPC   H9R22108   2.887   4.319   7.303  0.0701  0.5026  2.4800
  191SLPC  C21022109   2.747   4.319   7.457  0.0677 -0.4756  0.1664
  191SLPC  H10R22110   2.826   4.273   7.518 -0.4284 -0.3262  0.9431
  191SLPC  C21122111   2.604   4.339   7.508  0.0010 -0.5220 -0.3427
  191SLPC  H11R22112   2.559   4.239   7.519  0.7282 -1.6932 -5.3275
  191SLPC  H11S22113   2.532   4.398   7.446 -0.7826  0.7984  1.7329
  191SLPC  C21222114   2.617   4.424   7.633 -0.4880  0.1336 -0.1746
  191SLPC  H12R22115   2.684   4.511   7.625  0.7142 -0.3669  2.8207
  191SLPC  C21322116   2.537   4.419   7.744 -0.1054 -0.2350 -0.5122
  191SLPC  H13R22117   2.568   4.480   7.830  1.9064 -2.3976  0.4017
  191SLPC  C21422118   2.430   4.319   7.770  0.7064 -0.0047 -0.0030
  191SLPC  H14R22119   2.447   4.228   7.708  2.7161 -0.6223  1.3478
  191SLPC  H14S22120   2.328   4.356   7.744  0.3637  0.6105  2.0527
  191SLPC  C21522121   2.435   4.287   7.918 -0.1709  0.3394  0.6166
  191SLPC  H15R22122   2.332   4.246   7.929 -0.4364  0.6016 -0.7258
  191SLPC  H15S22123   2.439   4.374   7.987  0.2784  0.8827 -0.0742
  191SLPC  C21622124   2.526   4.174   7.961 -0.1732  0.1693 -0.0337
  191SLPC  H16R22125   2.628   4.218   7.949 -0.3417  0.4929 -0.2992
  191SLPC  H16S22126   2.508   4.096   7.884 -0.1553 -1.3058  1.3864
  191SLPC  C21722127   2.500   4.118   8.101 -1.2451  0.1932  0.0345
  191SLPC  H17R22128   2.547   4.017   8.110  1.3335  1.3745  0.5628
  191SLPC  H17S22129   2.390   4.104   8.102 -1.0729 -1.3986  0.9966
  191SLPC  C21822130   2.559   4.182   8.227 -0.2262 -0.5595  0.5546
  191SLPC  H18R22131   2.542   4.292   8.233 -2.9218 -0.8600 -0.2728
  191SLPC  H18S22132   2.668   4.164   8.215 -0.4652 -1.2153 -0.9004
  191SLPC  H18T22133   2.519   4.147   8.324  1.2660 -0.1490  1.3476
  191SLPC   C3322134   2.902   3.894   6.690  0.7380  0.6064 -0.2312
  191SLPC   H3X22135   2.794   3.890   6.667  0.1901  1.9094  1.8235
  191SLPC   H3Y22136   2.938   4.000   6.687  1.7373  0.2625 -0.7016
  191SLPC   C3422137   2.910   3.844   6.835 -0.4785 -0.3715  0.7407
  191SLPC   H4X22138   3.015   3.853   6.870 -0.7181  1.8257  1.0636
  191SLPC   H4Y22139   2.877   3.739   6.846  1.1724 -1.3474 -2.3673
  191SLPC   C3522140   2.828   3.922   6.934  1.1522  0.6503 -0.7996
  191SLPC   H5X22141   2.723   3.908   6.901  0.1864 -0.1636  2.3304
  191SLPC   H5Y22142   2.853   4.030   6.944 -0.1465  0.7077  3.8136
  191SLPC   C3622143   2.841   3.852   7.076 -0.0831 -0.2191 -0.5833
  191SLPC   H6X22144   2.943   3.847   7.120 -0.4260 -1.7024  0.0994
  191SLPC   H6Y22145   2.808   3.746   7.068  1.8814 -0.8030 -1.4627
  191SLPC   C3722146   2.751   3.926   7.182 -0.0439 -0.0230 -0.2600
  191SLPC   H7X22147   2.649   3.936   7.139  0.1049  1.8619 -0.2676
  191SLPC   H7Y22148   2.799   4.024   7.204  1.6296 -0.7627 -0.4287
  191SLPC   C3822149   2.744   3.855   7.319  0.2563  0.0483 -0.4953
  191SLPC   H8X22150   2.847   3.839   7.356  1.0115 -0.9775 -2.8470
  191SLPC   H8Y22151   2.700   3.754   7.303 -0.4954  0.4901 -1.3338
  191SLPC   C3922152   2.660   3.926   7.428 -0.4454 -0.6143  0.4187
  191SLPC   H9X22153   2.563   3.955   7.384  0.2166  1.9654  0.4889
  191SLPC   H9Y22154   2.710   4.022   7.454 -1.6448  0.5755 -1.4481
  191SLPC  C31022155   2.648   3.850   7.561  0.1503 -0.6171 -0.4316
  191SLPC  H10X22156   2.686   3.746   7.561  0.8251 -0.3741  0.0268
  191SLPC  H10Y22157   2.544   3.829   7.594 -0.0466  0.0523 -0.6125
  191SLPC  C31122158   2.718   3.927   7.677 -0.0502  0.4103 -0.5026
  191SLPC  H11X22159   2.673   4.027   7.688  1.3432  0.8703  1.8545
  191SLPC  H11Y22160   2.823   3.955   7.654  0.3642 -0.9224 -0.3335
  191SLPC  C31222161   2.704   3.852   7.811 -0.8404  0.1200 -0.0647
  191SLPC  H12X22162   2.750   3.751   7.799  1.3199  1.0098  0.2951
  191SLPC  H12Y22163   2.596   3.838   7.831 -0.8468 -0.7417 -0.6198
  191SLPC  C31322164   2.774   3.921   7.926  0.1148 -0.3335  0.3160
  191SLPC  H13X22165   2.696   3.958   7.996  0.7023  0.9197  0.3253
  191SLPC  H13Y22166   2.833   4.002   7.879  2.2871 -1.9602  0.0970
  191SLPC  C31422167   2.876   3.845   8.005  0.3383 -0.7142 -0.4451
  191SLPC  H14X22168   2.951   3.786   7.948  0.5572  0.6644 -1.6245
  191SLPC  H14Y22169   2.817   3.772   8.065 -2.3278 -1.3046 -3.5287
  191SLPC  C31522170   2.945   3.915   8.121  0.1669 -0.5136  0.6052
  191SLPC  H15X22171   3.001   3.827   8.158  0.1681 -0.6596  0.2609
  191SLPC  H15Y22172   2.862   3.959   8.182 -0.2723 -1.0886  0.4329
  191SLPC  C31622173   3.051   4.026   8.078  0.2103 -0.6957  0.0699
  191SLPC  H16X22174   3.078   3.998   7.974 -3.7802  2.0210 -1.9481
  191SLPC  H16Y22175   3.138   4.015   8.146  0.3955 -3.1438 -0.4751
  191SLPC  C31722176   2.987   4.169   8.078  0.8102  0.9526 -0.3778
  191SLPC  H17X22177   2.957   4.189   8.183  0.3711  0.2111 -0.3600
  191SLPC  H17Y22178   2.897   4.175   8.014  2.0373 -0.9234 -2.4226
  191SLPC  C31822179   3.070   4.286   8.030  0.1285 -0.1206 -0.0980
  191SLPC  H18X22180   3.140   4.304   8.114  0.0206  3.0992 -0.5856
  191SLPC  H18Y22181   3.019   4.384   8.017 -1.8595 -0.9752  0.9453
  191SLPC  H18Z22182   3.136   4.253   7.947 -0.6210 -3.0326  0.3467
  192SLPC     N22183   3.588   4.529   6.255  0.4360  0.4517 -0.1753
  192SLPC   C1322184   3.567   4.667   6.202  0.9904  0.2669  0.1316
  192SLPC  H13A22185   3.507   4.678   6.113  0.7721  0.7908  0.3358
  192SLPC  H13B22186   3.528   4.736   6.276 -1.1132 -1.7355  1.0324
  192SLPC  H13C22187   3.663   4.706   6.172 -0.2593  4.6369  1.0879
  192SLPC   C1422188   3.652   4.444   6.155  0.0425 -0.0821  0.6561
  192SLPC  H14A22189   3.600   4.440   6.060  0.6428 -1.8839  0.3611
  192SLPC  H14B22190   3.748   4.485   6.127 -1.2015  1.8503 -1.0761
  192SLPC  H14C22191   3.655   4.340   6.182  1.4195 -0.5526 -1.1052
  192SLPC   C1522192   3.456   4.466   6.280 -0.5073 -0.1024 -0.0006
  192SLPC  H15A22193   3.467   4.370   6.330 -0.1305  0.8060  1.7253
  192SLPC  H15B22194   3.389   4.523   6.343  0.0316  2.0689 -1.2880
  192SLPC  H15C22195   3.408   4.450   6.184  2.4612 -0.6083 -1.5207
  192SLPC   C1222196   3.663   4.528   6.380 -0.1586 -0.3600 -0.3814
  192SLPC  H12A22197   3.757   4.580   6.367 -1.0967  2.2380  2.0363
  192SLPC  H12B22198   3.679   4.425   6.407 -0.6088 -0.4647 -0.5093
  192SLPC   C1122199   3.601   4.592   6.503  0.3073 -0.9700  0.4871
  192SLPC  H11A22200   3.651   4.558   6.596  1.0800 -0.1854  0.3681
  192SLPC  H11B22201   3.495   4.561   6.516  0.2291 -0.9170  0.0029
  192SLPC     P22202   3.730   4.827   6.499 -0.1153 -0.1167 -0.2378
  192SLPC   O1322203   3.841   4.750   6.442  0.4137  0.3413  0.2777
  192SLPC   O1422204   3.706   4.962   6.442 -0.0962  0.3026 -0.6602
  192SLPC   O1222205   3.604   4.734   6.491  0.1912  0.4595  0.2915
  192SLPC   O1122206   3.753   4.842   6.653  0.0908  0.4639  0.3497
  192SLPC    C122207   3.687   4.938   6.726  0.3798 -0.1358 -0.3915
  192SLPC    HA22208   3.734   5.038   6.721 -0.4546  0.5913  3.5484
  192SLPC    HB22209   3.583   4.948   6.689  0.4880 -0.7652 -0.8990
  192SLPC    C222210   3.685   4.881   6.869 -0.2131  0.4859  0.8829
  192SLPC    HS22211   3.606   4.933   6.927  1.3255  1.6619  1.9972
  192SLPC   O2122212   3.816   4.890   6.926  0.2657  0.3923  0.3566
  192SLPC   C2122213   3.842   5.009   6.975 -0.0388 -0.3500 -0.6794
  192SLPC   O2222214   3.759   5.099   6.994 -0.6135  0.4735 -0.1908
  192SLPC   C2222215   3.994   5.012   7.010 -0.4845  1.1193 -0.4113
  192SLPC   H2R22216   4.037   4.910   7.026 -0.4944  1.4265  1.8171
  192SLPC   H2S22217   4.046   5.052   6.920  0.4033  0.2270 -0.3156
  192SLPC    C322218   3.638   4.730   6.880 -0.9540 -0.8243  0.5779
  192SLPC    HX22219   3.699   4.652   6.829 -2.1756 -0.7952 -1.0168
  192SLPC    HY22220   3.547   4.719   6.817 -0.5316 -0.6425 -0.0715
  192SLPC   O3122221   3.596   4.688   7.016 -0.4210  0.3582 -0.1180
  192SLPC   C3122222   3.610   4.555   7.044 -0.1438 -0.6190 -0.2016
  192SLPC   O3222223   3.653   4.471   6.967  0.7783 -0.0802  0.3167
  192SLPC   C3222224   3.568   4.529   7.187 -0.0134  0.2847  0.0311
  192SLPC   H2X22225   3.614   4.430   7.207  1.0562  1.4105  4.0638
  192SLPC   H2Y22226   3.459   4.526   7.205  0.3017  0.7893  2.3350
  192SLPC   C2322227   4.015   5.103   7.140  0.1733  0.1914 -0.1821
  192SLPC   H3R22228   3.948   5.191   7.125 -0.4133 -0.1442  0.4200
  192SLPC   H3S22229   4.117   5.146   7.140 -0.5476  1.9962 -0.1808
  192SLPC   C2422230   3.988   5.020   7.269 -0.0834  0.2054 -0.1642
  192SLPC   H4R22231   4.045   4.926   7.285  1.1757  0.7352 -1.3089
  192SLPC   H4S22232   3.880   5.000   7.278  0.3151 -2.0793  0.0055
  192SLPC   C2522233   4.021   5.109   7.390  0.0604 -0.3637  0.2676
  192SLPC   H5R22234   3.945   5.190   7.385 -0.5088 -0.9081  0.1133
  192SLPC   H5S22235   4.121   5.159   7.391 -0.5751  0.9486  0.0090
  192SLPC   C2622236   4.012   5.036   7.521 -0.2483  0.2546  0.0755
  192SLPC   H6R22237   4.104   4.979   7.547 -1.5098 -1.8134  0.2655
  192SLPC   H6S22238   3.929   4.963   7.507  0.2989 -0.7813  1.9651
  192SLPC   C2722239   4.003   5.140   7.633 -0.1008  0.1946  0.1052
  192SLPC   H7R22240   3.927   5.109   7.708 -0.2559 -0.9007 -0.4743
  192SLPC   H7S22241   3.962   5.236   7.594 -2.5237 -0.8486 -0.1386
  192SLPC   C2822242   4.146   5.173   7.694 -0.5055  0.8866  0.2285
  192SLPC   H8R22243   4.212   5.204   7.610  0.8496 -1.6603  0.2472
  192SLPC   H8S22244   4.192   5.077   7.726  0.0068  1.0710  0.0665
  192SLPC   C2922245   4.139   5.275   7.808  0.3002  0.4357  0.4160
  192SLPC   H9R22246   4.149   5.382   7.786  0.5013  0.3003 -0.1753
  192SLPC  C21022247   4.127   5.244   7.938 -0.6706 -0.5435 -0.3393
  192SLPC  H10R22248   4.117   5.328   8.008  1.2700  1.3114 -2.1421
  192SLPC  C21122249   4.111   5.112   8.006  0.4857  0.2408 -0.4156
  192SLPC  H11R22250   4.159   5.029   7.950  0.7044  1.0367 -1.4303
  192SLPC  H11S22251   4.001   5.101   8.013  0.3917  0.6374 -1.2634
  192SLPC  C21222252   4.172   5.108   8.145  0.2864  0.6372  0.2796
  192SLPC  H12R22253   4.281   5.110   8.142  0.3877 -1.8090 -0.3619
  192SLPC  C21322254   4.107   5.087   8.262  0.3415 -0.2851 -0.0545
  192SLPC  H13R22255   4.166   5.104   8.354 -0.3337 -0.3545  0.4013
  192SLPC  C21422256   3.956   5.073   8.284 -0.1455  0.3784 -0.1254
  192SLPC  H14R22257   3.895   5.102   8.196 -1.6024 -2.1850 -0.0677
  192SLPC  H14S22258   3.920   5.136   8.368 -5.8714 -0.0801 -1.8289
  192SLPC  C21522259   3.915   4.926   8.330 -1.0243 -0.0835 -0.3378
  192SLPC  H15R22260   3.956   4.852   8.257 -0.1752 -1.2342  1.2401
  192SLPC  H15S22261   3.806   4.919   8.313 -0.6927 -3.1292 -1.9930
  192SLPC  C21622262   3.964   4.895   8.476 -0.3051 -0.1975  0.4367
  192SLPC  H16R22263   3.938   4.977   8.546 -1.2324  1.3674 -1.6595
  192SLPC  H16S22264   4.075   4.897   8.476 -0.1943 -1.8325  2.4856
  192SLPC  C21722265   3.917   4.750   8.519  0.8308  0.6737  0.1164
  192SLPC  H17R22266   3.806   4.749   8.506  0.9740 -0.1030 -1.0844
  192SLPC  H17S22267   3.969   4.677   8.454  3.0896  1.5129  0.8716
  192SLPC  C21822268   3.934   4.728   8.666  0.0194  0.4438 -0.4212
  192SLPC  H18R22269   4.039   4.727   8.703  0.3778 -0.0402 -1.4122
  192SLPC  H18S22270   3.880   4.636   8.694 -1.8248  1.9429  1.2906
  192SLPC  H18T22271   3.895   4.821   8.714  0.9320  1.1714 -1.0414
  192SLPC   C3322272   3.639   4.623   7.290 -0.2558 -0.9263  0.0292
  192SLPC   H3X22273   3.610   4.729   7.279  1.7067 -0.4593 -1.0624
  192SLPC   H3Y22274   3.745   4.628   7.255  0.0926  0.2496  1.1708
  192SLPC   C3422275   3.641   4.580   7.439 -0.5586 -1.1875  0.4226
  192SLPC   H4X22276   3.665   4.472   7.440 -3.3193 -1.8935 -0.4838
  192SLPC   H4Y22277   3.539   4.597   7.478 -0.3747  1.6882 -0.1001
  192SLPC   C3522278   3.716   4.688   7.514  0.0269 -0.0298  0.3421
  192SLPC   H5X22279   3.658   4.781   7.498  1.7766  1.1250  0.5805
  192SLPC   H5Y22280   3.823   4.690   7.486  0.8057 -2.5888  2.6694
  192SLPC   C3622281   3.719   4.657   7.669 -0.6043  1.0481  0.0832
  192SLPC   H6X22282   3.780   4.567   7.691  0.5389  1.3638 -1.5934
  192SLPC   H6Y22283   3.616   4.644   7.708 -0.0550 -0.8099  1.0361
  192SLPC   C3722284   3.772   4.781   7.741 -0.4616 -0.3312  0.2453
  192SLPC   H7X22285   3.695   4.861   7.741 -1.9649 -1.7077 -0.4574
  192SLPC   H7Y22286   3.848   4.827   7.674 -0.7925 -0.2009 -0.0484
  192SLPC   C3822287   3.833   4.755   7.883  0.1898 -0.0246  0.0040
  192SLPC   H8X22288   3.749   4.731   7.952 -0.2828  1.7081  0.0775
  192SLPC   H8Y22289   3.882   4.844   7.928  1.2302 -1.8503  2.7448
  192SLPC   C3922290   3.944   4.643   7.878 -0.6964  0.5325 -0.1479
  192SLPC   H9X22291   3.971   4.629   7.771  2.5960 -2.2301  0.8643
  192SLPC   H9Y22292   3.905   4.551   7.926  0.6866 -0.4822 -0.9042
  192SLPC  C31022293   4.079   4.695   7.934 -0.9657  0.1816 -0.6292
  192SLPC  H10X22294   4.068   4.747   8.032  2.5418 -1.5635  0.8561
  192SLPC  H10Y22295   4.135   4.771   7.877  0.7755  0.2497  1.0580
  192SLPC  C31122296   4.186   4.586   7.961  0.4065 -0.1749  0.2891
  192SLPC  H11X22297   4.203   4.544   7.859  2.7839 -0.0737  0.5977
  192SLPC  H11Y22298   4.147   4.507   8.028  0.0514 -0.1079  0.1627
  192SLPC  C31222299   4.315   4.648   7.999  0.2889  0.0538 -0.4252
  192SLPC  H12X22300   4.294   4.685   8.102  0.4757 -1.0227  0.0054
  192SLPC  H12Y22301   4.357   4.731   7.938  1.4661  0.6283  1.0887
  192SLPC  C31322302   4.433   4.551   7.984 -0.1815  0.0029 -0.4561
  192SLPC  H13X22303   4.451   4.543   7.874  0.0239  2.1674 -0.6220
  192SLPC  H13Y22304   4.423   4.448   8.024 -0.7390 -0.1514 -0.9802
  192SLPC  C31422305   4.578   4.596   8.033 -0.1884  0.4947 -0.5131
  192SLPC  H14X22306   4.593   4.704   8.053 -0.9332  0.4964  0.1172
  192SLPC  H14Y22307   4.651   4.577   7.952  1.3618 -1.0249  1.1463
  192SLPC  C31522308   4.647   4.505   8.146  0.0071  0.9046 -0.5834
  192SLPC  H15X22309   4.628   4.397   8.130 -0.4739  1.0135 -0.7755
  192SLPC  H15Y22310   4.606   4.533   8.246  1.6959 -1.4086  0.8552
  192SLPC  C31622311   4.798   4.529   8.157 -0.3171  0.1129  0.6077
  192SLPC  H16X22312   4.816   4.630   8.199  1.9951 -0.1654  0.4162
  192SLPC  H16Y22313   4.833   4.527   8.051 -1.5378 -0.3730  0.1845
  192SLPC  C31722314   4.873   4.425   8.246  0.7183  0.1317  0.2673
  192SLPC  H17X22315   4.847   4.450   8.351  1.8877 -0.1497  0.6474
  192SLPC  H17Y22316   4.982   4.448   8.241  1.1926 -2.0374 -3.8098
  192SLPC  C31822317   4.855   4.282   8.190  0.2055  0.2973 -0.8687
  192SLPC  H18X22318   4.757   4.234   8.207  1.2226 -2.0790 -1.3068
  192SLPC  H18Y22319   4.935   4.214   8.226  0.1487 -0.6403 -2.4440
  192SLPC  H18Z22320   4.850   4.279   8.079  2.0460 -0.2241 -0.9706
  193SOD    SOD22321   4.556   2.223   3.850  0.3389 -0.0247  0.4922
  194SOD    SOD22322   4.629   2.340  16.400 -0.2582  0.2639  0.2267
  195SOD    SOD22323   6.223   4.617   5.921  0.5120 -0.2751  0.4075
  196SOD    SOD22324   2.739   3.667  11.458  0.4955 -0.2829  0.4039
  197SOD    SOD22325   4.578   5.331  10.666 -0.3254  0.6249 -0.9248
  198SOD    SOD22326   3.269   0.468   1.857 -0.1317  0.1630 -0.0106
  199SOD    SOD22327   3.416   6.729  11.084 -0.1797 -0.3430 -0.0690
  200SOD    SOD22328   0.283   4.304   4.193 -0.4704 -0.7317 -0.5873
  201SOD    SOD22329   2.087   0.675  11.004 -0.0212  0.9704 -0.1080
  202SOD    SOD22330   1.596   5.634  15.471  0.1929  0.2110  0.1921
  203SOD    SOD22331   1.685   2.545   4.572 -0.7223  0.1063  0.1936
  204SOD    SOD22332   1.631   1.629  15.161  0.6390 -0.3233 -0.3529
  205SOD    SOD22333   0.523   4.155   6.332  0.5075  0.3277 -0.2101
  206SOD    SOD22334   6.120   2.852  14.565 -0.0097  0.2328  0.0805
  207SOD    SOD22335   6.304   6.454   0.102  0.1893  0.1165  0.4763
  208SOD    SOD22336   1.598   4.282  15.026  0.1551 -0.8479  0.0680
  209SOD    SOD22337   1.596   2.699   3.868 -0.3086  0.1873 -0.4074
  210SOD    SOD22338   6.017   4.573   4.584 -0.6843  0.0863  0.3530
  211SOD    SOD22339   6.642   1.795  15.215 -0.1538 -0.1937  0.4148
  212SOD    SOD22340   2.863   2.621  11.810  0.5487 -0.3473 -0.1427
  213SOD    SOD22341   3.824   5.582   6.430 -0.2803 -0.2159  0.8164
  214SOD    SOD22342   0.757   3.955  11.015  0.1549  0.4567  0.1654
  215SOD    SOD22343   3.944   3.748   4.717  0.2331  0.2832  0.5233
  216SOD    SOD22344   6.430   4.808   0.385  0.5424 -0.4396  0.5475
  217SOD    SOD22345   2.700   0.143   5.639  0.0506 -0.0556  0.1726
  218SOD    SOD22346   3.202   0.146   4.273  0.1281 -0.3465  0.0780
  219SOD    SOD22347   6.098   3.357   3.708 -0.1202 -0.0158  0.0535
  220SOD    SOD22348   2.882   1.669   1.861 -0.4104  0.9695 -0.2526
  221SOD    SOD22349   2.413   4.736   5.498 -0.1058 -0.5787 -0.4433
  222SOD    SOD22350   0.337   2.416   0.191  0.4144 -0.3728  0.1370
  223SOD    SOD22351   2.913   3.275   6.078 -0.2211 -0.1018  0.1055
  224SOD    SOD22352   2.731   5.824   2.131  0.1581  0.2824 -0.2190
  225SOD    SOD22353   5.209   6.741  15.172  0.2884 -0.0117 -0.0824
  226SOD    SOD22354   5.592   0.577   6.310 -0.1111 -0.0497 -0.3356
  227SOD    SOD22355   4.480   3.501   1.299 -0.1845 -0.3804 -0.2624
  228SOD    SOD22356   5.620   1.660   1.271  0.1810 -0.0354  0.7385
  229SOD    SOD22357   4.906   5.115  11.333 -0.1900  0.0172  0.6585
  230SOD    SOD22358   3.796   4.790   4.479 -0.0235  0.2451 -0.4464
  231SOD    SOD22359   6.313   3.994  11.744  0.0798  0.2982 -0.2759
  232SOD    SOD22360   5.011   5.961  13.911 -0.0589 -0.0894  0.2763
  233SOD    SOD22361   4.843   2.562  12.353 -0.1133 -0.5182  0.1848
  234SOD    SOD22362   5.431   3.526   6.332  0.2276  0.0445 -0.4308
  235SOD    SOD22363   2.026   1.855  13.517  0.4740  0.4182 -0.5126
  236SOD    SOD22364   5.659   6.276   1.921 -0.3959  0.0815 -0.0192
  237SOD    SOD22365   3.585   5.927   1.245 -0.2496 -0.0632  0.0947
  238SOD    SOD22366   5.570   2.497  11.515  0.2016 -0.0437 -0.0910
  239SOD    SOD22367   0.055   0.824   1.731  0.0124 -0.4551  0.3594
  240SOD    SOD22368   6.157   2.148  14.260 -0.1086 -0.2778  0.4169
  241SOD    SOD22369   2.611   6.732   4.749  0.1750 -0.7091  0.0321
  242SOD    SOD22370   1.128   4.509  10.547  0.5508 -0.2310  0.0479
  243SOD    SOD22371   3.653   0.596   6.327 -0.3837 -0.1413 -0.2771
  244SOD    SOD22372   0.303   6.168  13.788  0.2188 -0.1100  0.1257
  245SOD    SOD22373   1.220   4.481  16.479 -0.0649 -0.6144 -0.1149
  246SOD    SOD22374   5.906   6.669   2.671  0.0565  0.1246  0.1538
  247SOD    SOD22375   4.902   1.050   5.180 -0.5674  0.2253 -0.1865
  248SOD    SOD22376   1.356   5.671   1.666 -0.0046  0.4442 -0.3109
  249SOD    SOD22377   1.218   1.020   1.610  0.1867  0.2093 -0.4819
  250SOD    SOD22378   6.640   4.607  16.017  0.2447  0.1118 -0.2467
  251SOD    SOD22379   1.310   0.317  13.137  0.1716 -0.0680  0.2902
  252SOD    SOD22380   0.039   2.177   2.199  0.0578 -0.2403  0.2416
  253SOD    SOD22381   6.639   2.384  12.186 -0.1609 -0.1314  0.2388
  254SOD    SOD22382   5.317   0.210  10.763  0.5167  0.1030  0.3984
  255SOD    SOD22383   6.774   4.475   3.295 -0.4025  0.6816 -0.2317
  256SOD    SOD22384   5.355   2.085  15.727  0.3789 -0.5231  0.0470
  257SOD    SOD22385   3.057   0.216   3.320  0.2820 -0.2800  0.0749
  258SOD    SOD22386   0.425   0.260  14.348 -0.0596  0.3275 -0.4596
  259SOD    SOD22387   3.871   3.966   2.586 -0.0660  0.1503 -0.0103
  260SOD    SOD22388   3.592   1.973   2.456  0.5943 -0.4429  0.1097
  261SOD    SOD22389   1.091   2.341  15.477  0.1881 -0.3110  0.0175
  262SOD    SOD22390   4.956   1.516  10.744 -0.0115 -0.0638 -0.6581
  263SOD    SOD22391   6.488   5.793  15.870 -0.1829 -0.0566  0.0243
  264SOD    SOD22392   0.645   6.550  14.278 -0.0152  0.3973  0.0897
  265SOD    SOD22393   3.312   3.415   4.556  0.2760 -0.5684  0.3886
  266CLA    CLA22394   2.450   3.184   1.419 -0.0519  0.2801 -0.2292
  267CLA    CLA22395   0.164   4.020  15.011 -0.1669 -0.1384 -0.1384
  268CLA    CLA22396   0.388   5.128  11.623  0.2790 -0.2697  0.0748
  269CLA    CLA22397   0.072   0.262  15.658 -0.0418 -0.2138 -0.0647
  270CLA    CLA22398   4.066   0.532  15.681  0.2732  0.0025 -0.0878
  271CLA    CLA22399   3.451   1.398   0.963  0.2110  0.0115  0.3212
  272CLA    CLA22400   1.464   3.887  16.535  0.1586  0.0260 -0.3266
  273CLA    CLA22401   6.788   1.416   1.406  0.1249 -0.2690  0.0681
  274CLA    CLA22402   6.088   6.365  16.778 -0.1107 -0.0846  0.4227
  275CLA    CLA22403   1.532   6.111   5.728  0.3508 -0.1806  0.1627
  276CLA    CLA22404   3.448   4.138   4.341  0.0413 -0.0758 -0.0998
  277CLA    CLA22405   5.018   6.863  11.160  0.0930  0.1002  0.0195
  278CLA    CLA22406   2.494   1.311   2.080 -0.3356  0.8881 -0.1417
  279CLA    CLA22407   4.925   3.394   3.128  0.2122 -0.2114  0.3342
  280CLA    CLA22408   3.634   1.801  12.213 -0.2180 -0.3446 -0.2563
  281CLA    CLA22409   4.379   0.937   1.804  0.0758  0.1904  0.5379
  282CLA    CLA22410   3.595   3.968  12.151  0.3474 -0.1661  0.0336
  283CLA    CLA22411   1.376   2.747   0.043 -0.4177 -0.0893  0.1567
  284CLA    CLA22412   0.416   6.825   2.060 -0.4432  0.4609 -0.1980
  285CLA    CLA22413   3.042   1.533   3.609 -0.1160 -0.2747 -0.3822
  286CLA    CLA22414   6.198   2.546  12.710 -0.0819 -0.0010  0.0069
  287CLA    CLA22415   4.485   5.972   5.249 -0.0397 -0.4843 -0.1444
  288CLA    CLA22416   2.626   4.005   3.860  0.2569 -0.0945  0.0290
  289CLA    CLA22417   2.219   5.770   2.762 -0.0721  0.0690 -0.1223
  290CLA    CLA22418   4.279   4.971   4.251  0.0761  0.0693 -0.1893
  291CLA    CLA22419   5.445   3.838   2.117 -0.2066  0.6215 -0.0184
  292CLA    CLA22420   1.112   3.222   1.113  0.5393 -0.2191  0.1033
  293CLA    CLA22421   2.902   2.702   4.607  0.1022 -0.0882 -0.2581
  294CLA    CLA22422   4.212   1.168  14.684 -0.1663 -0.1856  0.1999
  295CLA    CLA22423   2.468   6.001   5.685 -0.2239 -0.0445  0.2658
  296CLA    CLA22424   0.175   2.444  16.411 -0.1405 -0.3942 -0.0951
  297CLA    CLA22425   0.151   6.101  15.630  0.3559 -0.2225  0.2275
  298CLA    CLA22426   3.262   6.719   3.468 -0.1008  0.4716 -0.6240
  299CLA    CLA22427   4.797   2.824   4.760 -0.1305 -0.0299 -0.4564
  300CLA    CLA22428   6.355   2.212  15.446 -0.0736  0.2142  0.0990
  301CLA    CLA22429   5.431   1.062   5.357 -0.0595 -0.0118 -0.0674
  302CLA    CLA22430   6.511   6.168  14.017 -0.2276 -0.0558  0.0778
  303CLA    CLA22431   3.665   5.029   1.341  0.2310 -0.5193 -0.1245
  304CLA    CLA22432   6.290   4.596  12.656  0.1257  0.0148  0.1357
  305CLA    CLA22433   1.575   2.232   3.952 -0.0289  0.1149 -0.0679
  306CLA    CLA22434   3.592   0.537  16.404 -0.0238 -0.4099 -0.2838
  307CLA    CLA22435   5.994   1.525   2.482  0.5092 -0.0604 -0.2970
  308CLA    CLA22436   0.949   3.315  15.025  0.1004 -0.0123  0.0229
  309CLA    CLA22437   3.354   4.527   0.978  0.1914 -0.1630 -0.4925
  310CLA    CLA22438   0.899   1.063  16.520 -0.0174  0.1915 -0.2472
  311CLA    CLA22439   4.583   6.691  12.962  0.3576  0.2267 -0.0781
  312CLA    CLA22440   2.054   3.652   4.013  0.3255 -0.0161 -0.0104
  313CLA    CLA22441   3.436   5.036   4.795 -0.2353  0.1461  0.1212
  314CLA    CLA22442   0.708   1.407  11.671  0.2233  0.5531 -0.2863
  315CLA    CLA22443   1.140   5.898  13.204  0.0082 -0.0518 -0.2575
  316CLA    CLA22444   3.440   1.159  16.273 -0.0733 -0.1233  0.1230
  317CLA    CLA22445   5.085   4.012  15.155 -0.3952  0.3356  0.2929
  318CLA    CLA22446   1.327   6.836  13.513  0.0334 -0.3273  0.0532
  319TIP3   OH222447   3.270   4.158  13.782  0.3670  0.3717 -0.1702
  319TIP3    H122448   3.276   4.220  13.710  1.2207  2.0840  1.2970
  319TIP3    H222449   3.204   4.094  13.754 -0.3613  1.7975 -1.8421
  320TIP3   OH222450   3.387   0.051  13.790 -0.5367 -0.4845 -0.0712
  320TIP3    H122451   3.411  -0.023  13.735  0.7816 -1.7992  2.1230
  320TIP3    H222452   3.453   0.052  13.860 -0.2134  3.0549 -0.2170
  321TIP3   OH222453   5.914   3.360  11.105 -0.1138 -0.1601 -0.0535
  321TIP3    H122454   5.862   3.387  11.029  1.4457 -0.0126 -1.1113
  321TIP3    H222455   5.854   3.369  11.179 -2.3955 -2.4179 -1.4649
  322TIP3   OH222456   4.233   3.024   5.978 -0.3116  0.1825 -0.4131
  322TIP3    H122457   4.266   3.069   5.900 -0.2433  0.7518 -0.0639
  322TIP3    H222458   4.158   2.973   5.947  0.6263 -0.8054 -1.1409
  323TIP3   OH222459   6.551   1.712  15.411 -0.8999 -0.5797  0.0675
  323TIP3    H122460   6.479   1.649  15.410 -2.3788  1.0530 -0.2159
  323TIP3    H222461   6.559   1.739  15.502 -0.4139 -0.9914  0.1518
  324TIP3   OH222462   6.822   5.592  12.558 -0.5123  0.4205 -0.4344
  324TIP3    H122463   6.809   5.564  12.649 -1.9592  1.5508 -0.2543
  324TIP3    H222464   6.839   5.511  12.510 -1.5087 -0.4229  0.5651
  325TIP3   OH222465   6.720   0.597   2.710 -0.6782 -0.6741 -0.1121
  325TIP3    H122466   6.647   0.538   2.728 -0.2372 -0.8524  1.1637
  325TIP3    H222467   6.744   0.633   2.795  0.9035 -0.8301 -0.4651
  326TIP3   OH222468   0.410   5.350   5.678  0.8417  0.6428  0.3966
  326TIP3    H122469   0.335   5.392   5.720 -1.6496 -0.5523 -2.5329
  326TIP3    H222470   0.441   5.286   5.743 -0.8061  0.9701  1.5748
  327TIP3   OH222471   5.897   0.430   2.693  0.3102 -0.0653  0.0115
  327TIP3    H122472   5.956   0.457   2.623 -0.0347 -1.5314 -0.8683
  327TIP3    H222473   5.818   0.483   2.680  0.6872  0.5043  0.0188
  328TIP3   OH222474   1.826   2.884   1.411  0.1455 -0.2091 -0.6804
  328TIP3    H122475   1.787   2.971   1.398  1.9577  1.2947  2.6458
  328TIP3    H222476   1.761   2.836   1.463 -0.4463 -0.5457 -1.7013
  329TIP3   OH222477   0.127   3.983   6.775 -0.0645 -0.4477 -0.7283
  329TIP3    H122478   0.086   4.022   6.851 -0.7827 -0.1086 -1.2810
  329TIP3    H222479   0.170   3.904   6.809  0.3170  0.1289  0.1605
  330TIP3   OH222480   5.127   0.827  13.232 -0.1662 -0.2951 -0.6328
  330TIP3    H122481   5.063   0.891  13.199  0.6159  1.7095  1.4696
  330TIP3    H222482   5.091   0.799  13.316  1.0345 -0.1710 -0.0570
  331TIP3   OH222483   2.059   2.854   5.400  0.0586 -0.3555  0.0773
  331TIP3    H122484   2.119   2.921   5.365  0.4358 -1.4718 -1.5866
  331TIP3    H222485   1.976   2.871   5.356 -0.3390  0.0487  0.9647
  332TIP3   OH222486   5.510   1.942   5.001 -0.1022 -0.1757  0.6269
  332TIP3    H122487   5.506   1.983   5.087  0.9506  0.4608  0.3871
  332TIP3    H222488   5.577   1.875   5.009 -1.1613 -1.2470  0.7523
  333TIP3   OH222489   0.263   0.040   6.755  0.2733  0.1080  0.4603
  333TIP3    H122490   0.248   0.060   6.663 -1.6395  1.9094  1.1056
  333TIP3    H222491   0.290   0.123   6.794  4.0302 -1.1712  1.0924
  334TIP3   OH222492   6.802   2.124  16.911  0.3504  0.6321 -0.0385
  334TIP3    H122493   6.863   2.194  16.933  0.0246  0.2311  2.3657
  334TIP3    H222494   6.740   2.122  16.984 -0.2368 -1.5295 -0.5349
  335TIP3   OH222495   3.525   3.426  12.182 -0.3756 -0.1816  0.1970
  335TIP3    H122496   3.615   3.397  12.172  0.0681  1.1489  0.1046
  335TIP3    H222497   3.524   3.515  12.146 -1.2824  0.5355  1.8386
  336TIP3   OH222498   5.055   3.041   5.050  0.1726 -0.3300 -0.1781
  336TIP3    H122499   5.091   2.994   5.125  1.3773 -1.7550 -1.5714
  336TIP3    H222500   4.987   3.098   5.087  0.8639 -0.8332  1.9817
  337TIP3   OH222501   5.525   6.145   3.976 -0.1926  0.1773  0.2592
  337TIP3    H122502   5.555   6.168   3.889 -1.3136  3.1204  0.5462
  337TIP3    H222503   5.593   6.177   4.035 -0.8280  0.9718  0.5830
  338TIP3   OH222504   1.001   1.035  12.476  0.5769  1.0685  0.5005
  338TIP3    H122505   1.085   1.054  12.434  0.6452  0.3207  0.2812
  338TIP3    H222506   1.024   0.989  12.557  0.3795  0.7121  0.3575
  339TIP3   OH222507   1.123   4.552  12.349  0.0369  0.5906 -0.1646
  339TIP3    H122508   1.083   4.639  12.344  0.7653  0.9810  0.5211
  339TIP3    H222509   1.091   4.507  12.271 -0.8556  1.2529 -0.2073
  340TIP3   OH222510   3.184   5.997   2.816  0.0525  0.0677  0.4024
  340TIP3    H122511   3.232   5.928   2.861  0.2932  1.7359  2.9175
  340TIP3    H222512   3.094   5.964   2.810  0.5428 -1.2185 -0.2235
  341TIP3   OH222513   1.260   2.177  11.779 -0.3888 -0.2823 -0.0357
  341TIP3    H122514   1.170   2.146  11.767 -0.9178  1.3189 -0.5101
  341TIP3    H222515   1.308   2.141  11.704 -1.2645  0.9855 -1.2548
  342TIP3   OH222516   6.286   3.818   5.818  0.0171  0.3304 -0.2881
  342TIP3    H122517   6.296   3.829   5.913 -0.4719  0.2926 -0.2290
  342TIP3    H222518   6.268   3.724   5.807  0.8094  0.1943 -0.4886
  343TIP3   OH222519   6.236   6.773  14.774 -0.6883  0.0735  0.3407
  343TIP3    H122520   6.264   6.792  14.684 -2.2735  0.3316 -0.1358
  343TIP3    H222521   6.142   6.793  14.774 -0.7953 -0.3265  1.9513
  344TIP3   OH222522   0.859   0.298  12.608 -0.2749  0.2534  0.0769
  344TIP3    H122523   0.831   0.359  12.540  0.2283  2.5027  1.7767
  344TIP3    H222524   0.954   0.302  12.608 -0.2615  0.2686  0.8509
  345TIP3   OH222525   2.977   3.697   3.621  0.5470  0.0780  0.3814
  345TIP3    H122526   3.014   3.781   3.594 -1.6537  1.0405  0.1532
  345TIP3    H222527   2.917   3.719   3.693  1.2767 -1.5627  1.5583
  346TIP3   OH222528   1.549   0.622  14.374 -0.1515  0.0044  0.3772
  346TIP3    H122529   1.495   0.572  14.313  1.5695 -1.6073  0.0970
  346TIP3    H222530   1.575   0.700  14.324 -0.9433  0.0465  0.0104
  347TIP3   OH222531   4.686   0.225   3.432 -0.1228  0.1534  0.5532
  347TIP3    H122532   4.630   0.302   3.422  0.6563  0.5235 -1.5361
  347TIP3    H222533   4.660   0.187   3.516 -2.5042  1.0780  0.3186
  348TIP3   OH222534   5.152   1.002   3.606 -0.1246 -0.7199 -0.2886
  348TIP3    H122535   5.204   1.077   3.637 -0.6797  0.3208 -1.7478
  348TIP3    H222536   5.073   1.003   3.661  0.2783 -0.8099  0.3054
  349TIP3   OH222537   5.202   0.180   2.538 -0.3884  0.3436 -0.5329
  349TIP3    H122538   5.281   0.189   2.484  0.6121 -0.3430  0.7574
  349TIP3    H222539   5.223   0.224   2.620 -0.7994 -1.0592  0.3683
  350TIP3   OH222540   2.168   5.407   4.236  0.0579  0.1787 -0.7296
  350TIP3    H122541   2.083   5.383   4.273  0.0554  0.8885 -0.2766
  350TIP3    H222542   2.173   5.502   4.246 -0.2618  0.5376 -3.1802
  351TIP3   OH222543   4.236   4.061  15.412  0.3252 -0.4015 -0.0677
  351TIP3    H122544   4.227   4.018  15.497  0.9838  1.5505  1.0636
  351TIP3    H222545   4.147   4.089  15.390  0.4093  0.7630  0.9556
  352TIP3   OH222546   1.788   3.060   0.948  0.3580  0.1037 -0.2172
  352TIP3    H122547   1.854   3.060   0.879 -0.7311 -0.8449 -1.3091
  352TIP3    H222548   1.777   2.968   0.970 -1.3622  0.1213 -0.8539
  353TIP3   OH222549   4.882   5.522  14.840 -0.2153  0.3000  0.4117
  353TIP3    H122550   4.844   5.449  14.889  1.3157 -1.4422 -0.8371
  353TIP3    H222551   4.852   5.508  14.750  2.8652 -0.9734 -0.5756
  354TIP3   OH222552   1.234   4.250  13.621  0.0012 -0.4317  0.7625
  354TIP3    H122553   1.329   4.254  13.633  0.1065  1.3893 -0.2813
  354TIP3    H222554   1.222   4.200  13.541  0.1289 -0.1020  0.5346
  355TIP3   OH222555   0.752   5.362  16.363  0.2055  0.2068  0.0431
  355TIP3    H122556   0.836   5.407  16.366 -0.1493  0.8479  0.3905
  355TIP3    H222557   0.696   5.418  16.310 -0.7012  0.9867  1.7661
  356TIP3   OH222558   4.079   3.858  14.076 -0.2977  0.4601 -0.0108
  356TIP3    H122559   4.066   3.901  13.992 -1.8519  0.8102  0.3698
  356TIP3    H222560   4.042   3.920  14.140  1.6491  0.6161  1.0464
  357TIP3   OH222561   2.584   0.539  15.982 -0.1530  0.0732  0.7967
  357TIP3    H122562   2.612   0.467  15.925 -1.0048 -0.7211  1.3472
  357TIP3    H222563   2.497   0.514  16.011 -1.4416  2.4140 -0.7596
  358TIP3   OH222564   0.216   2.743  16.295  0.2321  0.4861 -0.2400
  358TIP3    H122565   0.174   2.662  16.325  1.3005  0.2735  0.7127
  358TIP3    H222566   0.309   2.731  16.313  0.2938  2.3767  0.9957
  359TIP3   OH222567   4.759   1.816  13.071 -0.1840  0.3663  0.0444
  359TIP3    H122568   4.721   1.769  13.145 -0.2006  1.0969  0.5123
  359TIP3    H222569   4.764   1.907  13.101  0.6654  0.5134 -0.5121
  360TIP3   OH222570   3.312   0.646  16.350  0.2996 -0.3435 -0.1412
  360TIP3    H122571   3.405   0.623  16.353  0.3718 -0.0424 -0.0702
  360TIP3    H222572   3.306   0.710  16.279  0.5778  1.5849  1.5034
  361TIP3   OH222573   1.374   0.745   4.421 -0.3025 -0.0613  0.1867
  361TIP3    H122574   1.321   0.825   4.430 -0.1370  0.0848 -0.0914
  361TIP3    H222575   1.381   0.710   4.509 -2.0737 -0.8804  0.0470
  362TIP3   OH222576   4.718   5.005   2.345 -0.0384 -0.2917  0.1123
  362TIP3    H122577   4.633   5.024   2.305  0.1708 -0.6988 -0.5437
  362TIP3    H222578   4.711   5.039   2.434 -1.0321 -0.7007  0.1955
  363TIP3   OH222579   0.752   5.236   2.168 -0.0492 -0.3918  0.5927
  363TIP3    H122580   0.704   5.160   2.137  0.8022 -0.2424 -1.2380
  363TIP3    H222581   0.840   5.226   2.131  0.2952  1.0829  0.9264
  364TIP3   OH222582   2.374   1.407   4.982  0.2461 -0.1033  0.4788
  364TIP3    H122583   2.466   1.397   4.958  0.2763  1.3842 -0.1188
  364TIP3    H222584   2.326   1.395   4.900 -0.0779 -0.4187  0.7077
  365TIP3   OH222585   3.536   5.497  12.620  0.5620 -0.5487  0.2707
  365TIP3    H122586   3.524   5.402  12.616  1.0487 -0.5684 -1.9990
  365TIP3    H222587   3.631   5.509  12.614  0.4401  0.0929 -0.4851
  366TIP3   OH222588   6.483   2.263  11.430  0.3110  0.3434  0.3916
  366TIP3    H122589   6.547   2.324  11.395  1.3888  0.4730  2.4008
  366TIP3    H222590   6.535   2.190  11.462 -1.0118 -2.5421 -3.3087
  367TIP3   OH222591   1.404   0.583   0.166  0.0016 -0.0905 -0.3628
  367TIP3    H122592   1.488   0.541   0.152  0.8501  1.3383  0.2144
  367TIP3    H222593   1.372   0.545   0.248  0.7019  0.2872  0.0944
  368TIP3   OH222594   0.803   0.786  14.368 -0.1273  0.2032  0.5968
  368TIP3    H122595   0.758   0.736  14.300 -0.2670 -0.2803  1.0442
  368TIP3    H222596   0.815   0.725  14.440  3.2984 -0.4350 -0.3239
  369TIP3   OH222597   6.612   2.042   5.287  0.1561 -0.2605 -0.5272
  369TIP3    H122598   6.688   2.092   5.258 -0.1690 -0.7261 -2.2786
  369TIP3    H222599   6.649   1.962   5.323  0.5251 -0.1943 -0.7531
  370TIP3   OH222600   3.691   5.010  11.005 -0.1799  0.3332  0.7044
  370TIP3    H122601   3.629   4.948  11.046  0.7635 -0.0981  1.5188
  370TIP3    H222602   3.751   5.033  11.076  1.2615 -0.1031 -0.3344
  371TIP3   OH222603   2.918   4.092  14.647  0.1315 -0.4194  0.1801
  371TIP3    H122604   2.864   4.165  14.617  0.4111 -0.7361 -1.1406
  371TIP3    H222605   3.005   4.131  14.659 -0.0610 -0.2138  0.9615
  372TIP3   OH222606   0.080   3.976   4.293  0.1480 -0.0684  0.0866
  372TIP3    H122607   0.003   3.919   4.285 -0.2074  0.5400 -0.9008
  372TIP3    H222608   0.153   3.922   4.262  0.5400 -1.3890  2.9328
  373TIP3   OH222609   5.621   3.115   1.659  0.3557  0.4446  0.4631
  373TIP3    H122610   5.654   3.174   1.591 -0.9418  0.1259 -0.4748
  373TIP3    H222611   5.531   3.144   1.674  0.5866  0.4373  1.9981
  374TIP3   OH222612   5.208   5.855   4.471  0.1342 -0.3478 -0.4790
  374TIP3    H122613   5.221   5.775   4.523 -0.0877 -0.0115  0.1023
  374TIP3    H222614   5.268   5.918   4.511 -0.1577 -0.0390 -0.5328
  375TIP3   OH222615   3.305   4.716  10.979  0.0166  0.1348  0.0127
  375TIP3    H122616   3.240   4.700  10.911  0.2121  1.2963 -0.4777
  375TIP3    H222617   3.255   4.722  11.060 -0.4029  0.2853 -0.2535
  376TIP3   OH222618   0.012   6.335   1.687  0.3874  0.1119  0.0513
  376TIP3    H122619   0.079   6.389   1.729  0.6354 -2.3636  3.2030
  376TIP3    H222620  -0.031   6.289   1.759 -1.6513 -1.8508 -2.2175
  377TIP3   OH222621   3.650   3.190  12.692  0.6720 -0.0667  0.7279
  377TIP3    H122622   3.669   3.278  12.725 -0.1327  0.1408  0.6629
  377TIP3    H222623   3.558   3.193  12.669  0.4289 -1.1735  1.4852
  378TIP3   OH222624   0.772   2.947   3.193 -0.6757  0.3780 -0.5338
  378TIP3    H122625   0.688   2.903   3.207 -0.1619 -0.3602  0.4146
  378TIP3    H222626   0.835   2.893   3.242 -0.0201  2.2215  0.7511
  379TIP3   OH222627   4.293   3.937   4.791 -0.3644  0.0145  0.0424
  379TIP3    H122628   4.308   3.938   4.696 -1.1047  1.8068 -0.1002
  379TIP3    H222629   4.348   4.008   4.825 -1.5427  0.6805  0.6618
  380TIP3   OH222630   2.618   0.734  16.326  0.3017  0.2290 -0.1875
  380TIP3    H122631   2.642   0.788  16.402  1.0402  2.4997 -1.9163
  380TIP3    H222632   2.673   0.656  16.334 -1.5512 -0.9624  2.9567
  381TIP3   OH222633   5.628   5.637   2.551  0.3035  0.0891 -0.6461
  381TIP3    H122634   5.695   5.680   2.605 -0.4176  0.3676  0.0491
  381TIP3    H222635   5.546   5.653   2.598  0.1788 -3.7426  0.7498
  382TIP3   OH222636   5.637   5.603  10.792 -0.3078  0.2197  0.1841
  382TIP3    H122637   5.665   5.563  10.874  0.5913 -0.3609 -0.3921
  382TIP3    H222638   5.542   5.613  10.801 -0.2548 -0.1079  1.1694
  383TIP3   OH222639   1.487   4.429   3.337  0.3068 -0.7852  0.1702
  383TIP3    H122640   1.438   4.458   3.260  1.4053 -1.6113 -0.8692
  383TIP3    H222641   1.579   4.431   3.310  0.6518 -2.0269  1.1315
  384TIP3   OH222642   5.222   4.345   0.630  0.3572 -0.3253  0.1742
  384TIP3    H122643   5.151   4.316   0.688 -0.1954 -1.2803 -0.9306
  384TIP3    H222644   5.290   4.279   0.640  0.0454 -0.7870 -0.6209
  385TIP3   OH222645   0.601   5.656  15.664  0.2016 -0.1824 -0.3156
  385TIP3    H122646   0.668   5.706  15.618  1.3079  0.1218  1.5267
  385TIP3    H222647   0.534   5.719  15.685  0.6792  0.1253  0.3034
  386TIP3   OH222648   6.589   5.646  12.877 -0.1414  0.1835  0.0301
  386TIP3    H122649   6.621   5.566  12.836  1.5775  0.1551  1.3018
  386TIP3    H222650   6.527   5.616  12.944 -1.2423  0.1017 -0.9841
  387TIP3   OH222651   5.661   6.270   3.685 -0.0035 -0.8371 -0.4858
  387TIP3    H122652   5.597   6.254   3.616  0.2104  0.3740 -0.9993
  387TIP3    H222653   5.739   6.221   3.658  0.0295 -0.4897 -1.0527
  388TIP3   OH222654   0.802   6.068   4.482  0.2339 -0.1609  0.4121
  388TIP3    H122655   0.889   6.073   4.522  0.1972 -0.3850  0.5209
  388TIP3    H222656   0.742   6.052   4.555  0.2105 -0.9734  0.2304
  389TIP3   OH222657   4.456   1.958   5.053  0.5818  0.0279 -0.5088
  389TIP3    H122658   4.464   2.027   5.120  0.3026  1.3899 -1.8362
  389TIP3    H222659   4.545   1.946   5.021  0.8076 -1.0027  0.4146
  390TIP3   OH222660   4.805   3.378  12.353 -0.0819  0.1586  0.1567
  390TIP3    H122661   4.848   3.464  12.351 -0.8145  0.5310 -1.3169
  390TIP3    H222662   4.877   3.316  12.368  0.6992  0.9051 -0.3713
  391TIP3   OH222663   3.445   3.214   3.210 -0.5439 -0.4131  0.1081
  391TIP3    H122664   3.430   3.251   3.123 -1.1570 -0.1011  0.3417
  391TIP3    H222665   3.357   3.204   3.247 -0.2382  0.4506  1.1062
  392TIP3   OH222666   1.988   5.654   3.046  0.4624  0.7829 -0.3112
  392TIP3    H122667   1.979   5.568   3.087 -2.9221  1.3828  0.4870
  392TIP3    H222668   2.081   5.676   3.056  1.1323 -2.1427  0.6962
  393TIP3   OH222669   2.480   2.319   2.760  0.9672  0.7066  0.0464
  393TIP3    H122670   2.496   2.279   2.674  0.5235  2.8267 -1.0978
  393TIP3    H222671   2.475   2.245   2.820  0.3614 -0.9332 -1.8941
  394TIP3   OH222672   5.933   0.068   3.301 -0.2977  0.4945  0.0105
  394TIP3    H122673   5.852   0.027   3.273 -0.8311  0.8236  1.0214
  394TIP3    H222674   5.953   0.028   3.385  0.3436  0.7579 -0.0049
  395TIP3   OH222675   2.703   1.983   5.428 -0.3150  0.1589  0.1015
  395TIP3    H122676   2.794   2.011   5.415  0.0541 -0.9386  0.1884
  395TIP3    H222677   2.673   2.034   5.504  0.7205 -0.5254  0.9984
  396TIP3   OH222678   3.136   0.411   1.492  0.2721  0.0880 -0.6124
  396TIP3    H122679   3.114   0.504   1.498 -0.9264 -0.2838  2.1184
  396TIP3    H222680   3.063   0.373   1.442 -0.1082  0.3819 -0.2948
  397TIP3   OH222681   2.135   4.784  12.468 -0.2283 -0.2846 -0.2739
  397TIP3    H122682   2.191   4.788  12.546  1.1793  0.7080 -1.2764
  397TIP3    H222683   2.064   4.846  12.487  0.8916  1.0677 -0.3222
  398TIP3   OH222684   5.636   4.114  15.613  0.3775  0.6964  0.1200
  398TIP3    H122685   5.566   4.054  15.640  0.1921  0.5017 -0.7536
  398TIP3    H222686   5.675   4.145  15.695  0.9314 -1.1578  0.6083
  399TIP3   OH222687   0.699   0.864   4.901  0.2455  0.3636  0.4031
  399TIP3    H122688   0.768   0.825   4.955  0.3772 -1.6154 -1.0942
  399TIP3    H222689   0.618   0.840   4.945  0.4037  0.1529  0.5799
  400TIP3   OH222690   4.426   0.177   5.085 -0.3103 -0.3329 -0.5517
  400TIP3    H122691   4.514   0.154   5.057  0.3062 -1.3293  1.9102
  400TIP3    H222692   4.384   0.092   5.102 -0.5999  0.1578  1.4073
  401TIP3   OH222693   0.608   6.504  13.668  0.1161 -0.6557  0.3254
  401TIP3    H122694   0.611   6.554  13.749 -0.6026 -1.3580  0.7984
  401TIP3    H222695   0.694   6.461  13.664  0.8797  0.8731 -0.2773
  402TIP3   OH222696   5.385   3.444  14.372  0.5955 -0.4226  0.1348
  402TIP3    H122697   5.355   3.434  14.462  0.9720  0.4092  0.3565
  402TIP3    H222698   5.457   3.506  14.377  0.2152  0.1110 -0.8177
  403TIP3   OH222699   6.058   0.038   1.406  0.4621 -0.1950 -0.2450
  403TIP3    H122700   6.134   0.091   1.382 -0.8158  1.2299 -1.3288
  403TIP3    H222701   6.058   0.039   1.502  2.1243 -0.7411 -0.2084
  404TIP3   OH222702   1.574   2.857  10.698  0.1163 -0.5751  0.3839
  404TIP3    H122703   1.570   2.782  10.757 -0.2451 -0.5681  0.3683
  404TIP3    H222704   1.638   2.832  10.632 -0.4492 -1.1255  0.0278
  405TIP3   OH222705   2.114   5.562  16.985 -0.4528  0.3017  0.1363
  405TIP3    H122706   2.135   5.634  17.045  0.9777 -1.5399  2.0116
  405TIP3    H222707   2.198   5.523  16.964 -1.2077 -1.0120 -0.5884
  406TIP3   OH222708   1.562   5.242  13.927 -0.5852 -0.0109  0.1010
  406TIP3    H122709   1.636   5.293  13.960 -0.3104 -0.4805  0.2068
  406TIP3    H222710   1.513   5.218  14.006 -0.3303 -0.5095  0.1065
  407TIP3   OH222711   2.409   0.382   3.304  0.2586 -0.1569 -0.2490
  407TIP3    H122712   2.384   0.391   3.395  0.7622 -0.1785 -0.1052
  407TIP3    H222713   2.327   0.385   3.256  0.1439  2.3960 -0.0254
  408TIP3   OH222714   5.463   1.443  14.300  0.0646  0.0218 -0.2669
  408TIP3    H122715   5.421   1.362  14.329  0.3690  0.2285  0.7756
  408TIP3    H222716   5.394   1.509  14.303 -0.0239 -0.0609 -0.4845
  409TIP3   OH222717   0.394   2.948   2.168 -0.4103 -0.2772 -0.3913
  409TIP3    H122718   0.388   2.886   2.241  0.6769 -0.4216 -0.4158
  409TIP3    H222719   0.323   3.010   2.184  0.9714  0.8663  1.8814
  410TIP3   OH222720   1.735   5.152   4.262 -0.0888 -0.3385 -0.0019
  410TIP3    H122721   1.778   5.221   4.313 -1.2691  0.6825 -0.3321
  410TIP3    H222722   1.803   5.086   4.250  0.8161  0.3314  1.1251
  411TIP3   OH222723   4.235   6.248  13.679  0.6093  0.9144 -0.5871
  411TIP3    H122724   4.284   6.313  13.628  1.5865  0.7827  0.1434
  411TIP3    H222725   4.144   6.274  13.669  0.9899  2.6352 -0.0218
  412TIP3   OH222726   5.592   0.908   3.739 -0.0343  0.3869  0.3136
  412TIP3    H122727   5.583   0.955   3.822 -0.7824 -0.2838  0.6190
  412TIP3    H222728   5.502   0.892   3.710  0.2011 -0.7461  0.1560
  413TIP3   OH222729   0.641   2.014  10.942  0.2478 -0.0210 -0.6700
  413TIP3    H122730   0.675   2.103  10.927 -1.1402  0.6753  0.1165
  413TIP3    H222731   0.720   1.960  10.949  1.1643  1.2996 -0.2150
  414TIP3   OH222732   1.809   5.870  13.287 -0.0921  0.3038 -0.0905
  414TIP3    H122733   1.888   5.891  13.237 -0.0044  0.3042  0.0473
  414TIP3    H222734   1.756   5.950  13.282  0.9210  1.1729  1.7501
  415TIP3   OH222735   6.046   5.354   1.324  0.4856 -0.0635  0.1369
  415TIP3    H122736   6.079   5.444   1.323 -1.0352  0.5537 -1.7951
  415TIP3    H222737   5.970   5.357   1.381  0.8224 -0.2930  0.6018
  416TIP3   OH222738   2.813   3.531  15.056  0.0333  0.0820  0.3635
  416TIP3    H122739   2.728   3.566  15.080 -0.5403 -1.5399  0.8696
  416TIP3    H222740   2.868   3.547  15.132 -0.6827 -1.4845  1.2714
  417TIP3   OH222741   3.421   2.936  15.467 -0.5388  0.4394 -0.0810
  417TIP3    H122742   3.439   3.005  15.532 -0.1484 -0.1316  0.4317
  417TIP3    H222743   3.371   2.870  15.516  0.9159 -0.6304  0.0138
  418TIP3   OH222744   4.464   1.777   4.509  0.0156  0.2819 -0.5387
  418TIP3    H122745   4.424   1.698   4.544  0.7185  0.4021  0.6022
  418TIP3    H222746   4.478   1.759   4.416 -0.0619 -0.8339 -0.3405
  419TIP3   OH222747   3.816   1.229   5.525 -0.6911  0.1584 -0.2260
  419TIP3    H122748   3.912   1.229   5.525 -0.6911  0.2099 -0.1364
  419TIP3    H222749   3.792   1.216   5.433 -0.5985  0.5932 -0.3140
  420TIP3   OH222750   1.360   6.309  12.732 -0.4181 -0.7121  0.8151
  420TIP3    H122751   1.433   6.366  12.709  0.4231 -0.5024  3.6836
  420TIP3    H222752   1.320   6.286  12.648  0.2115  2.6975 -0.5768
  421TIP3   OH222753   5.385   2.588   3.373  0.2893  0.0703  0.1007
  421TIP3    H122754   5.396   2.502   3.413 -0.1128  0.2898  0.7062
  421TIP3    H222755   5.290   2.598   3.363  0.3474  0.3222 -0.2382
  422TIP3   OH222756   1.972   6.691  13.453 -0.0404  0.2133 -0.0438
  422TIP3    H122757   2.008   6.602  13.461  0.0167  0.1292 -1.1494
  422TIP3    H222758   1.966   6.706  13.359 -0.6093  1.1644  0.1357
  423TIP3   OH222759   0.138   5.034   3.487  0.4831 -0.8457 -0.2513
  423TIP3    H122760   0.204   5.103   3.482  0.4297 -0.7827 -0.1067
  423TIP3    H222761   0.153   4.980   3.410 -0.7726  0.4795 -1.4963
  424TIP3   OH222762   0.772   3.892   0.393  0.0941  0.5150  0.1385
  424TIP3    H122763   0.825   3.821   0.429 -1.0453 -0.7213 -0.5163
  424TIP3    H222764   0.723   3.851   0.321 -0.8027  1.8964 -0.0758
  425TIP3   OH222765   6.820   3.957  12.873 -0.4375  0.0722 -0.7345
  425TIP3    H122766   6.750   4.000  12.922  0.5900 -0.0215  0.9249
  425TIP3    H222767   6.899   3.975  12.924  0.7917  0.3161 -2.6370
  426TIP3   OH222768   1.111   2.390   5.445  0.5708 -0.0147  0.2416
  426TIP3    H122769   1.104   2.379   5.350 -0.1717 -1.2147  0.4202
  426TIP3    H222770   1.104   2.484   5.459 -1.2016  0.0409 -0.7676
  427TIP3   OH222771   3.760   0.968   0.130 -0.1607  0.3844 -0.1389
  427TIP3    H122772   3.757   1.020   0.211 -1.2231 -0.2562  0.2572
  427TIP3    H222773   3.852   0.944   0.121 -0.0136  0.5025  0.8659
  428TIP3   OH222774   0.087   5.804   0.369 -0.0368  0.3602 -0.0890
  428TIP3    H122775   0.085   5.709   0.354  1.6029  0.6072 -2.2606
  428TIP3    H222776   0.167   5.819   0.418  0.1880  0.7180 -0.5631
  429TIP3   OH222777   3.408   4.372  13.923 -0.1256 -1.3931  0.2215
  429TIP3    H122778   3.374   4.293  13.881 -1.3621 -1.9861  2.2118
  429TIP3    H222779   3.334   4.432  13.926  0.4394 -0.6643 -0.0600
  430TIP3   OH222780   3.131   4.861  12.950  0.2849 -0.2121 -0.4104
  430TIP3    H122781   3.105   4.870  12.858  0.7111 -0.3281 -0.5432
  430TIP3    H222782   3.052   4.885  12.999  0.1108  0.0377 -0.8031
  431TIP3   OH222783   1.314   1.824   4.608 -0.7028 -0.3477 -0.0294
  431TIP3    H122784   1.267   1.765   4.667  1.0916  0.1221  1.9991
  431TIP3    H222785   1.374   1.767   4.560 -0.9022 -0.5083 -0.0886
  432TIP3   OH222786   5.029   2.054  11.935 -0.2768  0.3642 -0.1880
  432TIP3    H122787   5.098   2.084  11.877 -1.7354  2.1176 -1.1301
  432TIP3    H222788   4.983   1.986  11.886 -1.0235  1.2966 -0.8211
  433TIP3   OH222789   0.628   0.741  16.263 -0.1049 -0.1469  0.2463
  433TIP3    H122790   0.685   0.675  16.223 -0.9335 -0.3416 -0.6519
  433TIP3    H222791   0.606   0.704  16.349 -0.1055 -0.7821 -0.0188
  434TIP3   OH222792   4.502   6.355   0.976 -0.4386  0.2185 -0.3255
  434TIP3    H122793   4.561   6.424   0.946  1.4500 -1.1133  0.1307
  434TIP3    H222794   4.423   6.401   1.003  0.8321  2.2391  0.1737
  435TIP3   OH222795   3.134   6.651   3.911 -0.1027 -0.0704 -0.6887
  435TIP3    H122796   3.217   6.667   3.867 -0.1713 -0.7918 -1.0849
  435TIP3    H222797   3.120   6.557   3.904  0.4190 -0.4138  1.8021
  436TIP3   OH222798   2.638   3.130   4.419 -0.5529 -0.3945  0.0750
  436TIP3    H122799   2.594   3.057   4.376 -2.1174 -0.1701  1.1727
  436TIP3    H222800   2.594   3.208   4.385 -1.2446 -0.1761  1.3729
  437TIP3   OH222801   6.376   1.892  12.776  0.3395 -0.0102 -0.4982
  437TIP3    H122802   6.365   1.976  12.732  0.6871  0.1573 -0.2739
  437TIP3    H222803   6.288   1.855  12.783  0.0237  0.8722  0.4534
  438TIP3   OH222804   2.318   3.640  13.015  0.1098  0.5117 -0.1675
  438TIP3    H122805   2.246   3.659  12.955 -0.5373 -1.0299  0.0739
  438TIP3    H222806   2.331   3.722  13.063 -1.5706  0.8090 -0.1427
  439TIP3   OH222807   4.719   5.005  11.228 -0.2153 -0.4598  0.4993
  439TIP3    H122808   4.633   5.046  11.241  0.1848  0.9422 -1.0027
  439TIP3    H222809   4.705   4.944  11.156  0.0614 -0.1898  0.2179
  440TIP3   OH222810   2.620   3.032   5.590  0.2258 -0.5158 -0.0798
  440TIP3    H122811   2.713   3.056   5.598 -0.1788  2.6791 -2.6478
  440TIP3    H222812   2.611   3.002   5.499 -1.6231  1.8401 -0.7619
  441TIP3   OH222813   5.675   3.994   3.632  0.0279 -0.3140 -1.1796
  441TIP3    H122814   5.616   3.920   3.647 -1.4022  0.7497 -1.3945
  441TIP3    H222815   5.645   4.034   3.551 -0.8219  1.9524  0.1612
  442TIP3   OH222816   6.000   0.540   3.257  0.7132  0.0448 -0.4158
  442TIP3    H122817   6.009   0.632   3.280  1.6599 -0.2278  0.3648
  442TIP3    H222818   5.981   0.496   3.340 -0.1813 -0.4241 -0.8404
  443TIP3   OH222819   1.501   2.456   1.158  0.3008  0.4560 -0.3793
  443TIP3    H122820   1.536   2.540   1.185  0.8308 -0.0851  0.6854
  443TIP3    H222821   1.430   2.477   1.098 -0.0383  1.6793  0.4201
  444TIP3   OH222822   1.634   0.358  10.836  0.2157  0.6131  0.0800
  444TIP3    H122823   1.544   0.352  10.867 -1.1219  0.4002 -3.3612
  444TIP3    H222824   1.670   0.271  10.852 -0.8488  0.1024 -0.1632
  445TIP3   OH222825   1.128   5.966   0.531 -0.6315 -0.0923 -0.4829
  445TIP3    H122826   1.111   5.886   0.581 -1.2066 -0.3517 -1.0872
  445TIP3    H222827   1.104   5.944   0.441  2.7408 -0.4670 -1.4467
  446TIP3   OH222828   5.383   3.312   1.496 -0.3895  0.0074 -0.1631
  446TIP3    H122829   5.471   3.338   1.469 -0.3501 -0.2942 -0.3347
  446TIP3    H222830   5.374   3.345   1.586 -0.4853  0.9342 -0.5013
  447TIP3   OH222831   2.923   1.152  10.559 -0.5455 -0.1235 -0.4270
  447TIP3    H122832   2.908   1.242  10.530 -0.0090 -0.2888 -1.2268
  447TIP3    H222833   2.962   1.161  10.646  2.4953  0.5518 -1.7285
  448TIP3   OH222834   6.210   4.585  15.380 -0.3785  0.0935  0.0608
  448TIP3    H122835   6.254   4.670  15.375 -2.7267  1.3213 -2.1585
  448TIP3    H222836   6.281   4.521  15.382  1.5306  1.9419 -2.3914
  449TIP3   OH222837   5.451   0.527   1.955 -0.3414 -0.2735  0.1704
  449TIP3    H122838   5.419   0.550   1.868 -0.2863 -1.7514 -0.2736
  449TIP3    H222839   5.377   0.544   2.013 -0.5911  0.1053 -0.2533
  450TIP3   OH222840   5.800   4.056   0.795  0.3144  0.5984 -0.2153
  450TIP3    H122841   5.720   4.100   0.823 -0.5361  0.1862 -1.8871
  450TIP3    H222842   5.865   4.126   0.788 -0.2857  1.1587 -0.2107
  451TIP3   OH222843   4.051   1.774   4.070 -0.5246  0.1907  0.4349
  451TIP3    H122844   4.030   1.762   4.162  0.6578  0.7994  0.8091
  451TIP3    H222845   4.020   1.862   4.049  0.1655  0.4620  0.5453
  452TIP3   OH222846   3.141   1.266   5.243  0.0733 -0.4996 -0.4520
  452TIP3    H122847   3.141   1.356   5.212  3.7831 -0.7209 -1.4841
  452TIP3    H222848   3.175   1.271   5.332 -1.4651 -0.7854  0.1888
  453TIP3   OH222849   2.039   6.833  11.721 -0.1143 -0.3112 -0.6524
  453TIP3    H122850   2.131   6.811  11.704 -0.2144  0.3315 -2.1501
  453TIP3    H222851   2.015   6.777  11.795  1.0176 -1.6661 -1.2513
  454TIP3   OH222852   0.748   0.913  14.107 -0.3093 -0.3503  0.0683
  454TIP3    H122853   0.763   0.861  14.186  0.0158  0.0778  0.2943
  454TIP3    H222854   0.836   0.937  14.077 -0.4735  1.5021  0.9489
  455TIP3   OH222855   6.677   0.481   1.734 -0.2465 -0.0373  0.1990
  455TIP3    H122856   6.731   0.404   1.751  1.0713  0.9666  0.8372
  455TIP3    H222857   6.588   0.453   1.750  0.3483 -0.9806  2.1342
  456TIP3   OH222858   5.281   1.339  16.135 -0.4039 -0.2139  0.3488
  456TIP3    H122859   5.219   1.307  16.201 -0.2279 -1.2195  0.0420
  456TIP3    H222860   5.253   1.428  16.117 -1.2378 -0.3652  0.8484
  457TIP3   OH222861   3.355   3.684  16.056  0.2598  0.0088 -0.2612
  457TIP3    H122862   3.322   3.751  15.997 -1.0099 -0.4453 -0.0918
  457TIP3    H222863   3.390   3.616  15.998  1.4619  0.7557 -0.4329
  458TIP3   OH222864   1.462   2.794   0.965 -0.0093 -0.2194 -0.6220
  458TIP3    H122865   1.490   2.826   0.879 -0.0372  0.6093 -0.3329
  458TIP3    H222866   1.438   2.873   1.013 -3.3232 -0.8737 -0.9746
  459TIP3   OH222867   6.749   4.238   3.365 -0.2097  0.1578  0.4495
  459TIP3    H122868   6.830   4.188   3.357 -0.3694  0.1466 -2.0960
  459TIP3    H222869   6.681   4.173   3.382  0.1474  0.0603  1.5958
  460TIP3   OH222870   6.114   3.285   1.030  0.0595  0.9842 -0.1366
  460TIP3    H122871   6.037   3.317   0.982 -1.6096  0.3120  1.9714
  460TIP3    H222872   6.109   3.190   1.023 -0.9873  0.7800  2.3369
  461TIP3   OH222873   2.100   1.895  16.263  0.5044 -0.6331 -0.6846
  461TIP3    H122874   2.169   1.837  16.230 -0.1661  0.2501 -4.0106
  461TIP3    H222875   2.026   1.879  16.205 -1.5270 -0.2313  1.6563
  462TIP3   OH222876   3.545   3.275   0.347 -0.2412  0.1381 -0.1015
  462TIP3    H122877   3.508   3.193   0.379 -2.1355  0.6931 -0.7169
  462TIP3    H222878   3.579   3.318   0.426 -0.5667 -0.5889  0.4494
  463TIP3   OH222879   3.871   1.584  11.237 -0.4757 -0.1438  0.0098
  463TIP3    H122880   3.926   1.628  11.302 -1.2693  1.2766 -0.2411
  463TIP3    H222881   3.895   1.625  11.154 -2.7415  1.4223  0.0454
  464TIP3   OH222882   6.680   4.579   5.690  0.5394 -0.0179 -0.6607
  464TIP3    H122883   6.631   4.614   5.765 -0.3451 -2.2620 -0.1224
  464TIP3    H222884   6.625   4.600   5.615  1.0830  1.6067 -0.6513
  465TIP3   OH222885   5.822   3.988   1.889 -0.6953 -0.3141 -0.5400
  465TIP3    H122886   5.889   4.040   1.933 -0.8996 -0.5139  0.0196
  465TIP3    H222887   5.826   3.902   1.931 -2.6083  0.2222  0.9512
  466TIP3   OH222888   1.933   4.160   2.659  0.2062  0.1413 -0.0012
  466TIP3    H122889   1.934   4.171   2.564  2.2917  0.9188  0.0575
  466TIP3    H222890   1.984   4.080   2.674  1.9498  1.3063  0.5380
  467TIP3   OH222891   3.475   0.634   4.265 -0.0075  0.1658 -0.3686
  467TIP3    H122892   3.411   0.565   4.254  2.3979 -2.2609 -0.1591
  467TIP3    H222893   3.497   0.661   4.176 -0.6253  0.3523 -0.4664
  468TIP3   OH222894   6.734   4.621   4.584 -0.2491 -0.4263 -0.0331
  468TIP3    H122895   6.729   4.551   4.520  1.0402 -0.3609 -0.2283
  468TIP3    H222896   6.648   4.619   4.628 -1.1497 -0.4773 -1.7098
  469TIP3   OH222897   6.594   3.246   5.304  0.1370  0.9978  0.0515
  469TIP3    H122898   6.542   3.280   5.377 -1.1479  0.5253 -0.6156
  469TIP3    H222899   6.604   3.321   5.245 -0.0709  1.0029  0.0224
  470TIP3   OH222900   4.935   1.910  15.136 -0.4049 -0.2312 -0.1571
  470TIP3    H122901   5.023   1.885  15.108 -0.6371 -1.1026 -0.1176
  470TIP3    H222902   4.900   1.832  15.179 -0.8009  0.4418  0.7868
  471TIP3   OH222903   2.274   2.062  15.704 -0.2493 -0.1209 -0.0365
  471TIP3    H122904   2.243   1.991  15.760 -0.2473 -0.7426 -0.8046
  471TIP3    H222905   2.195   2.098  15.664 -0.1718 -0.3825 -0.4404
  472TIP3   OH222906   6.576   1.734   4.736  0.1365  0.2411 -0.1264
  472TIP3    H122907   6.639   1.748   4.806  0.6780 -0.7389 -0.4121
  472TIP3    H222908   6.563   1.640   4.733  0.7381  0.1911 -1.8874
  473TIP3   OH222909   0.626   0.425   0.283  0.1718  0.2905 -0.3902
  473TIP3    H122910   0.608   0.384   0.199 -2.2422 -1.5327  0.8771
  473TIP3    H222911   0.613   0.355   0.347  0.4696  1.9473  1.6027
  474TIP3   OH222912   6.793   5.556   1.268 -0.0385 -0.3094  0.7683
  474TIP3    H122913   6.761   5.646   1.271 -0.2225 -0.3667  0.5533
  474TIP3    H222914   6.884   5.561   1.298  0.6280  0.2435 -1.1968
  475TIP3   OH222915   1.420   1.063   0.709  0.7340 -0.0982 -0.3061
  475TIP3    H122916   1.437   1.141   0.762  0.8831 -0.0906 -0.3656
  475TIP3    H222917   1.484   1.067   0.638  0.4687 -0.0566 -0.5452
  476TIP3   OH222918   0.185   3.307   1.635  0.3987  0.3193  0.3381
  476TIP3    H122919   0.209   3.314   1.543 -1.1846 -2.4534 -0.3923
  476TIP3    H222920   0.228   3.228   1.666 -0.7197  0.0952  1.3979
  477TIP3   OH222921   2.650   1.764  14.938  0.4561 -0.1722  0.4276
  477TIP3    H122922   2.704   1.837  14.908 -0.6629  0.4729 -0.1083
  477TIP3    H222923   2.703   1.686  14.922  1.7272  0.5155  1.1291
  478TIP3   OH222924   4.892   2.437  15.255 -0.0372 -0.5420 -0.6001
  478TIP3    H122925   4.839   2.419  15.332 -0.3792  1.0458 -0.4496
  478TIP3    H222926   4.871   2.365  15.195 -1.4905 -0.5682 -0.0953
  479TIP3   OH222927   6.482   3.650   5.453 -0.2630 -0.9068  0.1815
  479TIP3    H122928   6.506   3.715   5.519 -1.2034 -0.0182 -0.3074
  479TIP3    H222929   6.532   3.572   5.476 -0.4622 -0.5827  1.8660
  480TIP3   OH222930   4.520   0.195  14.934 -0.4943  0.7523 -0.1329
  480TIP3    H122931   4.442   0.145  14.909 -1.4352 -0.5845  4.4786
  480TIP3    H222932   4.492   0.286  14.928 -0.7334  0.5874 -2.9394
  481TIP3   OH222933   3.587   4.769   0.249 -0.0137  0.0022 -0.3602
  481TIP3    H122934   3.579   4.678   0.278 -0.8873 -1.0472 -3.5067
  481TIP3    H222935   3.652   4.766   0.179  0.1702  1.8651 -0.3082
  482TIP3   OH222936   4.149   4.078  11.314 -0.1840  0.6390  0.3017
  482TIP3    H122937   4.150   4.146  11.381  1.2012  0.9386  0.0180
  482TIP3    H222938   4.200   4.115  11.242  1.1421 -0.9201  0.3868
  483TIP3   OH222939   4.230   2.586  13.482 -0.8390 -0.5341 -0.7414
  483TIP3    H122940   4.287   2.516  13.514 -0.1163  0.2406 -0.2766
  483TIP3    H222941   4.232   2.578  13.387  0.7064 -0.0414 -0.7745
  484TIP3   OH222942   0.696   6.088   1.825 -0.4895  0.1446 -0.4956
  484TIP3    H122943   0.777   6.129   1.795  0.1146  0.1028  0.9768
  484TIP3    H222944   0.628   6.155   1.812  0.3393  1.3683  1.1199
  485TIP3   OH222945   1.811   0.165   3.396 -0.7851  0.2177  0.2529
  485TIP3    H122946   1.858   0.161   3.479 -2.4253  0.0825  1.2298
  485TIP3    H222947   1.856   0.103   3.339  0.4928  0.4745  0.9618
  486TIP3   OH222948   0.633   2.451   2.556 -0.4407 -0.4014  0.0566
  486TIP3    H122949   0.685   2.463   2.477  0.4412  0.1335  0.6946
  486TIP3    H222950   0.593   2.365   2.546  0.1808 -0.6188 -0.6697
  487TIP3   OH222951   6.753   3.786   4.396 -0.4623 -0.3996  0.4546
  487TIP3    H122952   6.834   3.742   4.420  0.2308  0.9567  0.7492
  487TIP3    H222953   6.690   3.758   4.463  0.3557  0.1508  1.4972
  488TIP3   OH222954   0.121   5.878  11.127 -0.3606  0.3625  0.9063
  488TIP3    H122955   0.147   5.820  11.056 -1.4456 -0.0127  0.8099
  488TIP3    H222956   0.071   5.948  11.085  2.8146  2.7454  0.6610
  489TIP3   OH222957   4.058   4.837   5.445  0.0262 -0.5520 -0.2300
  489TIP3    H122958   3.978   4.843   5.496  0.6270 -0.3888  0.7082
  489TIP3    H222959   4.080   4.927   5.422  0.8784 -0.4195  1.0165
  490TIP3   OH222960   1.886   6.237   4.709  0.4323 -0.2262 -0.1899
  490TIP3    H122961   1.969   6.244   4.662  0.9916  2.4389  0.9859
  490TIP3    H222962   1.909   6.247   4.801 -1.0154 -1.4010  0.3383
  491TIP3   OH222963   0.110   4.086   3.368 -0.2967  0.3994  0.5180
  491TIP3    H122964   0.075   4.071   3.456 -0.8447  0.1561  0.2651
  491TIP3    H222965   0.174   4.016   3.356 -0.1611  0.4798  0.7511
  492TIP3   OH222966   0.838   4.878  12.908  0.2162  0.0219  0.1468
  492TIP3    H122967   0.761   4.836  12.945 -0.4615  0.9319 -0.2119
  492TIP3    H222968   0.827   4.870  12.814 -0.4808  1.9399  0.0322
  493TIP3   OH222969   3.834   6.134   1.857 -0.0404  0.0193 -0.1061
  493TIP3    H122970   3.745   6.157   1.829 -0.1416 -1.3323 -0.9843
  493TIP3    H222971   3.823   6.095   1.944 -0.1988  0.6376  0.1539
  494TIP3   OH222972   2.536   4.793  15.658 -1.1008 -0.6957 -0.2070
  494TIP3    H122973   2.573   4.841  15.733 -0.5047 -1.2286 -0.1440
  494TIP3    H222974   2.450   4.832  15.644 -0.6230  0.4047 -0.1753
  495TIP3   OH222975   3.364   4.343   2.739  0.1220  0.1501 -0.3595
  495TIP3    H122976   3.377   4.270   2.799  0.2679 -0.0530 -0.6350
  495TIP3    H222977   3.284   4.386   2.771 -1.4646 -1.6476 -1.6785
  496TIP3   OH222978   0.368   6.436   3.173 -0.4286  0.7978  0.1568
  496TIP3    H122979   0.343   6.399   3.089 -3.3244 -0.7633  1.5549
  496TIP3    H222980   0.386   6.360   3.228 -0.7807  1.6800  1.5354
  497TIP3   OH222981   0.507   0.910  11.573  0.0293  0.0128  0.3335
  497TIP3    H122982   0.583   0.858  11.603  0.5829 -0.9525 -2.4711
  497TIP3    H222983   0.544   0.995  11.551 -0.4863  0.9399  2.7466
  498TIP3   OH222984   1.931   0.589  11.304  0.3421  0.5133  0.2645
  498TIP3    H122985   2.017   0.618  11.271  0.8309 -0.4557  0.6455
  498TIP3    H222986   1.886   0.556  11.227  0.6949  0.1365  0.2134
  499TIP3   OH222987   5.255   4.613   0.702 -0.2293 -0.0229 -1.1553
  499TIP3    H122988   5.185   4.657   0.655  0.4345  0.0351 -2.1221
  499TIP3    H222989   5.241   4.520   0.685  0.0910  0.0051 -1.6196
  500TIP3   OH222990   2.450   3.756   1.211 -0.6510  0.4261  0.2443
  500TIP3    H122991   2.410   3.841   1.191 -3.1583 -0.4588  1.1124
  500TIP3    H222992   2.403   3.725   1.288  0.3794 -1.6621  0.1053
  501TIP3   OH222993   0.381   1.176  15.707  0.2433 -0.4650 -0.3728
  501TIP3    H122994   0.422   1.195  15.622 -2.0111 -0.5492 -1.5587
  501TIP3    H222995   0.322   1.250  15.722 -0.9570 -1.4733  0.0676
  502TIP3   OH222996   0.566   1.225   5.080 -0.1219  0.4450 -0.3551
  502TIP3    H122997   0.506   1.208   5.153 -0.6439  0.5840 -0.7419
  502TIP3    H222998   0.653   1.206   5.115 -0.3303  0.8751  0.4152
  503TIP3   OH222999   4.323   4.417   1.489 -0.1473 -0.7844  0.1436
  503TIP3    H123000   4.227   4.419   1.488 -0.1386  0.3295  0.4478
  503TIP3    H223001   4.348   4.410   1.397 -0.5095 -0.4647  0.0187
  504TIP3   OH223002   5.883   3.506  13.707  0.4370  0.1563 -0.0479
  504TIP3    H123003   5.958   3.447  13.718 -1.3290 -2.9604 -2.9501
  504TIP3    H223004   5.813   3.466  13.759  0.0981  1.7269  0.7615
  505TIP3   OH223005   0.390   6.681   3.804 -0.1108  0.0858 -0.4054
  505TIP3    H123006   0.458   6.671   3.871  0.4452  0.0351 -0.9660
  505TIP3    H223007   0.309   6.655   3.848  0.1067  0.8786  0.4967
  506TIP3   OH223008   0.607   2.341  16.740 -0.4264 -0.5625 -0.0892
  506TIP3    H123009   0.522   2.301  16.758 -0.5165  0.0210  0.8476
  506TIP3    H223010   0.600   2.371  16.649 -0.3969 -2.5153 -0.7799
  507TIP3   OH223011   1.310   4.285  16.543 -0.4009  0.0496 -0.2640
  507TIP3    H123012   1.394   4.286  16.588 -1.6089  0.5038  2.1495
  507TIP3    H223013   1.307   4.201  16.498  0.1519 -1.3394  2.1231
  508TIP3   OH223014   2.576   3.829  11.442 -0.0865  0.0551  0.0652
  508TIP3    H123015   2.525   3.887  11.385 -0.8368 -0.9089 -0.2801
  508TIP3    H223016   2.549   3.853  11.531 -2.1074 -1.2512 -0.1441
  509TIP3   OH223017   2.686   2.439   4.950 -0.3305  0.2835 -0.0027
  509TIP3    H123018   2.777   2.413   4.966 -0.8861 -2.0200 -0.2171
  509TIP3    H223019   2.681   2.449   4.855 -0.1799  1.0249  0.0586
  510TIP3   OH223020   3.881   5.271  14.030  0.1873  0.6078  0.1824
  510TIP3    H123021   3.971   5.249  14.007  0.2687 -0.9754  1.7984
  510TIP3    H223022   3.838   5.288  13.946  1.4621 -0.7932 -0.8092
  511TIP3   OH223023   5.227   6.579   3.058  0.2040 -0.6041  0.2393
  511TIP3    H123024   5.142   6.565   3.100 -1.2633 -0.0255 -2.3301
  511TIP3    H223025   5.235   6.507   2.996  2.0916 -1.1837  1.0976
  512TIP3   OH223026   1.376   5.468   1.516  0.4450  0.0563  0.2418
  512TIP3    H123027   1.419   5.385   1.500  2.9980  1.6013 -1.6339
  512TIP3    H223028   1.292   5.461   1.469  0.2227 -1.6928  0.8355
  513TIP3   OH223029   5.659   6.464   2.424 -0.5091  0.4157  0.1845
  513TIP3    H123030   5.591   6.421   2.372  0.5514  0.7994 -1.6221
  513TIP3    H223031   5.659   6.555   2.394  1.4773  0.1801 -0.6689
  514TIP3   OH223032   0.095   4.485  13.754  0.2381 -0.0172 -0.1066
  514TIP3    H123033   0.080   4.414  13.816  0.3637  0.3292  0.3319
  514TIP3    H223034   0.010   4.530  13.748  0.4650  0.5278  0.5657
  515TIP3   OH223035   3.972   6.768   3.034  0.1008 -0.1691  0.1867
  515TIP3    H123036   3.965   6.820   3.114 -1.6987 -1.1633  0.7209
  515TIP3    H223037   3.968   6.833   2.963 -2.0460  0.4870  0.8368
  516TIP3   OH223038   3.186   5.799  11.194 -0.2501 -0.1263 -0.0753
  516TIP3    H123039   3.154   5.710  11.211  0.5771 -0.6577 -1.2021
  516TIP3    H223040   3.130   5.831  11.123  1.7155 -1.1222 -2.1722
  517TIP3   OH223041   1.804   1.329  16.933 -0.6510 -0.1462  0.2387
  517TIP3    H123042   1.884   1.376  16.958  1.1530 -1.2384 -2.9027
  517TIP3    H223043   1.812   1.244  16.976  0.0228 -0.3206 -0.2080
  518TIP3   OH223044   1.180   6.040   1.621  0.2924 -0.0808 -0.1420
  518TIP3    H123045   1.177   6.122   1.573  0.6924  0.4160  0.6612
  518TIP3    H223046   1.110   5.987   1.582 -0.2686  0.8042 -0.3658
  519TIP3   OH223047   2.910   3.791  10.355 -0.3595 -0.6566 -0.0760
  519TIP3    H123048   2.838   3.803  10.416  0.6973  0.0250  1.0882
  519TIP3    H223049   2.883   3.837  10.275  0.0120  2.2872  1.3618
  520TIP3   OH223050   2.841   1.479  14.227 -0.7597  0.3832  0.2225
  520TIP3    H123051   2.850   1.445  14.138  1.8574  0.8119  0.2404
  520TIP3    H223052   2.756   1.447  14.257 -0.1505 -2.9191 -1.1143
  521TIP3   OH223053   0.164   0.066  13.557  0.3233  0.1099 -0.1323
  521TIP3    H123054   0.212   0.020  13.488  1.5960  2.8363 -1.2321
  521TIP3    H223055   0.091   0.108  13.511 -0.3143 -0.1110  0.6650
  522TIP3   OH223056   3.400   0.181   3.669  0.2293  0.0274  0.3298
  522TIP3    H123057   3.472   0.144   3.720 -1.0363 -0.6566  1.7103
  522TIP3    H223058   3.322   0.139   3.705 -0.8444  0.4985 -1.3336
  523TIP3   OH223059   1.538   6.020   4.601  0.3016 -0.6803 -0.5724
  523TIP3    H123060   1.554   6.113   4.584 -0.4318 -0.4949 -0.2875
  523TIP3    H223061   1.494   5.989   4.522  0.2396 -0.7080 -0.5263
  524TIP3   OH223062   3.382   2.039   2.516 -0.2890  0.4433  0.3178
  524TIP3    H123063   3.394   2.023   2.609  1.8016  0.7063  0.1289
  524TIP3    H223064   3.327   2.117   2.512 -3.2487 -1.4021  1.2480
  525TIP3   OH223065   6.145   0.955   3.618  0.7606  0.4462  0.4087
  525TIP3    H123066   6.095   0.900   3.678  0.9417  1.4048  1.4898
  525TIP3    H223067   6.079   1.008   3.573  0.5828 -0.6634 -0.6818
  526TIP3   OH223068   3.084   1.686   2.911 -0.1726  0.6084 -0.3678
  526TIP3    H123069   3.099   1.693   3.005  1.1828 -2.2669 -0.2718
  526TIP3    H223070   2.989   1.689   2.901 -0.5186 -1.8265  1.4618
  527TIP3   OH223071   2.127   5.935   1.550  0.0535  0.5761 -0.5434
  527TIP3    H123072   2.183   5.913   1.625 -2.0404 -1.5169  0.5316
  527TIP3    H223073   2.040   5.945   1.587 -1.2064 -1.2389 -2.7104
  528TIP3   OH223074   3.399   2.907  14.846  0.4005 -0.4031 -0.4652
  528TIP3    H123075   3.440   2.866  14.922 -1.1592 -0.3027  0.4767
  528TIP3    H223076   3.468   2.961  14.807  1.4800 -1.1668  0.3478
  529TIP3   OH223077   0.774   4.948   3.818  0.1127 -0.4316  0.4778
  529TIP3    H123078   0.705   4.882   3.822 -2.3377  1.6746 -2.3968
  529TIP3    H223079   0.823   4.927   3.739  1.2834 -0.4630  1.1769
  530TIP3   OH223080   6.810   0.523   3.865  0.2726 -0.5997  0.0113
  530TIP3    H123081   6.780   0.449   3.918 -0.1479 -0.5564 -0.1562
  530TIP3    H223082   6.874   0.486   3.805  1.7030 -0.4297  1.3653
  531TIP3   OH223083   5.509   4.787  15.754 -0.4521 -0.0754 -0.4309
  531TIP3    H123084   5.429   4.837  15.775 -1.8996 -1.9177 -1.2586
  531TIP3    H223085   5.546   4.764  15.839 -0.5433  1.1706 -0.0343
  532TIP3   OH223086   2.987   5.086  14.235 -0.0170  0.1859 -0.2136
  532TIP3    H123087   2.923   5.126  14.176  1.1678  1.1098 -0.9137
  532TIP3    H223088   2.991   4.994  14.207 -1.6054 -0.0854  0.3731
  533TIP3   OH223089   0.041   0.795  13.451 -0.0939  0.0740  0.4758
  533TIP3    H123090   0.030   0.869  13.392  1.8310  0.4499  0.5295
  533TIP3    H223091   0.119   0.750  13.420 -0.1360 -0.8383  1.5893
  534TIP3   OH223092   1.724   2.045   0.313 -0.2481 -0.0329 -0.5199
  534TIP3    H123093   1.682   2.008   0.235 -0.2918 -0.6977 -0.1863
  534TIP3    H223094   1.713   2.140   0.303 -1.3070 -0.1646 -0.7383
  535TIP3   OH223095   3.024   6.328  15.318  0.2002 -0.2170 -0.0331
  535TIP3    H123096   3.053   6.270  15.388  3.9577  1.1664 -0.1998
  535TIP3    H223097   3.026   6.274  15.239 -2.0777 -1.2538  0.5486
  536TIP3   OH223098   2.121   1.153   1.871  0.0431 -0.0921 -0.8826
  536TIP3    H123099   2.035   1.129   1.836 -1.4299  0.4694  2.0083
  536TIP3    H223100   2.149   1.078   1.923  1.6435 -0.4994 -2.2421
  537TIP3   OH223101   3.613   5.579   5.544 -0.4596  0.1848  0.1538
  537TIP3    H123102   3.630   5.622   5.627 -0.5858  0.9758 -0.2158
  537TIP3    H223103   3.566   5.645   5.492  0.0508 -0.1163 -0.7145
  538TIP3   OH223104   2.539   6.199  14.817  0.4544  0.0068  0.1001
  538TIP3    H123105   2.586   6.124  14.781 -0.4722 -0.0986 -0.9574
  538TIP3    H223106   2.459   6.204  14.764  0.6099  1.8954 -0.0171
  539TIP3   OH223107   2.438   0.844  11.390  0.2746 -0.3327  0.1827
  539TIP3    H123108   2.384   0.921  11.371  1.2612 -0.0724 -1.7647
  539TIP3    H223109   2.446   0.799  11.306  1.3138 -1.5303  0.8919
  540TIP3   OH223110   1.943   0.149  16.645  0.5808  0.3310  0.5599
  540TIP3    H123111   1.851   0.125  16.633  0.3798  0.0301  2.3831
  540TIP3    H223112   1.967   0.194  16.564 -0.7495 -0.8156 -0.5270
  541TIP3   OH223113   0.096   3.721  14.929 -1.1868 -0.4287  0.5466
  541TIP3    H123114   0.098   3.815  14.945  1.2673 -0.2120 -0.7288
  541TIP3    H223115   0.142   3.683  15.004  0.0978 -0.3623 -0.1822
  542TIP3   OH223116   3.043   3.399  15.915 -0.5727  0.3761  0.4511
  542TIP3    H123117   2.979   3.358  15.857  1.6236 -2.6470 -0.0503
  542TIP3    H223118   3.007   3.487  15.931 -3.4621 -0.2076 -1.8657
  543TIP3   OH223119   6.362   4.872   4.345 -0.7272  0.0910 -0.1189
  543TIP3    H123120   6.443   4.890   4.297 -0.0205 -0.5623  0.7878
  543TIP3    H223121   6.372   4.922   4.426 -0.2970 -1.5915  0.8990
  544TIP3   OH223122   3.069   0.909  16.733 -0.4511 -0.0936 -0.6711
  544TIP3    H123123   3.132   0.844  16.703  1.1614 -0.2678  2.6682
  544TIP3    H223124   3.083   0.984  16.675  2.2400 -0.4516 -0.6128
  545TIP3   OH223125   3.985   3.335  15.942 -0.4247  0.1326  0.6572
  545TIP3    H123126   4.057   3.396  15.925 -0.8740  0.3244 -0.6683
  545TIP3    H223127   3.919   3.387  15.986 -0.6073  0.4801 -0.0279
  546TIP3   OH223128   2.566   1.685   0.309  0.0892  0.5691  0.4044
  546TIP3    H123129   2.639   1.741   0.337 -1.1940  1.4546  2.1670
  546TIP3    H223130   2.532   1.727   0.230 -0.1377  1.6641  1.0623
  547TIP3   OH223131   0.589   2.101   0.035  0.0085 -0.1239 -0.6456
  547TIP3    H123132   0.599   2.196   0.047 -1.7357 -0.0203  0.4033
  547TIP3    H223133   0.609   2.064   0.121 -1.4523 -0.4726 -0.4295
  548TIP3   OH223134   3.524   5.455   1.367  0.4047 -0.0971 -0.1473
  548TIP3    H123135   3.451   5.516   1.372  1.7416  1.8162 -2.2633
  548TIP3    H223136   3.487   5.375   1.328 -0.6982  0.5612 -0.4783
  549TIP3   OH223137   4.873   3.096   2.238  0.3588  0.0810 -0.1229
  549TIP3    H123138   4.843   3.081   2.148 -0.7025  0.7752  0.0963
  549TIP3    H223139   4.931   3.172   2.232 -1.7170  1.8144  0.0756
  550TIP3   OH223140   4.417   6.201  12.119 -0.6769  0.4348 -0.1939
  550TIP3    H123141   4.336   6.227  12.075  0.4742  2.3294 -1.3159
  550TIP3    H223142   4.445   6.122  12.071 -1.5171  0.1488 -0.2234
  551TIP3   OH223143   0.893   4.694   1.705  0.3196 -0.1495  0.1509
  551TIP3    H123144   0.849   4.665   1.625 -1.0029  1.0112  0.4228
  551TIP3    H223145   0.952   4.623   1.727  0.6223 -0.5579 -1.7860
  552TIP3   OH223146   1.400   6.620   3.756 -0.8304  0.0042 -0.3686
  552TIP3    H123147   1.487   6.656   3.771 -0.9724 -0.0318  0.6346
  552TIP3    H223148   1.350   6.692   3.717 -0.7666  0.5114  0.4665
  553TIP3   OH223149   0.400   2.671   0.242 -0.2517  0.2992  0.1767
  553TIP3    H123150   0.487   2.639   0.267 -0.6428 -0.7756  0.2466
  553TIP3    H223151   0.380   2.740   0.305  0.1260 -0.1574  0.8138
  554TIP3   OH223152   6.476   4.404   2.837 -0.1258 -0.3214 -0.3142
  554TIP3    H123153   6.515   4.442   2.758 -0.8359 -0.1898 -0.6097
  554TIP3    H223154   6.550   4.370   2.886  0.1400 -3.2894 -2.5043
  555TIP3   OH223155   1.631   0.463   0.646 -0.2252  0.0829 -0.2528
  555TIP3    H123156   1.636   0.443   0.739  1.7762 -0.8458 -0.4983
  555TIP3    H223157   1.547   0.426   0.618 -0.0691 -1.1829  0.8549
  556TIP3   OH223158   1.611   5.826   5.641  0.0823  0.6057 -0.2560
  556TIP3    H123159   1.630   5.798   5.731  0.8626  1.1522 -0.2415
  556TIP3    H223160   1.586   5.918   5.649  0.5472  0.7667 -0.6430
  557TIP3   OH223161   1.103   4.563  11.452 -0.0346  0.1332 -0.1997
  557TIP3    H123162   1.128   4.500  11.384  0.9977 -0.3547  0.6102
  557TIP3    H223163   1.060   4.511  11.519 -1.9132  0.7425 -0.8439
  558TIP3   OH223164   5.568   6.637   3.428 -1.0594  0.0435 -0.1821
  558TIP3    H123165   5.548   6.556   3.381  1.0892 -0.3598 -0.5041
  558TIP3    H223166   5.484   6.683   3.433 -2.2047 -1.8936 -0.5548
  559TIP3   OH223167   6.525   3.978   6.080 -0.0372  0.1926 -0.3838
  559TIP3    H123168   6.441   3.935   6.098 -1.5399  3.2025  0.4218
  559TIP3    H223169   6.545   4.027   6.159  1.0543  1.7192 -1.5301
  560TIP3   OH223170   6.799   1.546  11.876 -0.1625  0.0532  0.1163
  560TIP3    H123171   6.859   1.473  11.857  1.5044  1.0492  1.3282
  560TIP3    H223172   6.760   1.523  11.960 -0.4488  0.0755 -0.0087
  561TIP3   OH223173   3.088   1.054   6.032 -0.1572  0.0122 -0.6636
  561TIP3    H123174   3.137   1.079   6.111 -3.3791 -1.2785  2.0169
  561TIP3    H223175   3.117   0.964   6.014 -1.3737 -0.7783  0.9609
  562TIP3   OH223176   4.167   6.853   5.148  0.3487 -0.3194  0.2673
  562TIP3    H123177   4.140   6.844   5.239 -0.5655 -0.7180 -0.0284
  562TIP3    H223178   4.169   6.763   5.115 -1.3292 -0.0554 -0.6455
  563TIP3   OH223179   3.282   6.019   0.454  0.5202 -0.1127 -0.1299
  563TIP3    H123180   3.352   5.977   0.405  0.4313 -2.8904  1.8795
  563TIP3    H223181   3.226   6.059   0.388  0.9712 -2.6802 -2.2122
  564TIP3   OH223182   1.334   2.055   0.812  0.5006  0.0680 -0.6452
  564TIP3    H123183   1.241   2.052   0.790  0.7518  0.5211 -1.8160
  564TIP3    H223184   1.371   2.122   0.755  1.6002 -0.2946 -0.3896
  565TIP3   OH223185   3.858   5.554  16.354 -0.1645  0.0878  0.5218
  565TIP3    H123186   3.938   5.601  16.376 -0.1957  0.0540  0.7087
  565TIP3    H223187   3.791   5.622  16.345 -0.1124  0.1168  0.3533
  566TIP3   OH223188   3.007   3.267  11.693 -0.1926 -0.1332  0.4071
  566TIP3    H123189   3.084   3.274  11.637 -0.4684 -0.1767  0.0194
  566TIP3    H223190   3.042   3.267  11.782  0.2490 -0.0768  0.2352
  567TIP3   OH223191   5.009   3.212  12.449 -0.0208 -0.7322  0.0699
  567TIP3    H123192   5.003   3.284  12.512 -1.3494 -1.0086  0.2919
  567TIP3    H223193   5.096   3.174  12.464  1.2765  1.6104 -0.9582
  568TIP3   OH223194   1.938   6.035  11.430 -0.0504  0.0728  0.5192
  568TIP3    H123195   1.909   6.005  11.343  1.0346  3.3227 -1.1524
  568TIP3    H223196   1.874   6.102  11.454  1.1509  1.0844  0.9581
  569TIP3   OH223197   3.439   6.526  13.473 -0.7549  0.3909  0.1240
  569TIP3    H123198   3.505   6.523  13.404  0.2890  0.0181  1.1133
  569TIP3    H223199   3.369   6.469  13.440 -0.6873  0.9265 -1.0096
  570TIP3   OH223200   0.167   6.244   6.741 -0.0930 -0.0799  0.1205
  570TIP3    H123201   0.232   6.281   6.801  0.1436 -0.6666  0.2313
  570TIP3    H223202   0.098   6.210   6.798  0.2764 -0.9112  0.0841
  571TIP3   OH223203   5.230   0.901   5.545  0.2411  0.2460  0.2437
  571TIP3    H123204   5.162   0.968   5.552  0.3838  0.5113 -0.7980
  571TIP3    H223205   5.302   0.944   5.498 -1.0261 -1.6200 -3.8366
  572TIP3   OH223206   0.623   4.977  16.639 -0.0560  0.0951 -0.1046
  572TIP3    H123207   0.616   4.932  16.554  2.1421 -1.1890  0.3080
  572TIP3    H223208   0.680   5.052  16.622 -0.2990  0.3156  0.0596
  573TIP3   OH223209   2.666   1.061   4.503 -0.2355  0.1820  0.2866
  573TIP3    H123210   2.715   1.139   4.530 -1.7105  1.7928 -1.4227
  573TIP3    H223211   2.633   1.082   4.416  0.4805 -2.9582 -0.8704
  574TIP3   OH223212   4.899   2.862  16.827  0.1793  0.3299 -0.0081
  574TIP3    H123213   4.820   2.825  16.866 -1.0640  1.8890 -0.9277
  574TIP3    H223214   4.929   2.927  16.891 -0.6126  1.3415 -0.6355
  575TIP3   OH223215   0.141   4.682   6.044  0.4940 -0.4080 -0.5965
  575TIP3    H123216   0.151   4.775   6.023  1.5805 -0.0551  1.3130
  575TIP3    H223217   0.083   4.648   5.975  2.8893  0.8639 -3.4372
  576TIP3   OH223218   5.037   5.236   0.199 -0.3828 -0.0673 -0.6972
  576TIP3    H123219   5.062   5.151   0.236 -1.1904  0.2755  0.7232
  576TIP3    H223220   4.959   5.261   0.248 -0.8541  0.9582 -1.9199
  577TIP3   OH223221   6.064   1.522  11.023  0.6755  0.1631  0.7582
  577TIP3    H123222   6.155   1.542  11.045  0.5956  1.6961 -0.1174
  577TIP3    H223223   6.061   1.529  10.927 -0.3309 -0.0376  0.7652
  578TIP3   OH223224   2.236   0.677   2.622 -0.2822  0.8837 -0.0864
  578TIP3    H123225   2.263   0.585   2.615  1.0766  1.1446  1.2387
  578TIP3    H223226   2.146   0.678   2.588 -0.5108 -1.0259  0.3404
  579TIP3   OH223227   2.909   3.505  11.150  0.1588 -0.6754  0.2909
  579TIP3    H123228   2.863   3.527  11.069  1.6386 -0.9441 -0.6724
  579TIP3    H223229   2.873   3.564  11.215 -0.2611  0.3433 -0.8291
  580TIP3   OH223230   1.000   6.131   0.140  0.6335  0.8797 -0.2819
  580TIP3    H123231   1.024   6.068   0.208  3.4586  0.6677 -1.3191
  580TIP3    H223232   1.007   6.081   0.058 -0.5868  1.6628 -0.8887
  581TIP3   OH223233   5.949   4.977  13.288  0.2710 -0.3790 -0.0587
  581TIP3    H123234   5.978   4.981  13.379  0.5532  0.7497 -0.1843
  581TIP3    H223235   5.856   5.002  13.291  0.7593  1.6420 -0.2686
  582TIP3   OH223236   1.330   1.880  12.512 -0.2497  0.6753 -0.1599
  582TIP3    H123237   1.309   1.792  12.543  0.2845  0.3463 -0.7282
  582TIP3    H223238   1.408   1.906  12.561  0.0253  0.5382 -0.5217
  583TIP3   OH223239   6.054   6.786   3.508 -0.0586 -0.0830 -1.0003
  583TIP3    H123240   6.100   6.799   3.590 -0.0102  4.5299 -1.5031
  583TIP3    H223241   6.119   6.805   3.440 -0.6931 -1.4698 -2.0596
  584TIP3   OH223242   5.308   6.732  13.994 -0.0825  0.3321 -0.0230
  584TIP3    H123243   5.232   6.686  13.958 -0.6461  0.6726  0.6974
  584TIP3    H223244   5.303   6.715  14.089  1.2306 -0.3566 -0.0496
  585TIP3   OH223245   6.387   3.106   4.607  0.2529 -0.5802  0.7344
  585TIP3    H123246   6.331   3.183   4.595  1.7628  0.8119  2.0870
  585TIP3    H223247   6.440   3.103   4.528 -0.9791 -1.3015 -0.0980
  586TIP3   OH223248   2.491   2.481   3.810  0.0039  0.2683 -0.0089
  586TIP3    H123249   2.575   2.519   3.784 -0.0979 -0.3555 -1.3157
  586TIP3    H223250   2.483   2.401   3.758 -0.6602 -0.5548  1.3008
  587TIP3   OH223251   6.339   3.796  12.594 -0.2808  0.8471 -0.5103
  587TIP3    H123252   6.414   3.843  12.557  1.1564  0.9175  2.2370
  587TIP3    H223253   6.378   3.718  12.634 -2.1502 -0.8702 -1.8524
  588TIP3   OH223254   5.249   1.711  10.959 -0.3774 -0.2285 -0.5959
  588TIP3    H123255   5.183   1.645  10.936  0.2349 -1.2878  0.5380
  588TIP3    H223256   5.275   1.749  10.875 -0.8386 -1.3508 -1.2707
  589TIP3   OH223257   6.061   6.483  13.480 -0.1454 -0.2902 -0.2530
  589TIP3    H123258   6.084   6.421  13.550 -0.0222 -1.4116 -1.2623
  589TIP3    H223259   5.985   6.445  13.438 -0.3068  0.4532 -0.6569
  590TIP3   OH223260   5.852   0.335   4.151  0.3622  0.6334  0.4665
  590TIP3    H123261   5.855   0.251   4.105 -1.0172  0.1146  1.2689
  590TIP3    H223262   5.799   0.391   4.094 -2.4000 -0.3726  1.8656
  591TIP3   OH223263   1.675   2.049   5.457  0.1251  0.0628  0.3939
  591TIP3    H123264   1.740   2.045   5.527  0.7741 -0.1562 -0.2030
  591TIP3    H223265   1.725   2.075   5.380 -0.3879 -0.6613 -0.2043
  592TIP3   OH223266   2.184   2.819   5.040 -0.5622 -0.7235 -0.4836
  592TIP3    H123267   2.102   2.772   5.054 -0.5163 -0.9992 -1.0935
  592TIP3    H223268   2.166   2.877   4.966  0.0477 -1.4241 -1.1976
  593TIP3   OH223269   4.176   0.231  13.893 -0.0198 -0.3218  0.1625
  593TIP3    H123270   4.116   0.256  13.963 -3.1436 -1.1309 -1.9791
  593TIP3    H223271   4.170   0.136  13.888  0.8304 -0.3533 -0.6070
  594TIP3   OH223272   6.110   1.105   3.868  0.0045  0.2209 -0.2205
  594TIP3    H123273   6.015   1.114   3.877 -0.0294 -0.0191 -0.3220
  594TIP3    H223274   6.146   1.159   3.939 -0.1898  0.8537 -0.5985
  595TIP3   OH223275   4.726   4.477  12.094  0.2514  0.0033 -0.0353
  595TIP3    H123276   4.694   4.534  12.025  2.1007  0.2236 -0.7660
  595TIP3    H223277   4.766   4.403  12.048  1.9906  0.4098  0.7209
  596TIP3   OH223278   4.222   3.258  15.211  0.6322  0.5442  0.2543
  596TIP3    H123279   4.164   3.220  15.146  0.3997 -1.6759  1.6663
  596TIP3    H223280   4.190   3.348  15.223  0.3593  0.8457 -2.2161
  597TIP3   OH223281   4.961   2.550  16.734 -0.0659  0.2497  0.5152
  597TIP3    H123282   4.947   2.586  16.821  1.0605  1.1680  0.3504
  597TIP3    H223283   4.913   2.468  16.734  0.8820 -0.3776  2.4286
  598TIP3   OH223284   5.974   1.740  14.436  0.6625  0.3906  0.2057
  598TIP3    H123285   5.928   1.663  14.403 -0.6597  1.1484  0.2489
  598TIP3    H223286   6.047   1.703  14.486  0.1225 -0.8297  0.1444
  599TIP3   OH223287   5.610   0.783   1.728  0.2863 -0.5943 -0.4932
  599TIP3    H123288   5.653   0.706   1.765  0.9932 -0.5208 -1.1158
  599TIP3    H223289   5.676   0.820   1.669  0.1831  0.8268  0.2387
  600TIP3   OH223290   1.835   3.730  16.697 -0.2990 -0.5462 -0.0913
  600TIP3    H123291   1.815   3.664  16.764 -1.1071 -1.3778 -1.1068
  600TIP3    H223292   1.863   3.679  16.621 -0.3185  0.3210 -0.6950
  601TIP3   OH223293   6.363   2.625   4.892  0.4728  0.2350 -0.0174
  601TIP3    H123294   6.442   2.617   4.945  1.3848 -0.4048 -1.4097
  601TIP3    H223295   6.375   2.562   4.821 -0.2262  1.7193 -1.5460
  602TIP3   OH223296   6.094   2.545   6.247  0.4016 -0.4391  0.2563
  602TIP3    H123297   6.022   2.559   6.309 -1.7648  2.2753 -2.5745
  602TIP3    H223298   6.059   2.485   6.182  1.8598 -1.5002  0.3947
  603TIP3   OH223299   1.069   1.532   5.404 -0.1940 -0.0078  0.7955
  603TIP3    H123300   1.127   1.572   5.470 -1.3444  0.8587  1.3075
  603TIP3    H223301   1.005   1.482   5.455 -0.5344 -0.1020  0.2821
  604TIP3   OH223302   5.033   2.265  13.092 -0.0838 -0.2940 -0.6530
  604TIP3    H123303   4.971   2.336  13.080 -0.5467 -1.1148 -4.8949
  604TIP3    H223304   5.112   2.294  13.045  1.4366 -0.8082  1.4250
  605TIP3   OH223305   4.545   4.548  12.420 -0.2030 -0.0250  0.5845
  605TIP3    H123306   4.547   4.496  12.500  0.0253  1.8397  1.8462
  605TIP3    H223307   4.472   4.607  12.432  0.1899  0.6636 -0.3326
  606TIP3   OH223308   2.973   6.284  15.892  0.0903  0.0217 -1.3108
  606TIP3    H123309   3.017   6.274  15.976 -0.8422 -2.1514 -1.0060
  606TIP3    H223310   2.885   6.315  15.915 -0.5008 -1.5440 -1.3464
  607TIP3   OH223311   4.047   3.092   3.462  0.0852 -0.1923  0.3949
  607TIP3    H123312   4.045   3.175   3.510 -1.0875  0.9231 -1.4550
  607TIP3    H223313   4.031   3.117   3.371 -2.9248 -2.6718  0.0995
  608TIP3   OH223314   1.300   5.251  13.775  0.2620  0.2544  0.6511
  608TIP3    H123315   1.330   5.340  13.757 -0.8365  0.5375  0.1621
  608TIP3    H223316   1.265   5.220  13.692 -2.2245  0.5225  1.5082
  609TIP3   OH223317   3.260   2.740   2.904  0.0883  0.2401  0.4267
  609TIP3    H123318   3.254   2.701   2.817  0.1634 -2.0219  1.3580
  609TIP3    H223319   3.352   2.763   2.915  0.5427 -1.4724  0.6370
  610TIP3   OH223320   3.473   0.318  11.261 -0.2018 -0.7802 -0.3346
  610TIP3    H123321   3.438   0.398  11.220 -0.6983 -0.7303  0.1705
  610TIP3    H223322   3.426   0.312  11.345  1.3247 -0.4654  0.5833
  611TIP3   OH223323   0.910   2.544   5.148 -0.6015 -0.0271  0.4405
  611TIP3    H123324   0.976   2.475   5.149  0.1993  0.7052 -0.2653
  611TIP3    H223325   0.896   2.562   5.055 -0.4293  1.0895  0.6174
  612TIP3   OH223326   4.745   5.006  14.344  0.3398  0.2298  0.2258
  612TIP3    H123327   4.689   5.082  14.362  0.6239  0.2713  0.9729
  612TIP3    H223328   4.703   4.963  14.269 -0.2175  0.7314  0.2371
  613TIP3   OH223329   2.719   0.747   5.196 -0.2123  0.0692 -0.2154
  613TIP3    H123330   2.704   0.822   5.252  2.0828 -0.2626  0.9505
  613TIP3    H223331   2.805   0.762   5.158  1.1440 -2.7088  1.4425
  614TIP3   OH223332   0.991   1.105  14.290  0.2707  0.3778 -0.0268
  614TIP3    H123333   1.057   1.171  14.267  0.6850  0.0398  0.1653
  614TIP3    H223334   0.932   1.150  14.350  1.2045  0.2592  1.0150
  615TIP3   OH223335   5.083   1.049  12.209 -0.4360 -0.5074  0.7966
  615TIP3    H123336   5.004   0.995  12.207 -1.9047  1.5254 -1.1138
  615TIP3    H223337   5.060   1.125  12.262 -0.7304  1.2900 -1.7090
  616TIP3   OH223338   4.237   1.880  12.429  0.3338  0.4205 -0.2120
  616TIP3    H123339   4.218   1.945  12.361  0.4980 -0.0780 -0.7341
  616TIP3    H223340   4.258   1.800  12.381  1.6819  0.3897  0.3872
  617TIP3   OH223341   0.551   5.828  10.644  0.1705  0.0936  0.1207
  617TIP3    H123342   0.476   5.805  10.589  1.2224 -1.4859 -0.7272
  617TIP3    H223343   0.559   5.755  10.705  0.5527  0.6393  0.7324
  618TIP3   OH223344   0.708   0.524   1.168  0.5541 -0.4410  0.0358
  618TIP3    H123345   0.746   0.501   1.253  1.7308 -1.0888 -0.6488
  618TIP3    H223346   0.669   0.443   1.136 -0.3261 -0.0826  0.1523
  619TIP3   OH223347   6.690   2.223   0.939 -0.3578  0.1585  0.4673
  619TIP3    H123348   6.760   2.283   0.963 -0.6986  0.1969  1.4460
  619TIP3    H223349   6.710   2.195   0.850  0.6500  0.5162  0.5761
  620TIP3   OH223350   0.917   3.826  10.895  0.1369 -0.2910 -0.0885
  620TIP3    H123351   1.013   3.831  10.896  0.1657 -0.7340 -0.4564
  620TIP3    H223352   0.894   3.821  10.802 -0.4463  3.3417 -0.2634
  621TIP3   OH223353   1.749   4.958  14.831 -0.1666 -0.6101  0.2848
  621TIP3    H123354   1.703   4.907  14.898  0.8868  0.8845  2.2793
  621TIP3    H223355   1.810   4.897  14.791 -0.4332 -1.4436  1.1183
  622TIP3   OH223356   4.836   3.406   1.109  0.1287 -0.5840  0.1930
  622TIP3    H123357   4.799   3.318   1.115 -0.0082 -0.4935  0.6958
  622TIP3    H223358   4.895   3.413   1.184  1.7602 -0.9939 -0.9891
  623TIP3   OH223359   4.598   0.231  13.367 -0.2076  0.0104  0.0338
  623TIP3    H123360   4.630   0.291  13.301 -1.9120  1.1381  0.1649
  623TIP3    H223361   4.569   0.154  13.318 -3.3604  1.6362 -0.8957
  624TIP3   OH223362   4.066   3.227   1.347  0.5498 -0.6197  0.4525
  624TIP3    H123363   4.044   3.292   1.280 -3.9327 -0.6117  1.5831
  624TIP3    H223364   4.106   3.278   1.417 -2.0788  0.9475  0.9521
  625TIP3   OH223365   4.876   6.595   3.707  0.3719  0.0123  0.0347
  625TIP3    H123366   4.788   6.566   3.684  0.7105 -0.3188 -0.9145
  625TIP3    H223367   4.873   6.690   3.698 -0.3149  0.1602  1.6007
  626TIP3   OH223368   1.414   4.027  14.537 -0.2470  0.4221 -0.1404
  626TIP3    H123369   1.464   3.988  14.465 -1.0955 -2.8787  0.8772
  626TIP3    H223370   1.449   3.986  14.615 -1.1440  1.9217  1.1074
  627TIP3   OH223371   0.992   3.972   2.793  0.1035 -0.4202 -0.1065
  627TIP3    H123372   0.914   4.002   2.839 -0.2580  1.8480 -2.0102
  627TIP3    H223373   0.962   3.951   2.705  1.5487  0.0505 -0.7437
  628TIP3   OH223374   0.602   3.055  14.420 -0.2465 -0.6393 -0.0467
  628TIP3    H123375   0.661   3.130  14.422 -2.0938  0.8731  2.2774
  628TIP3    H223376   0.655   2.984  14.382  1.6509  1.6810 -2.0352
  629TIP3   OH223377   0.326   6.440   5.307 -0.7276  0.1187  0.4057
  629TIP3    H123378   0.319   6.505   5.237  0.7047 -0.8666 -0.7080
  629TIP3    H223379   0.394   6.474   5.365 -0.2193 -0.2162  0.0087
  630TIP3   OH223380   1.504   0.488  15.384 -0.2696  0.2226 -0.3243
  630TIP3    H123381   1.542   0.560  15.435 -2.8172  1.0357  0.5791
  630TIP3    H223382   1.467   0.531  15.307 -2.4844  0.0700  0.5899
  631TIP3   OH223383   3.947   6.321  16.630  0.1943  0.5323 -0.5828
  631TIP3    H123384   4.027   6.340  16.581  0.4290  1.5959  0.1825
  631TIP3    H223385   3.887   6.285  16.564  1.5921 -1.2093 -0.9867
  632TIP3   OH223386   2.087   1.588   3.866  0.1992 -0.1379 -0.5627
  632TIP3    H123387   2.153   1.540   3.915 -1.2790 -0.6481  1.0124
  632TIP3    H223388   2.019   1.523   3.847 -0.6806  0.7645 -0.5850
  633TIP3   OH223389   2.606   1.971  11.103  0.3344 -0.0126 -0.3004
  633TIP3    H123390   2.646   2.052  11.135 -0.2233  0.3120 -0.4036
  633TIP3    H223391   2.538   1.951  11.167  1.6099 -1.3677  0.6624
  634TIP3   OH223392   4.675   5.068   3.835 -0.0185 -0.7940  0.0750
  634TIP3    H123393   4.714   5.124   3.768 -0.9376 -2.7062 -2.2006
  634TIP3    H223394   4.747   5.011   3.863  0.6124  0.6419  1.5116
  635TIP3   OH223395   5.551   4.649  13.262  0.1396 -0.5168  0.1689
  635TIP3    H123396   5.514   4.656  13.174  1.5578  0.1993 -0.4137
  635TIP3    H223397   5.493   4.700  13.317 -1.3270 -1.7758 -0.1385
  636TIP3   OH223398   2.217   3.768  14.681 -0.1121  0.3132  0.2832
  636TIP3    H123399   2.273   3.707  14.634 -1.2083  0.8200 -1.8273
  636TIP3    H223400   2.234   3.853  14.640 -0.2915  1.0033  1.5971
  637TIP3   OH223401   2.445   3.226  13.760  0.2905  0.2263  0.3903
  637TIP3    H123402   2.539   3.225  13.776  0.5681  0.7571 -1.1188
  637TIP3    H223403   2.417   3.136  13.779  1.6554 -0.8257 -2.1219
  638TIP3   OH223404   2.309   4.214   1.137  0.2446 -0.2994  0.3445
  638TIP3    H123405   2.324   4.161   1.059  1.1059 -1.3653  1.1868
  638TIP3    H223406   2.222   4.189   1.166 -0.1303  0.1951 -0.3323
  639TIP3   OH223407   4.637   2.893   1.013  0.0105 -0.3725  0.0761
  639TIP3    H123408   4.542   2.884   1.013 -0.1310  0.8803  0.1760
  639TIP3    H223409   4.664   2.877   0.923 -0.4505  0.5024 -0.2298
  640TIP3   OH223410   5.614   5.946   1.222  0.1564 -0.6625  0.2768
  640TIP3    H123411   5.674   5.926   1.293 -0.1435  0.2091  0.7869
  640TIP3    H223412   5.665   5.930   1.142  0.9379 -0.3229  0.7007
  641TIP3   OH223413   3.970   1.171  15.660  0.1996 -0.2456  0.0703
  641TIP3    H123414   3.929   1.137  15.740  0.3607 -0.8170 -0.0863
  641TIP3    H223415   3.951   1.265  15.662 -0.8332 -0.4378  0.1782
  642TIP3   OH223416   3.157   0.809  11.270  0.2171  0.0958 -0.2004
  642TIP3    H123417   3.082   0.755  11.246 -0.0556 -0.2371  1.3563
  642TIP3    H223418   3.119   0.891  11.300  0.6427  1.7209 -3.5814
  643TIP3   OH223419   0.272   3.323   0.483 -0.2735  0.2420 -0.1778
  643TIP3    H123420   0.227   3.286   0.407 -0.5257  1.3741 -0.5893
  643TIP3    H223421   0.290   3.247   0.539 -1.6980 -0.3704 -0.5157
  644TIP3   OH223422   6.354   6.294  11.066 -0.5843 -0.1901  0.0216
  644TIP3    H123423   6.383   6.304  11.157  0.7602  0.9837 -0.5066
  644TIP3    H223424   6.388   6.372  11.021 -1.1679 -0.7834 -1.5010
  645TIP3   OH223425   0.226   2.312  12.225  0.2855 -0.8879  0.1133
  645TIP3    H123426   0.258   2.232  12.268 -0.3923 -0.8748  0.6595
  645TIP3    H223427   0.235   2.294  12.131  4.3407  0.0978  0.1410
  646TIP3   OH223428   6.820   0.529  12.453  0.7818  0.2065  0.2431
  646TIP3    H123429   6.742   0.478  12.435  1.7127 -1.0742 -0.2997
  646TIP3    H223430   6.880   0.469  12.496  1.6790  1.0068  0.1615
  647TIP3   OH223431   5.077   6.241  11.658 -0.5787 -0.3221 -0.0465
  647TIP3    H123432   5.117   6.325  11.636  0.6066 -0.4445  1.4854
  647TIP3    H223433   5.130   6.176  11.613  0.6611 -0.4447  1.5184
  648TIP3   OH223434   6.138   2.766   1.529 -1.1716 -0.1462 -0.2336
  648TIP3    H123435   6.182   2.716   1.460  2.3682 -0.3739  1.9492
  648TIP3    H223436   6.065   2.711   1.556 -1.1549 -1.1606 -2.0707
  649TIP3   OH223437   1.050   4.810  13.700  0.1009 -0.3333 -0.6512
  649TIP3    H123438   1.055   4.767  13.785  1.1577  0.3529 -0.3455
  649TIP3    H223439   1.055   4.739  13.636  3.4170 -0.6613 -0.2045
  650TIP3   OH223440   2.912   1.303  12.069  0.6164 -0.3581 -0.2284
  650TIP3    H123441   2.957   1.226  12.101  0.9670 -0.2831 -0.5406
  650TIP3    H223442   2.918   1.298  11.973  0.3103 -0.1429 -0.2642
  651TIP3   OH223443   5.183   0.154   6.133 -0.0323 -0.3309 -0.0820
  651TIP3    H123444   5.166   0.211   6.208 -2.2541 -0.4244 -0.4550
  651TIP3    H223445   5.173   0.066   6.167 -0.2044 -0.3906 -0.2809
  652TIP3   OH223446   2.840   3.040  12.566 -0.7004 -0.4824  0.5803
  652TIP3    H123447   2.791   3.030  12.648 -0.9745 -0.6412  0.3956
  652TIP3    H223448   2.932   3.038  12.594 -0.7878  0.4370  1.0030
  653TIP3   OH223449   0.926   2.688   0.352 -0.4155  0.1409  0.3012
  653TIP3    H123450   0.964   2.713   0.268 -1.8343  0.2101 -0.3568
  653TIP3    H223451   0.985   2.724   0.418  0.8587 -0.1274 -0.6559
  654TIP3   OH223452   5.288   6.275   1.388  0.1996  0.2936 -0.2688
  654TIP3    H123453   5.366   6.247   1.342  0.4637  0.8253 -0.1521
  654TIP3    H223454   5.232   6.313   1.321  0.2421  0.3429 -0.2759
  655TIP3   OH223455   5.996   0.259  10.411 -0.2218 -0.2940 -0.3852
  655TIP3    H123456   6.088   0.259  10.387 -0.0624 -1.3144  0.1427
  655TIP3    H223457   5.991   0.314  10.489 -0.3524  1.1199 -1.3668
  656TIP3   OH223458   3.289   3.223   5.239  0.3272 -0.1102  0.0740
  656TIP3    H123459   3.219   3.178   5.287  0.9441  0.9392  2.1046
  656TIP3    H223460   3.268   3.210   5.147 -1.2900 -1.7216  0.6088
  657TIP3   OH223461   1.506   1.784   2.455  0.4397  0.0904  0.1962
  657TIP3    H123462   1.547   1.719   2.398 -1.3746 -3.0276  2.1469
  657TIP3    H223463   1.522   1.752   2.544 -0.9205  2.1047  1.2397
  658TIP3   OH223464   4.568   5.903   1.947  0.4022  0.1292 -0.0439
  658TIP3    H123465   4.575   5.843   2.021  0.7952  1.0741  0.7191
  658TIP3    H223466   4.608   5.857   1.874  2.9502  0.3703  1.1046
  659TIP3   OH223467   2.290   6.861   0.771 -0.1648  0.7158 -0.3728
  659TIP3    H123468   2.368   6.807   0.766 -0.3007  0.3181  1.2107
  659TIP3    H223469   2.231   6.826   0.705  0.1641 -0.3869 -0.0943
  660TIP3   OH223470   1.016   5.813   4.792 -0.5188  0.7162  0.3347
  660TIP3    H123471   1.064   5.861   4.860  0.5101 -1.6507  1.4023
  660TIP3    H223472   1.075   5.811   4.717  1.7547 -2.9793  1.9437
  661TIP3   OH223473   4.416   5.253   0.221  0.0849 -0.0785  0.3533
  661TIP3    H123474   4.471   5.210   0.155 -0.0685  0.2921 -0.0167
  661TIP3    H223475   4.436   5.206   0.302  1.6428  0.6501  0.4244
  662TIP3   OH223476   4.010   1.524  13.827  0.4885  0.6191  0.0897
  662TIP3    H123477   4.043   1.468  13.757  3.5865  0.0190  1.8224
  662TIP3    H223478   4.003   1.465  13.903 -0.3691  1.7274  0.9000
  663TIP3   OH223479   6.067   5.914  11.863  0.1348  0.4707  0.2555
  663TIP3    H123480   6.100   5.877  11.945 -2.5990  1.1933  1.8084
  663TIP3    H223481   6.000   5.977  11.890 -1.1827  0.4501 -2.5742
  664TIP3   OH223482   3.512   0.280   0.093  0.1598  0.0572  0.3894
  664TIP3    H123483   3.587   0.270   0.036 -0.0336 -1.9698  0.4269
  664TIP3    H223484   3.484   0.371   0.080  1.8289  0.4767 -0.5512
  665TIP3   OH223485   6.834   4.996  15.815 -0.0507 -0.2966 -0.3509
  665TIP3    H123486   6.926   4.969  15.821 -0.3987 -1.2318  1.0972
  665TIP3    H223487   6.837   5.077  15.764  1.4088 -1.0830 -1.5963
  666TIP3   OH223488   4.270   1.449  14.054  0.1854  0.3183  0.0240
  666TIP3    H123489   4.310   1.500  14.124  0.3570  0.4809 -0.1921
  666TIP3    H223490   4.291   1.497  13.974  0.2577 -0.0325 -0.1703
  667TIP3   OH223491   3.364   4.217   0.280  0.3407  0.0279 -0.0029
  667TIP3    H123492   3.328   4.261   0.357 -0.8929  0.4607 -0.7899
  667TIP3    H223493   3.369   4.286   0.214  2.1412 -0.1487 -0.1082
  668TIP3   OH223494   4.380   1.966   2.260  0.0197  0.1194 -0.3268
  668TIP3    H123495   4.430   1.895   2.218  0.0648  0.6525 -1.1947
  668TIP3    H223496   4.361   1.933   2.348 -0.4681 -1.2251 -0.9083
  669TIP3   OH223497   0.348   6.301  13.197 -0.3755  0.4329  0.4230
  669TIP3    H123498   0.388   6.324  13.281 -2.6046  2.4287  1.0729
  669TIP3    H223499   0.369   6.374  13.140  2.2977 -1.5280 -1.3477
  670TIP3   OH223500   1.838   2.459   5.141  0.6111 -0.1323 -0.0749
  670TIP3    H123501   1.908   2.405   5.176 -0.3173 -0.5701  1.1726
  670TIP3    H223502   1.760   2.403   5.145 -0.2643  1.0931  0.7263
  671TIP3   OH223503   1.624   6.137   6.187  0.3513  0.1818  0.2604
  671TIP3    H123504   1.620   6.045   6.162 -1.3583  0.0990  0.7058
  671TIP3    H223505   1.613   6.137   6.282  1.0352  0.8215  0.3546
  672TIP3   OH223506   3.647   3.253   0.703 -0.1071 -0.2436 -0.1664
  672TIP3    H123507   3.566   3.279   0.748 -0.2132 -0.5688 -0.1691
  672TIP3    H223508   3.653   3.314   0.629 -0.0179  0.1885  0.1919
  673TIP3   OH223509   6.369   3.677  13.539 -0.5685 -0.5233 -0.1951
  673TIP3    H123510   6.413   3.758  13.567 -0.4443 -1.0768  1.2407
  673TIP3    H223511   6.408   3.659  13.453  2.9213 -1.5761  1.4117
  674TIP3   OH223512   1.005   0.757   4.334  0.0065 -0.7339 -0.2973
  674TIP3    H123513   1.025   0.747   4.427  2.6601  1.5060 -0.4785
  674TIP3    H223514   1.062   0.695   4.290  2.2779  1.3884 -0.5406
  675TIP3   OH223515   2.113   4.760   1.774  0.2528  0.8985 -0.7437
  675TIP3    H123516   2.090   4.825   1.708 -0.0643  0.2621 -1.2657
  675TIP3    H223517   2.167   4.809   1.837 -1.3444  2.0899 -0.2119
  676TIP3   OH223518   5.477   1.939  14.752 -0.2165 -0.2295 -0.3133
  676TIP3    H123519   5.543   1.873  14.777  0.6189 -0.3819 -2.6514
  676TIP3    H223520   5.449   1.977  14.835  0.1858 -2.6587  1.0415
  677TIP3   OH223521   4.219   5.239  16.854 -0.1473 -0.2176 -0.1570
  677TIP3    H123522   4.246   5.148  16.861  0.4804 -0.0401 -0.2119
  677TIP3    H223523   4.182   5.261  16.939  0.0240 -0.4189 -0.0317
  678TIP3   OH223524   3.106   5.636  15.871 -0.3831  0.0471 -0.2852
  678TIP3    H123525   3.116   5.634  15.776  1.2163  1.1757 -0.1821
  678TIP3    H223526   3.013   5.615  15.886  0.0596 -3.8405 -1.8417
  679TIP3   OH223527   4.708   4.276   3.355 -0.5319  0.1493  0.1959
  679TIP3    H123528   4.756   4.238   3.429 -1.8371 -0.4460  0.7719
  679TIP3    H223529   4.723   4.215   3.283 -0.3562  0.0101  0.3470
  680TIP3   OH223530   4.757   0.286   3.179  0.0601  0.1285  0.4901
  680TIP3    H123531   4.672   0.327   3.162  1.0627  1.5716 -1.6241
  680TIP3    H223532   4.752   0.255   3.269 -2.3647  1.0116  0.7286
  681TIP3   OH223533   3.595   1.683   0.400  0.0229 -0.3265 -0.2711
  681TIP3    H123534   3.548   1.681   0.317 -0.0753  0.8209 -0.2637
  681TIP3    H223535   3.682   1.647   0.379  0.2048  0.4994 -1.0268
  682TIP3   OH223536   0.090   5.143   0.860 -0.1200  0.4324  0.0903
  682TIP3    H123537   0.184   5.157   0.852 -0.2571  1.9038  0.6849
  682TIP3    H223538   0.078   5.111   0.949 -0.0632 -1.2395 -0.4667
  683TIP3   OH223539   2.129   1.765  13.708 -0.3968  0.1871 -0.2095
  683TIP3    H123540   2.113   1.791  13.799  0.1515 -0.8889  0.2115
  683TIP3    H223541   2.219   1.732  13.708 -1.2172 -2.2566 -0.5631
  684TIP3   OH223542   3.526   2.776  12.298 -1.0383 -0.0734  0.3974
  684TIP3    H123543   3.460   2.718  12.259 -1.1209  0.1853  0.1484
  684TIP3    H223544   3.573   2.813  12.223 -0.5845 -0.2818  0.5744
  685TIP3   OH223545   6.103   1.722  15.998 -0.3430  0.3274 -0.1411
  685TIP3    H123546   6.086   1.730  16.092  2.7976 -0.6607  0.6224
  685TIP3    H223547   6.167   1.790  15.979  0.5859 -0.7692 -1.0849
  686TIP3   OH223548   3.314   4.405   2.111  0.5468 -0.0614  0.0640
  686TIP3    H123549   3.308   4.466   2.185 -0.3151  1.9031 -1.5223
  686TIP3    H223550   3.372   4.449   2.049  0.7505 -1.3690 -0.7003
  687TIP3   OH223551   4.116   3.725   0.152  0.0265  0.3372  0.0679
  687TIP3    H123552   4.076   3.675   0.081 -0.8140 -1.7854  1.8998
  687TIP3    H223553   4.185   3.775   0.110  0.9888 -2.4383 -1.9684
  688TIP3   OH223554   1.141   5.136   5.826  0.4286  0.3224  0.2566
  688TIP3    H123555   1.230   5.102   5.813  0.7695  1.1703  0.3129
  688TIP3    H223556   1.154   5.226   5.857 -0.4519  1.3739 -2.1929
  689TIP3   OH223557   2.839   0.673   4.865 -0.2161  0.0378  0.5033
  689TIP3    H123558   2.873   0.745   4.918 -0.9217  0.7775 -0.0358
  689TIP3    H223559   2.909   0.655   4.802  0.5292 -0.6892  1.4982
  690TIP3   OH223560   6.736   4.773   2.454  0.3906 -0.5659 -0.6167
  690TIP3    H123561   6.641   4.763   2.444  0.2225 -0.4080  0.6565
  690TIP3    H223562   6.750   4.774   2.548  1.7579 -1.4004 -0.7816
  691TIP3   OH223563   0.331   6.391   6.904  0.1150  0.3029  0.2722
  691TIP3    H123564   0.288   6.469   6.867  0.3978  1.3772  2.0983
  691TIP3    H223565   0.395   6.426   6.965 -2.2237 -1.2841  3.9794
  692TIP3   OH223566   3.738   0.802  16.385  0.1510 -0.2339  0.0490
  692TIP3    H123567   3.831   0.781  16.380 -0.0523 -1.2347  0.4141
  692TIP3    H223568   3.693   0.717  16.387 -0.8231  0.2141 -0.9758
  693TIP3   OH223569   3.888   3.287   2.186 -0.1722 -1.1048  0.0673
  693TIP3    H123570   3.793   3.291   2.176 -0.2363  0.6324  1.0034
  693TIP3    H223571   3.923   3.326   2.105 -0.1882 -2.3551 -0.5821
  694TIP3   OH223572   1.273   6.349  13.368  0.3798 -0.1543 -0.2510
  694TIP3    H123573   1.303   6.397  13.446  1.9630 -0.9564 -0.3464
  694TIP3    H223574   1.243   6.265  13.402 -1.8037  0.5935 -0.1680
  695TIP3   OH223575   4.253   0.075   6.193 -0.0622  0.4371  0.3634
  695TIP3    H123576   4.340   0.074   6.233 -1.3818 -0.5402  3.5155
  695TIP3    H223577   4.230   0.168   6.188  0.7654  0.6561  0.4797
  696TIP3   OH223578   4.724   0.078  11.082 -0.2598 -0.5952  0.1295
  696TIP3    H123579   4.811   0.050  11.111 -1.4807 -2.0543  2.7765
  696TIP3    H223580   4.691   0.004  11.030 -0.5198 -0.7599  0.5218
  697TIP3   OH223581   2.974   2.324  16.695 -0.6492 -0.3355  0.1092
  697TIP3    H123582   2.980   2.241  16.742 -0.5436 -0.6736 -0.5023
  697TIP3    H223583   3.060   2.364  16.706 -0.4904 -0.6054 -0.1484
  698TIP3   OH223584   2.348   4.636   3.478 -0.1940  0.0633  0.9121
  698TIP3    H123585   2.264   4.644   3.524 -0.2580 -1.0377  1.0239
  698TIP3    H223586   2.391   4.561   3.519  0.0926 -0.4571 -0.2777
  699TIP3   OH223587   1.382   1.788  11.763  0.1104 -0.7257 -0.4112
  699TIP3    H123588   1.442   1.820  11.830  0.3314 -0.1311 -0.8758
  699TIP3    H223589   1.386   1.855  11.694 -1.6427 -0.3007 -0.1338
  700TIP3   OH223590   5.543   3.359  15.712  0.2278  0.5566  0.0876
  700TIP3    H123591   5.484   3.284  15.706  0.2091  0.4633  1.2574
  700TIP3    H223592   5.508   3.411  15.785  1.1403  0.8974  0.2933
  701TIP3   OH223593   0.749   6.707   4.025 -0.1811  0.1069 -0.2337
  701TIP3    H123594   0.661   6.675   4.047  0.0217 -1.3013 -1.3394
  701TIP3    H223595   0.778   6.650   3.954  1.3879  0.9603 -0.3131
  702TIP3   OH223596   3.879   5.646   4.201  0.0075 -0.0389  0.3604
  702TIP3    H123597   3.819   5.651   4.127 -1.0426 -1.5647  1.0628
  702TIP3    H223598   3.957   5.602   4.165 -0.6309 -1.0872  0.2119
  703TIP3   OH223599   2.715   6.327   5.231  0.2509  0.5306  0.2824
  703TIP3    H123600   2.631   6.310   5.273  1.1511  0.2797  2.0685
  703TIP3    H223601   2.780   6.289   5.290  1.6415  0.8029 -1.0020
  704TIP3   OH223602   5.122   0.200  15.123  0.4849 -0.0342 -0.1408
  704TIP3    H123603   5.106   0.231  15.034  2.3689 -0.2374 -0.6056
  704TIP3    H223604   5.060   0.128  15.135  1.7057 -1.5769 -2.2222
  705TIP3   OH223605   4.626   4.260  14.145 -0.0606 -0.1175  0.2476
  705TIP3    H123606   4.640   4.247  14.239 -1.4867  0.8979  0.6417
  705TIP3    H223607   4.598   4.174  14.113 -0.6335 -0.2105  0.9783
  706TIP3   OH223608   5.350   1.908   4.040  0.7535 -0.5310  0.0925
  706TIP3    H123609   5.429   1.938   3.995 -0.7538  0.2129 -2.1991
  706TIP3    H223610   5.304   1.988   4.064  0.1989 -0.9636  0.4969
  707TIP3   OH223611   3.780   4.629   4.067  0.3270  0.2355 -0.5515
  707TIP3    H123612   3.871   4.655   4.054  0.7753 -0.3262  1.1258
  707TIP3    H223613   3.735   4.659   3.989  1.8009  1.2517 -1.0628
  708TIP3   OH223614   3.109   1.961   2.856 -0.1988 -0.1719  0.2796
  708TIP3    H123615   3.183   1.984   2.912 -0.1449 -1.0181  0.5725
  708TIP3    H223616   3.130   1.874   2.823 -0.6915 -0.0840 -0.2848
  709TIP3   OH223617   1.299   1.207  13.017 -0.4939 -0.2821 -0.4038
  709TIP3    H123618   1.288   1.293  13.057 -0.5988 -0.3207 -0.3488
  709TIP3    H223619   1.218   1.193  12.968 -0.7963 -0.6677  0.1942
  710TIP3   OH223620   4.201   2.654   2.163  0.0645  0.4965  0.2211
  710TIP3    H123621   4.203   2.659   2.259  0.6110  0.2813  0.2229
  710TIP3    H223622   4.285   2.691   2.136  0.9361 -1.5625 -0.0767
  711TIP3   OH223623   0.236   0.069  10.850 -0.5724 -0.2931 -0.0784
  711TIP3    H123624   0.167   0.007  10.874 -1.6421  0.7960 -0.2586
  711TIP3    H223625   0.191   0.136  10.798  0.7295  0.1607 -0.6470
  712TIP3   OH223626   2.851   2.483  12.376 -0.4509  0.2186  0.1097
  712TIP3    H123627   2.822   2.574  12.370  0.6684  0.6840  1.1601
  712TIP3    H223628   2.923   2.477  12.312 -0.6226  0.0299 -0.0661
  713TIP3   OH223629   2.348   5.889   5.165  0.4301 -0.4831 -0.5332
  713TIP3    H123630   2.314   5.865   5.251  1.5604 -0.8671 -0.1730
  713TIP3    H223631   2.443   5.886   5.176  0.6218  1.6104 -1.1989
  714TIP3   OH223632   2.091   0.575   2.043 -0.3415 -0.4171  0.8840
  714TIP3    H123633   2.002   0.594   2.072 -1.3868 -0.7084 -1.8906
  714TIP3    H223634   2.099   0.616   1.958  1.3621 -2.3692 -0.0089
  715TIP3   OH223635   5.207   5.866  12.692  0.2490 -0.0398  0.0204
  715TIP3    H123636   5.120   5.839  12.720  1.0568 -1.1955  1.5818
  715TIP3    H223637   5.217   5.829  12.604 -0.1575 -1.4891  0.5575
  716TIP3   OH223638   0.588   0.226   0.085 -0.1441 -0.0249  0.4468
  716TIP3    H123639   0.541   0.274   0.017  2.8453  1.1205 -1.0010
  716TIP3    H223640   0.626   0.151   0.040  0.1106 -0.4659  1.3614
  717TIP3   OH223641   4.818   2.721   5.217 -0.2076  0.3786  0.3717
  717TIP3    H123642   4.850   2.806   5.185 -0.6188 -0.2868 -2.0252
  717TIP3    H223643   4.891   2.686   5.269 -0.2542  2.4031  1.9378
  718TIP3   OH223644   0.040   0.161   4.413  0.0798  0.8649  0.0209
  718TIP3    H123645  -0.001   0.079   4.443  0.3938  0.0335 -1.6531
  718TIP3    H223646   0.019   0.164   4.320  1.0354  2.1294 -0.1705
  719TIP3   OH223647   3.633   1.011  15.195 -0.0262  0.1244  0.5838
  719TIP3    H123648   3.542   0.991  15.171 -0.2619  0.0461  1.5085
  719TIP3    H223649   3.637   1.107  15.192  0.3382  0.0871 -1.1040
  720TIP3   OH223650   2.842   4.452   1.087  0.2340 -0.3230  0.5849
  720TIP3    H123651   2.817   4.366   1.122  0.3487 -0.5423  0.1419
  720TIP3    H223652   2.785   4.465   1.012  0.6382 -0.2944  0.2802
  721TIP3   OH223653   2.134   1.703  15.399 -0.3185 -0.4002  0.3188
  721TIP3    H123654   2.230   1.709  15.406 -0.3802 -1.0396  2.4287
  721TIP3    H223655   2.118   1.619  15.356  0.0512 -0.0696 -0.4896
  722TIP3   OH223656   0.110   2.531  11.872 -1.0673  0.6980  0.0855
  722TIP3    H123657   0.151   2.549  11.787 -1.0859  2.2658  0.3880
  722TIP3    H223658   0.143   2.444  11.896 -1.1088  0.1928 -1.5418
  723TIP3   OH223659   3.860   1.659   0.072 -0.1455 -0.0067  0.3604
  723TIP3    H123660   3.901   1.745   0.082 -2.3867  1.0810  0.6469
  723TIP3    H223661   3.881   1.633  -0.018  0.6738  0.7524  0.3206
  724TIP3   OH223662   3.344   3.829  15.797 -0.0291 -0.3917 -0.0554
  724TIP3    H123663   3.256   3.866  15.800 -0.5690 -1.6454 -0.1222
  724TIP3    H223664   3.400   3.897  15.836 -0.9591  0.5524 -0.3212
  725TIP3   OH223665   1.525   4.240  13.630 -0.0402  0.1091 -0.0594
  725TIP3    H123666   1.580   4.197  13.565 -1.0082  0.3184 -1.0536
  725TIP3    H223667   1.549   4.332  13.625 -0.1575  0.1337 -0.1518
  726TIP3   OH223668   4.844   3.983   1.744  0.7344 -0.5405  0.0056
  726TIP3    H123669   4.761   3.993   1.791  0.7165 -1.0206  0.0808
  726TIP3    H223670   4.863   4.071   1.711  0.2501 -0.4040  0.0780
  727TIP3   OH223671   6.701   1.860  13.941 -0.3641  0.1579 -0.7332
  727TIP3    H123672   6.772   1.796  13.949  0.3914  1.2496  3.2395
  727TIP3    H223673   6.738   1.929  13.886  0.9356 -0.2051 -0.3467
  728TIP3   OH223674   3.850   2.599   1.133  0.3966  0.3933  0.2472
  728TIP3    H123675   3.871   2.506   1.143  0.3333  0.3623  0.0835
  728TIP3    H223676   3.935   2.644   1.140  0.4189  0.3294  0.3913
  729TIP3   OH223677   4.741   5.220   0.282 -0.0399  0.4606 -0.0444
  729TIP3    H123678   4.666   5.236   0.341 -0.8855  0.5518 -1.1083
  729TIP3    H223679   4.771   5.307   0.258 -0.6874  0.4571 -0.9395
  730TIP3   OH223680   6.056   5.430   3.483 -0.0402  0.1353 -0.2297
  730TIP3    H123681   6.020   5.355   3.436  0.3375 -0.2923  0.1544
  730TIP3    H223682   6.151   5.421   3.473 -0.0085  0.8444 -0.6104
  731TIP3   OH223683   6.698   5.857  11.300  0.5121 -0.0654 -0.4054
  731TIP3    H123684   6.705   5.914  11.223  1.2353 -1.3886 -1.3655
  731TIP3    H223685   6.618   5.885  11.343  0.7824  1.5996 -0.8888
  732TIP3   OH223686   6.158   0.918   1.579  0.0813  0.1604  0.1372
  732TIP3    H123687   6.201   0.841   1.615 -0.3072  0.0445  0.3648
  732TIP3    H223688   6.162   0.983   1.649  0.8519  0.5192 -0.2338
  733TIP3   OH223689   4.432   0.909   2.864  0.0933  0.5452  0.0114
  733TIP3    H123690   4.474   0.889   2.947  0.5556 -1.1007 -0.5862
  733TIP3    H223691   4.352   0.955   2.889 -1.0080 -1.9901  1.5512
  734TIP3   OH223692   6.353   2.222  11.062  0.7781  0.2078 -0.3433
  734TIP3    H123693   6.359   2.153  10.996 -0.5332 -0.0779 -0.1816
  734TIP3    H223694   6.259   2.241  11.070  1.0384  1.3786  0.2709
  735TIP3   OH223695   5.503   4.217   2.854  0.0037 -0.2710  0.4731
  735TIP3    H123696   5.515   4.125   2.880 -0.3596 -0.5438 -0.3037
  735TIP3    H223697   5.590   4.245   2.824 -0.3339 -1.0512 -1.3968
  736TIP3   OH223698   3.863   1.218   5.209 -0.0745 -0.1957 -0.2847
  736TIP3    H123699   3.941   1.163   5.220 -0.2957 -0.5888 -0.6517
  736TIP3    H223700   3.790   1.157   5.214 -0.3312  0.0862 -0.5849
  737TIP3   OH223701   0.238   5.752  13.400 -0.2810  0.3572  0.1505
  737TIP3    H123702   0.155   5.727  13.359  0.0629 -0.8034  0.1194
  737TIP3    H223703   0.305   5.707  13.348  0.3070  0.5106  0.7514
  738TIP3   OH223704   3.204   2.771  16.771  0.7501  0.1356  0.1352
  738TIP3    H123705   3.233   2.790  16.682  1.6911 -1.8115 -0.0471
  738TIP3    H223706   3.237   2.683  16.788 -1.9845 -0.7757  1.3177
  739TIP3   OH223707   0.372   2.701   0.831 -0.1260  0.2342 -0.0410
  739TIP3    H123708   0.375   2.796   0.820  0.4836  0.2986  0.6067
  739TIP3    H223709   0.416   2.685   0.914  2.2211 -0.8285 -1.3940
  740TIP3   OH223710   2.071   0.116   3.108 -0.0705 -0.2277  0.6322
  740TIP3    H123711   2.157   0.118   3.066 -0.9392  0.2292 -1.2167
  740TIP3    H223712   2.010   0.142   3.039 -1.7702 -1.0999  1.7405
  741TIP3   OH223713   4.644   5.094  10.577 -0.1945 -0.1324 -0.6198
  741TIP3    H123714   4.698   5.080  10.499 -1.0042 -2.4092 -0.8802
  741TIP3    H223715   4.681   5.035  10.642 -0.8721  0.0939 -0.0191
  742TIP3   OH223716   0.251   4.195   4.401 -0.0807  0.1906 -0.3773
  742TIP3    H123717   0.278   4.162   4.487 -0.1203  1.6664  0.2339
  742TIP3    H223718   0.201   4.123   4.362  0.4359 -0.7187  0.5865
  743TIP3   OH223719   0.040   4.752   4.762  0.1144 -0.9526  0.0418
  743TIP3    H123720   0.038   4.839   4.721  0.3177 -1.3612 -0.8410
  743TIP3    H223721  -0.014   4.697   4.706 -0.1440 -1.3678  0.6868
  744TIP3   OH223722   3.260   1.664   2.677  0.3060 -0.1570  0.9328
  744TIP3    H123723   3.207   1.650   2.755  0.2948  0.4149  1.0327
  744TIP3    H223724   3.273   1.576   2.640  0.0073 -0.3882  1.3739
  745TIP3   OH223725   2.085   4.794   1.344 -0.0177  0.5808  0.5839
  745TIP3    H123726   2.102   4.857   1.414 -0.0790  0.4081  0.7556
  745TIP3    H223727   2.124   4.834   1.266 -0.0508  0.8271  0.6928
  746TIP3   OH223728   2.648   4.597   0.784  0.7872 -0.4924 -0.0393
  746TIP3    H123729   2.694   4.648   0.851  2.2406  0.7125 -1.8844
  746TIP3    H223730   2.612   4.662   0.724 -2.1534 -1.4630  0.5057
  747TIP3   OH223731   6.796   1.775  10.796  0.5758  0.3941 -0.3172
  747TIP3    H123732   6.782   1.713  10.724  1.4267  0.7698 -0.8313
  747TIP3    H223733   6.824   1.856  10.752  2.1861  0.3034  0.4784
  748TIP3   OH223734   3.019   1.832   4.603  0.1034 -0.2220 -0.0562
  748TIP3    H123735   3.002   1.885   4.681  2.1590 -0.7502  0.8206
  748TIP3    H223736   2.945   1.771   4.599  0.6794 -1.2125  2.4293
  749TIP3   OH223737   4.365   3.080   2.261 -0.1953  0.4077  0.0692
  749TIP3    H123738   4.348   3.031   2.342 -1.6367  0.3814 -0.2350
  749TIP3    H223739   4.286   3.131   2.246  1.2046  2.8061  0.3118
  750TIP3   OH223740   0.099   3.905   5.759  0.0119 -0.1765  0.3173
  750TIP3    H123741   0.093   3.946   5.673 -0.0103 -0.8680 -0.0111
  750TIP3    H223742   0.027   3.945   5.809 -0.9277 -0.8775 -0.4491
  751TIP3   OH223743   1.959   1.437  15.378 -0.0588 -0.3969 -0.1672
  751TIP3    H123744   2.017   1.406  15.449 -1.2134 -0.2736  0.8637
  751TIP3    H223745   1.908   1.360  15.354  0.6591 -0.5656 -1.2443
  752TIP3   OH223746   0.014   2.394   2.272 -0.2469 -0.4360 -0.2424
  752TIP3    H123747  -0.017   2.396   2.362 -0.0596 -1.2495 -0.1506
  752TIP3    H223748  -0.014   2.478   2.235 -0.5203 -0.1892  0.5004
  753TIP3   OH223749   2.573   1.076  12.063 -0.5414 -0.1199 -0.1081
  753TIP3    H123750   2.658   1.055  12.104  0.3494 -0.0486 -1.8503
  753TIP3    H223751   2.520   0.997  12.078 -0.0241 -0.3584  0.5784
  754TIP3   OH223752   3.401   2.657   0.864 -0.7207  0.8891  0.1891
  754TIP3    H123753   3.318   2.636   0.822 -0.5859 -0.1889  0.4395
  754TIP3    H223754   3.424   2.579   0.914  0.5691  1.0616 -0.0825
  755TIP3   OH223755   3.711   5.650   3.952 -0.0889  0.1625  0.3954
  755TIP3    H123756   3.678   5.738   3.939  0.0389  0.2670  0.7683
  755TIP3    H223757   3.655   5.595   3.898 -0.1574  0.4730  0.1488
  756TIP3   OH223758   2.177   1.340  11.686  0.2845  0.0752  0.2440
  756TIP3    H123759   2.097   1.293  11.710  0.5593  0.0635  1.1766
  756TIP3    H223760   2.235   1.328  11.761  1.2823 -0.1756 -0.5392
  757TIP3   OH223761   3.546   5.585  16.145 -0.5533  0.8076  0.0684
  757TIP3    H123762   3.613   5.518  16.158  0.4703  1.7191 -0.2792
  757TIP3    H223763   3.504   5.562  16.062 -1.8163 -0.6786  1.0656
  758TIP3   OH223764   3.493   6.258   6.231 -0.6909  0.0413 -0.4165
  758TIP3    H123765   3.430   6.320   6.269  0.5176  0.4374  1.0599
  758TIP3    H223766   3.456   6.172   6.249 -0.4760  0.2428  1.1259
  759TIP3   OH223767   3.454   1.514   5.199  0.0575 -0.1444  0.9540
  759TIP3    H123768   3.438   1.420   5.185 -1.0039 -0.1207  1.9146
  759TIP3    H223769   3.482   1.521   5.290  0.5878  0.4290  0.7532
  760TIP3   OH223770   6.273   5.404  14.627  0.7426  0.8356 -0.7305
  760TIP3    H123771   6.341   5.405  14.694  0.9160  1.1234 -0.9085
  760TIP3    H223772   6.231   5.490  14.634  0.3801  0.6504 -0.6059
  761TIP3   OH223773   4.072   0.652   1.004 -0.2139 -0.0326  0.0962
  761TIP3    H123774   4.024   0.658   1.086 -1.4276  0.9372 -0.6586
  761TIP3    H223775   4.115   0.737   0.995  1.8458 -0.9197  0.8253
  762TIP3   OH223776   2.442   4.656   3.218 -0.4497 -0.0308  0.2178
  762TIP3    H123777   2.440   4.570   3.177  2.0697 -0.7059  1.3507
  762TIP3    H223778   2.405   4.642   3.305  2.0137 -0.5529  1.2498
  763TIP3   OH223779   1.051   3.657  17.031  0.0369 -0.2337 -0.1988
  763TIP3    H123780   1.021   3.583  16.978 -1.2089 -0.2418  0.4873
  763TIP3    H223781   1.065   3.727  16.967 -1.0473 -0.3666 -0.6136
  764TIP3   OH223782   4.312   4.328  12.756  0.2441  0.3336 -0.2181
  764TIP3    H123783   4.260   4.402  12.787  0.2089  0.9902 -1.7842
  764TIP3    H223784   4.399   4.364  12.740  0.1382  0.1341 -1.3191
  765TIP3   OH223785   0.761   2.138  12.789 -0.4737  0.1346  0.2893
  765TIP3    H123786   0.799   2.056  12.820  0.4942  0.1943 -0.7019
  765TIP3    H223787   0.744   2.188  12.869  0.0457 -0.5382  0.8362
  766TIP3   OH223788   4.089   4.223  16.395  0.1943 -0.6804  0.3141
  766TIP3    H123789   4.072   4.173  16.475  0.1427 -1.4182 -0.1392
  766TIP3    H223790   4.040   4.304  16.405  1.7148  0.1167  1.8622
  767TIP3   OH223791   2.663   5.364  11.324 -0.8106  0.8836 -0.0451
  767TIP3    H123792   2.728   5.404  11.266 -1.6943  2.7611  0.1791
  767TIP3    H223793   2.711   5.346  11.405  0.4960 -1.9724 -1.3018
  768TIP3   OH223794   4.568   2.699   5.067  0.6890  0.1715 -0.0061
  768TIP3    H123795   4.530   2.769   5.014 -2.1671 -1.9480 -1.0056
  768TIP3    H223796   4.636   2.742   5.118 -0.7805  3.6257 -0.6893
  769TIP3   OH223797   0.533   0.152  12.882 -0.4125  0.2444 -0.4736
  769TIP3    H123798   0.486   0.230  12.911 -1.0749  0.0207 -0.9105
  769TIP3    H223799   0.605   0.143  12.943 -1.8771 -0.3470  1.2550
  770TIP3   OH223800   5.916   3.983  14.166 -0.5124  0.5972  0.2148
  770TIP3    H123801   5.973   3.949  14.097 -0.3965 -0.1262  0.6581
  770TIP3    H223802   5.968   3.975  14.247 -0.9665  0.6201  0.5153
  771TIP3   OH223803   3.035   4.341  11.907  0.2597  0.2204 -0.0327
  771TIP3    H123804   3.063   4.423  11.865  0.5957  1.2471  2.0715
  771TIP3    H223805   2.947   4.325  11.872 -0.9840  3.0170  1.4705
  772TIP3   OH223806   3.083   6.065  12.783 -0.4806  0.2185 -0.4113
  772TIP3    H123807   3.045   6.153  12.789  0.0044  0.3286  2.0373
  772TIP3    H223808   3.008   6.006  12.774 -1.0745  0.6500  1.3844
  773TIP3   OH223809   4.525   3.416   2.289 -0.4523 -0.2884 -0.2331
  773TIP3    H123810   4.545   3.331   2.328 -1.8359 -0.5943 -0.1382
  773TIP3    H223811   4.490   3.468   2.362  1.5990  0.8440  0.0193
  774TIP3   OH223812   5.560   5.621   1.534  0.0239  0.3589 -0.6388
  774TIP3    H123813   5.502   5.610   1.609  2.0272  0.3526  1.0092
  774TIP3    H223814   5.523   5.693   1.484 -1.8099 -0.1801 -0.1183
  775TIP3   OH223815   1.594   0.366  14.940 -0.2741  0.0022  0.1770
  775TIP3    H123816   1.594   0.325  14.854  2.7590 -0.3943  0.2655
  775TIP3    H223817   1.543   0.307  14.995 -0.4836 -0.8391 -0.8850
  776TIP3   OH223818   3.854   4.024   5.371  0.3081  0.2114  0.5022
  776TIP3    H123819   3.763   4.054   5.379 -0.7556 -2.3162 -0.8354
  776TIP3    H223820   3.887   4.069   5.293 -0.6827 -0.6889 -0.4785
  777TIP3   OH223821   6.805   0.840  16.022  0.2408 -0.0768 -0.6760
  777TIP3    H123822   6.873   0.786  15.981 -0.6607 -0.3210 -1.9239
  777TIP3    H223823   6.734   0.778  16.041  0.3543  0.1713  0.6289
  778TIP3   OH223824   1.668   0.970   0.239  0.2067  0.4223 -0.9358
  778TIP3    H123825   1.601   0.938   0.300  1.6041  0.7551  0.8385
  778TIP3    H223826   1.676   1.063   0.258  0.7473  0.5133 -1.5634
  779TIP3   OH223827   1.403   6.017  15.598 -0.4267 -0.2425  0.1115
  779TIP3    H123828   1.464   6.080  15.559  1.6619 -1.7265  0.8366
  779TIP3    H223829   1.355   6.068  15.663 -1.1289  1.3274 -1.5335
  780TIP3   OH223830   4.951   6.655  15.899  0.3570 -0.2488  0.3328
  780TIP3    H123831   4.999   6.629  15.978 -0.6898 -0.3969  0.9299
  780TIP3    H223832   5.019   6.660  15.831  1.0876 -1.3107  0.9556
  781TIP3   OH223833   2.794   0.359  13.417  0.7810 -0.5619  0.9429
  781TIP3    H123834   2.847   0.313  13.351  0.6310 -1.1574  1.2324
  781TIP3    H223835   2.822   0.450  13.410  0.9680 -0.6639  0.2437
  782TIP3   OH223836   3.480   4.337  16.769  0.2390 -0.6977 -0.4552
  782TIP3    H123837   3.538   4.390  16.823  1.5442 -1.6303 -0.8866
  782TIP3    H223838   3.519   4.339  16.681 -0.5017 -1.1617 -0.8095
  783TIP3   OH223839   0.726   4.197  16.042  0.1783  0.4090  0.1944
  783TIP3    H123840   0.741   4.110  16.079  0.3259  0.4049  0.1259
  783TIP3    H223841   0.631   4.208  16.043  0.1303  0.0389 -0.2743
  784TIP3   OH223842   4.111   3.779   4.890  0.4964 -0.1084 -0.3398
  784TIP3    H123843   4.190   3.828   4.868  1.8404 -1.0527  1.9968
  784TIP3    H223844   4.138   3.687   4.888 -0.5209 -0.4525  0.5640
  785TIP3   OH223845   5.173   4.773  14.011  0.0713 -0.7745 -0.2967
  785TIP3    H123846   5.208   4.803  14.094  0.7848 -0.6651 -0.6289
  785TIP3    H223847   5.250   4.760  13.955 -0.3375 -1.5754 -0.7016
  786TIP3   OH223848   5.384   2.695  11.445 -0.0834  0.4717 -0.0239
  786TIP3    H123849   5.349   2.646  11.371  0.5852 -0.1412  0.0499
  786TIP3    H223850   5.326   2.770  11.454 -1.3159 -0.4466  0.0243
  787TIP3   OH223851   6.793   2.257   4.177  0.2935 -0.2656 -0.6530
  787TIP3    H123852   6.868   2.287   4.229  1.1307 -3.6077  0.3621
  787TIP3    H223853   6.723   2.245   4.241  0.7236 -2.4948 -0.4889
  788TIP3   OH223854   2.196   2.827   2.461  0.0580 -0.6579 -0.8017
  788TIP3    H123855   2.243   2.757   2.506 -1.1147 -0.7814  0.2768
  788TIP3    H223856   2.258   2.900   2.459  0.1460 -0.6440  1.0425
  789TIP3   OH223857   4.831   2.175   1.484 -0.3260  0.2924  0.7231
  789TIP3    H123858   4.763   2.114   1.457 -0.0561  1.1115 -2.0233
  789TIP3    H223859   4.913   2.131   1.459 -0.1604  2.3828 -3.1496
  790TIP3   OH223860   4.116   3.530  13.508 -0.1142  0.2473 -0.4609
  790TIP3    H123861   4.167   3.458  13.545 -0.9085 -0.3160 -0.4415
  790TIP3    H223862   4.090   3.499  13.421 -0.2228  0.6249 -0.5657
  791TIP3   OH223863   2.232   3.978  12.714 -0.0269 -0.2304  0.4053
  791TIP3    H123864   2.313   3.992  12.665  0.1681  0.0387  0.8001
  791TIP3    H223865   2.191   4.064  12.719 -1.5456 -0.7086 -1.8338
  792TIP3   OH223866   0.544   3.045  15.326 -0.1114 -0.6502  0.2593
  792TIP3    H123867   0.453   3.053  15.297  0.1832 -0.7614 -0.7324
  792TIP3    H223868   0.590   3.117  15.284  0.2632 -0.5801  0.7677
  793TIP3   OH223869   3.175   3.687  11.302 -0.7871  0.0233  0.0976
  793TIP3    H123870   3.238   3.673  11.373 -0.6792 -0.9281 -0.1706
  793TIP3    H223871   3.217   3.751  11.245  0.9145 -2.0943 -1.1813
  794TIP3   OH223872   1.139   1.992  11.333 -0.0390  0.2328  0.6634
  794TIP3    H123873   1.196   2.066  11.354 -1.4532  1.7008 -0.4424
  794TIP3    H223874   1.057   2.011  11.378 -0.9135  0.1138 -0.8088
  795TIP3   OH223875   6.215   0.524  16.322 -0.1185 -0.3191 -0.4997
  795TIP3    H123876   6.169   0.442  16.340  1.1158 -1.0351 -0.5184
  795TIP3    H223877   6.253   0.512  16.236 -1.7259  1.1426 -1.4684
  796TIP3   OH223878   1.449   0.545   2.089  0.4310  0.2120 -0.2904
  796TIP3    H123879   1.501   0.474   2.125 -0.2952 -0.2365 -0.1015
  796TIP3    H223880   1.442   0.524   1.995  0.3355  0.0998 -0.2597
  797TIP3   OH223881   0.041   2.200   3.122 -0.7160 -0.0614 -0.1698
  797TIP3    H123882  -0.041   2.235   3.158 -0.9783 -0.0382 -0.7681
  797TIP3    H223883   0.022   2.109   3.102 -0.0676 -0.5360  1.2731
  798TIP3   OH223884   6.223   5.397  12.875  0.1392  0.3241 -0.1784
  798TIP3    H123885   6.164   5.461  12.915 -0.2548 -1.1796  1.7942
  798TIP3    H223886   6.171   5.316  12.871  1.5351 -0.6124  0.0558
  799TIP3   OH223887   4.279   3.715   1.041  0.4159 -0.6298 -0.1285
  799TIP3    H123888   4.255   3.624   1.025  1.7797 -0.8037 -1.3858
  799TIP3    H223889   4.330   3.713   1.122 -1.3189 -0.6345  1.0285
  800TIP3   OH223890   2.989   5.712   3.404 -0.0390  0.2828 -0.0280
  800TIP3    H123891   3.040   5.631   3.396 -0.6141 -0.0740 -0.1533
  800TIP3    H223892   3.050   5.781   3.380  0.3465 -0.1553 -0.3315
  801TIP3   OH223893   0.114   5.919  12.539  0.7723 -0.2924  0.3741
  801TIP3    H123894   0.024   5.935  12.569  0.2281 -0.7856 -0.9012
  801TIP3    H223895   0.169   5.966  12.601 -0.4226  0.9226  0.5620
  802TIP3   OH223896   3.659   0.091  10.603  0.3762  0.1428  0.6738
  802TIP3    H123897   3.580   0.096  10.549  0.4367 -1.1351  0.4486
  802TIP3    H223898   3.728   0.066  10.542  1.2678  2.4430  0.6111
  803TIP3   OH223899   6.789   2.690   0.310 -0.2656  0.5040 -0.4457
  803TIP3    H123900   6.743   2.690   0.394 -0.9057  0.3396 -0.7927
  803TIP3    H223901   6.805   2.783   0.292  0.8727  0.4964  0.3812
  804TIP3   OH223902   2.140   0.971  11.262 -0.4327  0.5148 -0.7168
  804TIP3    H123903   2.056   0.960  11.217 -1.7122 -0.4341  1.7460
  804TIP3    H223904   2.148   1.066  11.273 -1.3192  0.6011 -0.7236
  805TIP3   OH223905   4.222   5.183   6.601  0.2200 -0.3887 -0.2585
  805TIP3    H123906   4.138   5.167   6.557  1.1933 -0.1766 -2.2833
  805TIP3    H223907   4.218   5.128   6.680 -1.1014 -1.7936 -1.2387
  806TIP3   OH223908   0.135   5.715  12.754  0.6383 -0.2526 -0.0362
  806TIP3    H123909   0.126   5.709  12.659  1.0041  0.8700 -0.1583
  806TIP3    H223910   0.229   5.701  12.770  0.8574  1.1804 -0.0020
  807TIP3   OH223911   0.129   5.492   5.193 -0.2193 -0.6064  0.6334
  807TIP3    H123912   0.148   5.432   5.121  0.5107  0.9379 -0.5084
  807TIP3    H223913   0.168   5.451   5.270  1.0051 -1.1925 -0.2768
  808TIP3   OH223914   4.278   6.246  15.665  0.0484  0.4077  0.5279
  808TIP3    H123915   4.340   6.265  15.594  0.6682 -0.8700  0.6889
  808TIP3    H223916   4.192   6.251  15.624  0.3000  1.3101  0.0812
  809TIP3   OH223917   1.944   1.627   0.654  0.2478 -0.4584 -0.3321
  809TIP3    H123918   1.896   1.667   0.581 -0.7780 -2.3613 -0.7685
  809TIP3    H223919   2.004   1.695   0.684 -1.7776  1.5762 -0.6617
  810TIP3   OH223920   2.737   5.988  16.163 -0.5058  0.3375 -0.7052
  810TIP3    H123921   2.720   5.959  16.073 -1.3808  2.5382 -1.3298
  810TIP3    H223922   2.806   5.930  16.194 -1.8630 -2.0801 -1.9042
  811TIP3   OH223923   6.444   5.073  10.763  0.1024 -0.1399  0.6040
  811TIP3    H123924   6.399   5.131  10.824 -1.4741 -0.1776 -0.4395
  811TIP3    H223925   6.468   5.130  10.690 -0.9999 -0.6656 -0.1973
  812TIP3   OH223926   4.891   0.766  15.786 -0.5030 -0.6279  0.2567
  812TIP3    H123927   4.805   0.749  15.746 -0.8225  1.3684  0.0268
  812TIP3    H223928   4.885   0.723  15.872 -2.3160  0.7023  0.8616
  813TIP3   OH223929   2.864   6.114   5.733 -0.2877  0.1097 -0.1032
  813TIP3    H123930   2.790   6.174   5.729 -0.7728 -0.4367  0.5582
  813TIP3    H223931   2.834   6.041   5.786  0.6530 -0.2247 -0.0025
  814TIP3   OH223932   1.681   5.316  12.528 -0.1735  0.2411  0.2088
  814TIP3    H123933   1.663   5.377  12.456 -0.1311 -0.6186 -0.5585
  814TIP3    H223934   1.766   5.279  12.506 -0.4935 -0.5662  0.3166
  815TIP3   OH223935   0.866   6.787   6.480 -0.1945 -0.1958 -0.2125
  815TIP3    H123936   0.806   6.860   6.462  2.0996  1.3103 -2.6517
  815TIP3    H223937   0.839   6.718   6.420 -0.2903 -0.0290 -0.3628
  816TIP3   OH223938   0.089   2.700   2.887 -0.3436 -0.4111 -0.1956
  816TIP3    H123939   0.088   2.677   2.980 -0.5576 -1.8738 -0.5370
  816TIP3    H223940   0.182   2.696   2.863 -0.3155 -0.2956 -0.1078
  817TIP3   OH223941   3.202   2.339   1.628 -0.0123 -0.4849 -0.5869
  817TIP3    H123942   3.114   2.304   1.614 -0.2030 -0.6830  0.9031
  817TIP3    H223943   3.187   2.426   1.666  0.3499 -1.2361  1.4447
  818TIP3   OH223944   0.308   6.523   2.118 -0.4500 -0.0112 -0.2518
  818TIP3    H123945   0.355   6.606   2.114 -1.0857  0.5232  2.1131
  818TIP3    H223946   0.373   6.460   2.148 -0.0155 -0.3804 -1.8694
  819TIP3   OH223947   5.884   4.417   5.488 -0.2073  0.3443 -0.5884
  819TIP3    H123948   5.846   4.451   5.569 -0.8363 -1.5875 -0.0204
  819TIP3    H223949   5.885   4.322   5.500  0.4686  0.0650 -2.5215
  820TIP3   OH223950   4.668   5.524  11.276  0.3668  0.4165  0.1728
  820TIP3    H123951   4.670   5.544  11.183  2.4850  1.5684  0.4203
  820TIP3    H223952   4.597   5.459  11.285  1.0209 -0.7774 -2.4177
  821TIP3   OH223953   5.521   1.510   5.935 -0.4620 -0.0171 -0.0043
  821TIP3    H123954   5.475   1.561   6.002 -1.5095  1.1366 -1.5232
  821TIP3    H223955   5.613   1.518   5.958 -0.6654  1.7837  0.3659
  822TIP3   OH223956   3.508   4.778   5.051  0.0917 -0.5394 -0.3063
  822TIP3    H123957   3.484   4.866   5.022  1.2289 -0.1131 -0.0064
  822TIP3    H223958   3.546   4.792   5.138  0.2860 -1.3291 -0.2591
  823TIP3   OH223959   2.324   2.692  11.286 -0.7157 -0.1704  0.2818
  823TIP3    H123960   2.373   2.747  11.347 -2.0252  0.1411  1.1021
  823TIP3    H223961   2.297   2.751  11.217 -0.9395 -0.0732  0.4493
  824TIP3   OH223962   4.970   5.374   0.463  0.2399  0.2960  0.1452
  824TIP3    H123963   4.933   5.435   0.527 -1.8110  1.5567 -2.0709
  824TIP3    H223964   5.013   5.430   0.399 -1.6521 -0.5022 -1.9286
  825TIP3   OH223965   2.012   6.464   4.330 -0.1267  0.6321  0.0371
  825TIP3    H123966   2.058   6.472   4.246  1.3126 -2.0557  0.4727
  825TIP3    H223967   1.936   6.410   4.311 -0.3419  0.8444  0.2844
  826TIP3   OH223968   1.270   3.037   4.801 -0.5319 -0.0045 -0.2003
  826TIP3    H123969   1.283   3.088   4.721 -0.1523 -0.7543 -0.6248
  826TIP3    H223970   1.356   2.999   4.819 -0.5920  0.2241  0.6156
  827TIP3   OH223971   2.700   4.904  13.335  0.0415  0.3679 -0.3217
  827TIP3    H123972   2.744   4.882  13.417  0.1507 -0.0878 -0.4984
  827TIP3    H223973   2.717   4.997  13.322  0.3358  0.3583 -0.0149
  828TIP3   OH223974   0.050   3.151   4.803 -0.0359  0.3787  0.0404
  828TIP3    H123975   0.030   3.190   4.718  0.0985 -0.6490 -0.4716
  828TIP3    H223976   0.008   3.065   4.801 -1.9551  1.1805  1.8795
  829TIP3   OH223977   3.488   4.094   1.249 -0.1810  0.2687 -0.3247
  829TIP3    H123978   3.398   4.100   1.281 -0.6142 -0.0219 -1.4578
  829TIP3    H223979   3.522   4.183   1.257 -0.3404  0.2449  0.7395
  830TIP3   OH223980   1.678   4.152   2.772  0.2728 -0.5496  0.0041
  830TIP3    H123981   1.769   4.142   2.744 -0.0104 -1.1529 -0.7140
  830TIP3    H223982   1.634   4.193   2.697  0.0812  0.3657  0.5907
  831TIP3   OH223983   6.575   0.355  12.408 -0.0512  0.0178 -0.8605
  831TIP3    H123984   6.634   0.320  12.341 -1.6300 -1.8171 -1.3767
  831TIP3    H223985   6.488   0.348  12.370 -0.7941  1.0290  0.5431
  832TIP3   OH223986   2.296   1.383  12.566  0.0358 -0.0853 -0.0364
  832TIP3    H123987   2.384   1.347  12.558 -0.0930 -0.4596  0.2290
  832TIP3    H223988   2.296   1.428  12.651 -0.5719 -1.6412  0.8396
  833TIP3   OH223989   0.489   0.731   5.038  0.1329  0.0525 -0.1169
  833TIP3    H123990   0.502   0.637   5.040 -2.5150 -0.4618 -1.7862
  833TIP3    H223991   0.464   0.754   5.127  0.2787 -0.9293  0.1887
  834TIP3   OH223992   6.654   1.877  15.002  0.3109  0.5049  0.1518
  834TIP3    H123993   6.603   1.895  14.923 -1.3045 -1.7277  0.5852
  834TIP3    H223994   6.737   1.842  14.969 -0.3590 -0.4353 -0.5838
  835TIP3   OH223995   3.092   6.025   2.211  0.3197  0.0570 -0.1627
  835TIP3    H123996   3.064   5.981   2.291 -1.4779  2.3739  0.5922
  835TIP3    H223997   3.181   6.055   2.230  0.0810  0.1833  0.7734
  836TIP3   OH223998   0.773   5.916   2.503 -0.5124 -0.0012 -0.8915
  836TIP3    H123999   0.789   5.982   2.436 -0.7618  1.2440  0.2152
  836TIP3    H224000   0.853   5.915   2.556  0.2149 -1.9404 -1.9509
  837TIP3   OH224001   0.525   4.236   4.990  0.1417 -0.1320 -0.3335
  837TIP3    H124002   0.526   4.321   5.033  1.8423  0.2342 -0.9972
  837TIP3    H224003   0.600   4.238   4.930 -0.7331 -1.4959 -1.5668
  838TIP3   OH224004   3.020   0.305   3.545 -0.5779 -0.0317  0.5960
  838TIP3    H124005   3.077   0.382   3.550 -0.3268 -0.0952 -0.9018
  838TIP3    H224006   3.061   0.242   3.604  0.8457 -0.0173 -0.3203
  839TIP3   OH224007   2.133   4.255  15.973  0.4737 -0.2519  0.1103
  839TIP3    H124008   2.197   4.193  16.008  0.0526  0.2675  1.8987
  839TIP3    H224009   2.099   4.301  16.050  0.7112  2.1638 -1.1370
  840TIP3   OH224010   0.848   0.737  12.873 -0.1413  0.4763  0.7537
  840TIP3    H124011   0.839   0.653  12.828 -0.0667  1.3211 -0.9269
  840TIP3    H224012   0.761   0.756  12.906 -0.7236  0.7541 -0.8304
  841TIP3   OH224013   2.855   6.028   4.979  0.4029 -0.0721  0.2988
  841TIP3    H124014   2.906   6.027   5.060  0.2796 -1.8520  0.3821
  841TIP3    H224015   2.857   5.938   4.948  0.6114  0.6053 -1.8117
  842TIP3   OH224016   0.313   1.467  11.930 -0.4761  0.1313 -0.3113
  842TIP3    H124017   0.300   1.489  12.022  1.5711 -1.1203  0.3332
  842TIP3    H224018   0.390   1.410  11.929  0.9201  1.8150 -3.0090
  843TIP3   OH224019   2.950   4.866  16.194  0.0896 -0.6064 -0.0417
  843TIP3    H124020   2.857   4.840  16.190 -1.0813  2.9385  0.8981
  843TIP3    H224021   2.965   4.914  16.113  1.0172 -0.8107 -0.0029
  844TIP3   OH224022   1.396   4.363   2.976 -0.1345  0.1561 -0.5860
  844TIP3    H124023   1.460   4.296   3.000  0.4765  0.6230 -0.8760
  844TIP3    H224024   1.316   4.315   2.955 -0.0022 -0.4100  0.1730
  845TIP3   OH224025   5.152   3.004   2.505  0.5032  0.5413 -0.2463
  845TIP3    H124026   5.175   2.965   2.590 -0.0868  0.3350 -0.1809
  845TIP3    H224027   5.057   3.004   2.503  0.4805 -1.0778 -1.6479
  846TIP3   OH224028   0.521   1.728   0.608  0.0521  0.3459 -0.0616
  846TIP3    H124029   0.566   1.807   0.578  0.2206  0.3633  0.2307
  846TIP3    H224030   0.510   1.741   0.703  1.1817 -0.5170  0.2080
  847TIP3   OH224031   4.455   2.265  16.249 -0.0881  0.3201 -0.0723
  847TIP3    H124032   4.413   2.271  16.164  0.2406 -0.8835 -0.3377
  847TIP3    H224033   4.385   2.237  16.309 -0.4510  1.7070  0.1864
  848TIP3   OH224034   2.199   1.658   2.123  0.5275  0.4372  0.1073
  848TIP3    H124035   2.124   1.687   2.175  0.4067  0.0912  0.1284
  848TIP3    H224036   2.188   1.563   2.116  0.1469  0.5572 -1.1595
  849TIP3   OH224037   2.768   5.816   5.319 -0.2415  0.8249 -0.6387
  849TIP3    H124038   2.816   5.736   5.297 -1.2339 -0.0261  0.1963
  849TIP3    H224039   2.703   5.826   5.249 -1.1100  0.0407  0.0305
  850TIP3   OH224040   2.948   4.677   1.229  0.4077  0.3232 -0.1710
  850TIP3    H124041   3.026   4.708   1.183  1.1362  1.4168  1.6798
  850TIP3    H224042   2.921   4.599   1.181  1.4015  1.0996 -2.0909
  851TIP3   OH224043   1.471   0.653   2.946  0.6522 -0.1863  0.1702
  851TIP3    H124044   1.457   0.707   2.868  0.1624  0.0930  0.4424
  851TIP3    H224045   1.494   0.567   2.912  0.2888 -0.1070 -0.2872
  852TIP3   OH224046   4.438   0.878   4.448  0.3506  0.2317  0.7818
  852TIP3    H124047   4.385   0.798   4.443 -1.2479  1.1442  2.1446
  852TIP3    H224048   4.461   0.897   4.357 -0.7930 -0.7689  0.2528
  853TIP3   OH224049   1.350   4.319  15.542 -0.1160 -0.1515 -0.5336
  853TIP3    H124050   1.407   4.393  15.520 -0.4813  0.0533 -0.8289
  853TIP3    H224051   1.311   4.344  15.626 -0.4860  0.1488 -0.7887
  854TIP3   OH224052   5.249   3.550   4.999  0.2931  0.1465  0.2064
  854TIP3    H124053   5.186   3.571   4.931 -0.6110 -1.3049  0.5441
  854TIP3    H224054   5.201   3.565   5.081  0.9456  0.6271  0.5093
  855TIP3   OH224055   4.626   4.151   0.492 -0.2768  0.0608 -0.4885
  855TIP3    H124056   4.600   4.063   0.463 -0.8440  0.2674 -0.6197
  855TIP3    H224057   4.676   4.136   0.572 -1.6251 -0.3052  0.3198
  856TIP3   OH224058   1.844   6.511  11.775  0.5599 -0.9825  0.1701
  856TIP3    H124059   1.864   6.538  11.864  1.8532 -3.2025  0.6361
  856TIP3    H224060   1.775   6.570  11.747  2.2707  1.8632  1.4684
  857TIP3   OH224061   2.354   1.043   1.326  0.2708  0.1324  0.0357
  857TIP3    H124062   2.340   1.112   1.391 -0.0285  0.1758 -0.0764
  857TIP3    H224063   2.418   1.081   1.265 -0.4307  0.5806 -0.4281
  858TIP3   OH224064   2.540   6.599  15.854  0.4374 -0.4599  0.4472
  858TIP3    H124065   2.478   6.533  15.824  0.6953 -0.4588 -0.0907
  858TIP3    H224066   2.594   6.619  15.778  1.5605 -0.9812  1.0661
  859TIP3   OH224067   4.023   5.426   4.631 -0.0665 -0.3097 -0.1600
  859TIP3    H124068   4.100   5.418   4.687 -0.6117 -1.6500  0.4428
  859TIP3    H224069   4.052   5.481   4.558  0.8953  0.8026  1.0027
  860TIP3   OH224070   4.709   3.046  13.229 -0.4326  0.0826  0.5835
  860TIP3    H124071   4.767   2.971  13.237 -1.7726 -0.8761  1.9074
  860TIP3    H224072   4.720   3.076  13.139  1.0435 -0.9224  0.4018
  861TIP3   OH224073   6.560   5.414   1.546 -0.4111 -0.2652 -0.0028
  861TIP3    H124074   6.584   5.374   1.463  0.8182 -1.5305  0.9255
  861TIP3    H224075   6.465   5.412   1.547 -0.4260 -0.7319 -1.1259
  862TIP3   OH224076   1.554   0.163   4.426  0.0649 -0.1382  0.2153
  862TIP3    H124077   1.593   0.150   4.513  0.7616  0.2887 -0.0230
  862TIP3    H224078   1.476   0.107   4.426 -1.2502  1.5778  1.9289
  863TIP3   OH224079   2.992   6.593   1.641 -0.7707 -0.0455  0.0926
  863TIP3    H124080   2.929   6.606   1.570  0.9119  1.4647 -1.2519
  863TIP3    H224081   3.075   6.579   1.596  0.7842  3.1181  1.6600
  864TIP3   OH224082   3.879   2.056  14.142 -0.3412  0.2392  0.0594
  864TIP3    H124083   3.789   2.063  14.171 -0.1444  0.4200  0.6382
  864TIP3    H224084   3.878   2.087  14.051 -1.0005 -0.5295 -0.2173
  865TIP3   OH224085   5.967   5.211  16.292  0.2812  0.5306 -0.2944
  865TIP3    H124086   6.053   5.185  16.260 -0.1512 -0.8808 -0.3665
  865TIP3    H224087   5.944   5.146  16.358 -0.2112  1.5974  0.6130
  866TIP3   OH224088   2.794   4.707  14.879  0.0408 -0.2616  0.1869
  866TIP3    H124089   2.824   4.761  14.806  1.3151 -1.4161 -0.1727
  866TIP3    H224090   2.858   4.723  14.948 -0.4102 -0.2002  0.5982
  867TIP3   OH224091   1.718   0.589   3.726  0.0334 -0.1504 -0.0248
  867TIP3    H124092   1.766   0.507   3.715  0.6381  0.2191 -0.1507
  867TIP3    H224093   1.683   0.584   3.815 -1.9430 -1.5942 -0.8087
  868TIP3   OH224094   4.477   4.361  12.202  0.5903 -0.1997  1.0586
  868TIP3    H124095   4.531   4.435  12.174 -0.6686  0.1890 -0.4946
  868TIP3    H224096   4.417   4.398  12.267 -1.0059  0.5563 -0.7616
  869TIP3   OH224097   4.924   6.790   4.081 -0.2466 -0.0707 -1.0012
  869TIP3    H124098   4.849   6.842   4.111  0.7566  1.5450 -1.1655
  869TIP3    H224099   4.969   6.765   4.161 -0.6797 -0.6490 -0.9267
  870TIP3   OH224100   3.290   2.993   0.556 -0.4793 -0.0884 -0.1388
  870TIP3    H124101   3.275   2.963   0.466  1.1233  1.6019 -1.0207
  870TIP3    H224102   3.241   3.075   0.562 -0.4361 -0.1086  0.4744
  871TIP3   OH224103   6.651   6.040   3.343  0.3297  0.2096  0.2853
  871TIP3    H124104   6.676   6.100   3.413  1.2888 -0.0044  0.1334
  871TIP3    H224105   6.565   6.007   3.369  0.0221  1.2594  0.6164
  872TIP3   OH224106   2.158   4.802  14.183  0.2008  0.2356 -0.1795
  872TIP3    H124107   2.129   4.842  14.101 -0.9942  0.0204  0.1168
  872TIP3    H224108   2.077   4.777  14.228  0.8498 -0.2418  0.7755
  873TIP3   OH224109   3.322   3.739   2.112  0.1543  0.2736 -0.2434
  873TIP3    H124110   3.309   3.800   2.185 -0.8265 -0.8827  0.5879
  873TIP3    H224111   3.275   3.660   2.138 -1.6101  0.3660 -2.8486
  874TIP3   OH224112   6.511   3.858   3.004 -0.2405  0.1575 -0.4615
  874TIP3    H124113   6.592   3.833   3.050 -0.7385  0.0148  0.3660
  874TIP3    H224114   6.502   3.793   2.934 -0.9522 -1.4214  1.0111
  875TIP3   OH224115   4.601   6.852   0.795 -0.7423  0.6517 -0.2265
  875TIP3    H124116   4.557   6.937   0.787 -0.8895  0.6083  0.1129
  875TIP3    H224117   4.662   6.850   0.721  0.7542  1.9327  0.9162
  876TIP3   OH224118   6.575   1.336   5.458 -0.1612  0.3408  0.1569
  876TIP3    H124119   6.557   1.287   5.538 -0.3516 -0.7231 -0.5168
  876TIP3    H224120   6.633   1.279   5.408 -0.2105  0.9068 -0.5588
  877TIP3   OH224121   4.665   0.627  14.965 -0.1081  0.8853  0.3142
  877TIP3    H124122   4.577   0.662  14.948 -0.4556  0.4726  1.2152
  877TIP3    H224123   4.724   0.690  14.923 -0.8489  0.8010 -0.8950
  878TIP3   OH224124   4.850   1.978  11.537 -0.3231  0.5649 -0.0697
  878TIP3    H124125   4.822   1.943  11.452 -1.0401  1.0875 -0.0641
  878TIP3    H224126   4.778   2.037  11.563 -0.3731 -0.0127  1.1608
  879TIP3   OH224127   1.511   4.803   0.236 -0.3935  0.0967 -0.1230
  879TIP3    H124128   1.432   4.783   0.287  0.1212  0.2195  0.7468
  879TIP3    H224129   1.572   4.733   0.257  0.1984  0.7089  0.2605
  880TIP3   OH224130   4.773   6.513   4.755  0.0206  0.3288 -0.1514
  880TIP3    H124131   4.718   6.438   4.776  0.1863  0.7132  1.9495
  880TIP3    H224132   4.742   6.582   4.814  3.9602 -0.0238  2.7249
  881TIP3   OH224133   2.863   0.737   6.419 -0.4281 -0.2438 -0.0917
  881TIP3    H124134   2.798   0.757   6.352  0.7696 -0.0003 -1.2184
  881TIP3    H224135   2.936   0.698   6.372 -0.2280 -1.6751  1.3052
  882TIP3   OH224136   4.657   6.677   4.937 -0.0800  0.8249  0.2798
  882TIP3    H124137   4.737   6.656   4.984  0.4291  0.3983 -0.7698
  882TIP3    H224138   4.587   6.651   4.997  0.5188  2.1380  1.6459
  883TIP3   OH224139   3.117   4.331  12.412  0.0663  0.2765  0.2785
  883TIP3    H124140   3.104   4.258  12.472 -0.6628  1.4344  1.5833
  883TIP3    H224141   3.207   4.360  12.430 -0.5274  1.3682  1.7510
  884TIP3   OH224142   5.392   4.825   0.381 -0.1024  0.0422 -0.2038
  884TIP3    H124143   5.386   4.914   0.345  0.6096  0.2516  0.1914
  884TIP3    H224144   5.474   4.790   0.345 -0.6435 -0.6628 -0.7977
  885TIP3   OH224145   3.892   5.321  16.775  0.3253 -0.1925 -0.2237
  885TIP3    H124146   3.907   5.263  16.849  1.5451  0.8118  0.3669
  885TIP3    H224147   3.854   5.400  16.814  1.2774  0.4684 -0.5951
  886TIP3   OH224148   3.401   1.134   5.974 -0.4697  0.6905 -0.1947
  886TIP3    H124149   3.481   1.185   5.960 -0.1983  0.2025 -0.4303
  886TIP3    H224150   3.342   1.195   6.017  0.2564  0.8648  0.5784
  887TIP3   OH224151   3.263   6.601  13.856 -0.3262 -0.3329 -0.0276
  887TIP3    H124152   3.356   6.607  13.835 -0.3899 -0.2360 -0.2866
  887TIP3    H224153   3.229   6.537  13.794 -0.7915  0.9862 -1.1962
  888TIP3   OH224154   6.233   6.792  12.786 -0.4988 -0.2411  0.4346
  888TIP3    H124155   6.214   6.699  12.782 -0.7505 -0.1570 -1.5247
  888TIP3    H224156   6.147   6.834  12.787 -0.4215 -0.0155 -0.7560
  889TIP3   OH224157   4.738   0.960   0.380 -0.2313  0.5152  0.4217
  889TIP3    H124158   4.787   1.035   0.414 -0.2480  1.1606 -0.8997
  889TIP3    H224159   4.805   0.905   0.339  0.0367 -1.1262  2.8705
  890TIP3   OH224160   5.886   1.213  15.066  0.2981  0.3684  0.6935
  890TIP3    H124161   5.913   1.121  15.059  0.4547  0.5559 -1.6801
  890TIP3    H224162   5.811   1.211  15.126  1.6681 -0.9677  2.4830
  891TIP3   OH224163   6.410   5.414   2.768  0.2048 -0.3432 -0.0758
  891TIP3    H124164   6.494   5.370   2.782 -0.8409 -2.3427  0.2705
  891TIP3    H224165   6.399   5.470   2.845  0.1272 -1.9553  1.1457
  892TIP3   OH224166   4.724   2.631  13.670 -0.7066  0.8451  0.0404
  892TIP3    H124167   4.766   2.687  13.736 -1.4552  0.7431  0.6127
  892TIP3    H224168   4.789   2.562  13.653 -0.2222  1.2706  0.1483
  893TIP3   OH224169   4.506   6.520   3.689 -0.1006 -0.5131  0.0205
  893TIP3    H124170   4.485   6.609   3.716 -1.6606 -0.8443 -0.0430
  893TIP3    H224171   4.548   6.531   3.603  1.4835  0.2668  0.8516
  894TIP3   OH224172   2.577   4.887  15.925 -0.2469  0.1932 -0.2910
  894TIP3    H124173   2.507   4.831  15.958  1.1207 -0.8514  0.9407
  894TIP3    H224174   2.570   4.967  15.977 -1.5069  0.7682 -1.2923
  895TIP3   OH224175   2.719   0.343   3.562  0.3037  0.0978 -0.1192
  895TIP3    H124176   2.802   0.295   3.550  0.0694 -0.4531  0.4283
  895TIP3    H224177   2.727   0.384   3.648 -0.7780 -1.6071  0.8600
  896TIP3   OH224178   0.286   4.684  13.370  0.3912 -0.1006 -0.5962
  896TIP3    H124179   0.339   4.713  13.444 -0.0864 -0.3086 -0.1676
  896TIP3    H224180   0.240   4.606  13.402 -1.3738  0.9523 -0.4311
  897TIP3   OH224181   4.909   3.498   4.532  0.0386 -0.1394  0.3266
  897TIP3    H124182   4.968   3.518   4.460  0.6724  2.9408  1.5293
  897TIP3    H224183   4.827   3.543   4.510 -0.5116 -0.9840  0.5678
  898TIP3   OH224184   3.008   2.324  15.193 -0.4862 -0.7362 -0.9707
  898TIP3    H124185   3.096   2.323  15.232 -1.4885 -1.0363  1.4814
  898TIP3    H224186   3.022   2.294  15.103  1.7803 -1.9463 -0.3181
  899TIP3   OH224187   2.832   4.290  14.962 -0.0086 -0.0666  0.0226
  899TIP3    H124188   2.851   4.323  15.050 -2.6409  0.1981  0.5782
  899TIP3    H224189   2.872   4.203  14.960  2.4733  0.9890  0.4246
  900TIP3   OH224190   6.811   1.398   6.459 -0.4001 -0.3599 -0.2680
  900TIP3    H124191   6.736   1.453   6.483  1.6835  2.4468  0.3482
  900TIP3    H224192   6.886   1.441   6.499  1.8125 -2.0423 -2.3053
  901TIP3   OH224193   3.075   3.310  13.485 -0.2888  0.1412 -0.4818
  901TIP3    H124194   2.999   3.289  13.430 -0.1260 -1.4629 -0.1569
  901TIP3    H224195   3.109   3.392  13.449 -1.5362  0.3208 -1.3127
  902TIP3   OH224196   5.408   2.901  15.949  0.2474  0.0386  0.0598
  902TIP3    H124197   5.353   2.926  16.023  1.1074 -0.3003  0.8342
  902TIP3    H224198   5.497   2.923  15.977  0.6606 -0.7982 -0.5690
  903TIP3   OH224199   4.335   5.491   0.816  0.1087 -0.3344  0.0451
  903TIP3    H124200   4.316   5.503   0.909  1.5400  0.7347  0.2296
  903TIP3    H224201   4.299   5.569   0.774  1.1770  0.1388 -0.0179
  904TIP3   OH224202   1.342   1.544  15.660  0.0429  0.0435 -0.3598
  904TIP3    H124203   1.288   1.604  15.709 -0.4370 -0.9404  0.3546
  904TIP3    H224204   1.374   1.481  15.725  0.2646 -0.6623 -1.1235
  905TIP3   OH224205   1.764   5.464  15.517  0.0965  0.2173  0.1774
  905TIP3    H124206   1.836   5.460  15.580 -0.4716  1.0734  0.9275
  905TIP3    H224207   1.701   5.399  15.549 -0.9639  1.8192  1.5747
  906TIP3   OH224208   1.244   2.807  16.151  0.1868  0.1361 -0.4524
  906TIP3    H124209   1.317   2.868  16.157  1.3532 -1.3441  1.9880
  906TIP3    H224210   1.190   2.841  16.080  2.4869  2.0807 -1.4050
  907TIP3   OH224211   0.661   2.576   0.341  0.1088 -0.4421  0.2776
  907TIP3    H124212   0.658   2.602   0.433 -1.3967  1.5651 -0.2527
  907TIP3    H224213   0.744   2.612   0.309  0.1776 -0.2908  0.6160
  908TIP3   OH224214   4.273   6.112  13.030 -1.1057  0.1859 -0.6342
  908TIP3    H124215   4.233   6.027  13.050 -1.6992  0.3286 -1.1916
  908TIP3    H224216   4.314   6.099  12.945  2.0123 -0.6292  0.8246
  909TIP3   OH224217   5.990   6.694  13.001 -0.1953 -0.7020 -0.0294
  909TIP3    H124218   5.896   6.691  13.020 -0.4093  0.7934 -0.7180
  909TIP3    H224219   6.032   6.688  13.087 -0.9226 -0.8674  0.3229
  910TIP3   OH224220   3.866   0.990   4.823  0.2075 -0.6514 -0.4597
  910TIP3    H124221   3.807   0.916   4.813 -0.7287 -0.2782  1.8115
  910TIP3    H224222   3.917   0.971   4.901  0.2765  0.8705 -0.0951
  911TIP3   OH224223   5.197   2.491   1.504  0.0321 -0.2807  0.5100
  911TIP3    H124224   5.162   2.540   1.430 -2.0017  0.1189  1.6705
  911TIP3    H224225   5.280   2.456   1.472 -0.8700 -0.3140 -2.0247
  912TIP3   OH224226   1.246   3.570  16.161 -0.2040 -0.8602  0.1265
  912TIP3    H124227   1.171   3.556  16.103  0.4393 -3.7546 -0.1288
  912TIP3    H224228   1.216   3.541  16.247 -0.2629  0.8232  0.7263
  913TIP3   OH224229   4.644   4.801   2.813  0.0144  0.3114 -0.1686
  913TIP3    H124230   4.632   4.884   2.860 -0.1148  0.2805 -0.1465
  913TIP3    H224231   4.575   4.744   2.847 -0.6065  0.5490 -0.9856
  914TIP3   OH224232   4.499   0.671   3.687 -0.5292 -0.0230 -0.2663
  914TIP3    H124233   4.522   0.757   3.722 -0.3685  0.3123 -1.1601
  914TIP3    H224234   4.418   0.686   3.638 -1.2117 -0.6530  0.6280
  915TIP3   OH224235   5.002   3.923   5.723  0.5732  0.0574 -0.0867
  915TIP3    H124236   5.044   4.008   5.713  1.5104 -0.5116 -1.2108
  915TIP3    H224237   4.917   3.934   5.680  1.4379 -0.0676 -1.9572
  916TIP3   OH224238   4.032   3.396  10.721  0.0288  0.0621  0.6437
  916TIP3    H124239   4.098   3.433  10.779  1.2357 -0.1998 -0.4988
  916TIP3    H224240   4.078   3.327  10.672 -1.3052 -0.6927  0.3861
  917TIP3   OH224241   1.922   3.537  15.486  0.3813  0.0458  0.1728
  917TIP3    H124242   1.868   3.559  15.411 -0.1622 -1.6028  0.0419
  917TIP3    H224243   2.005   3.582  15.470 -0.9004  2.7018  0.4290
  918TIP3   OH224244   1.331   1.801   1.986 -0.7761 -0.1531  0.2385
  918TIP3    H124245   1.362   1.881   1.943  1.8837 -1.4280 -0.4071
  918TIP3    H224246   1.297   1.831   2.070 -1.8672  1.8682 -0.8491
  919TIP3   OH224247   1.885   3.933   0.711  0.2029  0.0436 -0.3805
  919TIP3    H124248   1.917   3.867   0.650 -0.4183  0.9459 -1.7344
  919TIP3    H224249   1.790   3.933   0.700  0.2071  1.4010 -0.6991
  920TIP3   OH224250   1.279   5.827   1.203  0.0204  0.3703 -0.3874
  920TIP3    H124251   1.187   5.855   1.198 -0.7326 -1.8697 -0.2955
  920TIP3    H224252   1.308   5.858   1.289 -1.5804 -1.2596  0.8314
  921TIP3   OH224253   6.773   3.781  16.437  1.0714  0.4681  0.1151
  921TIP3    H124254   6.847   3.774  16.377  0.0604  0.8037 -1.2311
  921TIP3    H224255   6.734   3.866  16.417 -1.0389 -0.6517 -0.8709
  922TIP3   OH224256   4.916   1.466   0.923  0.6581 -0.2032  0.3760
  922TIP3    H124257   4.945   1.556   0.906  2.5523 -0.7303  0.5438
  922TIP3    H224258   4.980   1.411   0.878 -1.1068 -1.4877 -0.6758
  923TIP3   OH224259   4.131   6.493  16.217 -0.3209 -0.0922  0.1744
  923TIP3    H124260   4.167   6.560  16.159  1.1937 -0.7571  0.2989
  923TIP3    H224261   4.147   6.411  16.171 -1.5330 -0.4390  0.3418
  924TIP3   OH224262   5.314   4.952   4.099  0.5168  0.4001  0.1314
  924TIP3    H124263   5.221   4.960   4.115 -0.0182 -0.6949 -2.0324
  924TIP3    H224264   5.338   5.036   4.057 -0.5040 -0.7810 -3.1541
  925TIP3   OH224265   0.555   4.015   1.975  0.8002  0.0443  0.0774
  925TIP3    H124266   0.555   3.949   1.906  1.5746 -0.2070  0.3119
  925TIP3    H224267   0.547   4.098   1.929  1.7019 -0.0968 -0.3457
  926TIP3   OH224268   1.284   2.941   4.281 -0.2451 -0.3892 -0.0094
  926TIP3    H124269   1.303   3.009   4.216  1.1640 -0.2642  0.4762
  926TIP3    H224270   1.198   2.907   4.257 -0.9721  1.5341 -0.2963
  927TIP3   OH224271   6.459   6.517   2.782 -0.0935 -0.1650  0.4176
  927TIP3    H124272   6.526   6.584   2.796  1.3845 -1.1171 -1.6789
  927TIP3    H224273   6.402   6.554   2.714 -1.0878  0.1464  1.3731
  928TIP3   OH224274   3.350   2.625   1.718  0.2864  0.4103 -0.1847
  928TIP3    H124275   3.329   2.589   1.804  1.1188  2.1121  0.7862
  928TIP3    H224276   3.415   2.564   1.682  0.4918  0.0741  0.7273
  929TIP3   OH224277   4.855   4.747  11.956 -0.4188  0.1599 -0.1406
  929TIP3    H124278   4.893   4.719  12.039 -2.9746 -0.7355  0.8395
  929TIP3    H224279   4.902   4.698  11.889  0.0933 -0.9337  0.9909
  930TIP3   OH224280   5.200   2.422  12.082 -0.1678  0.3487 -0.5659
  930TIP3    H124281   5.114   2.401  12.117 -0.4161  2.0378 -0.0549
  930TIP3    H224282   5.182   2.469  12.000  0.0829  3.0804  0.8250
  931TIP3   OH224283   2.300   3.247   0.803  0.2687 -0.3845  0.3169
  931TIP3    H124284   2.382   3.287   0.829 -0.4138 -1.1384  4.3443
  931TIP3    H224285   2.232   3.307   0.836 -0.7644 -1.2611 -0.1331
  932TIP3   OH224286   4.532   6.736   3.458  0.0759 -0.2172  0.0329
  932TIP3    H124287   4.494   6.657   3.420 -2.6934  0.7460  0.5343
  932TIP3    H224288   4.531   6.801   3.387  1.7679 -0.4050 -0.2087
  933TIP3   OH224289   1.264   0.415   1.044 -0.4058  0.3048  0.5596
  933TIP3    H124290   1.312   0.468   1.108  0.1156  0.6014 -0.0658
  933TIP3    H224291   1.332   0.374   0.990 -0.8329 -0.0189  0.2585
  934TIP3   OH224292   3.755   5.834   3.348 -0.0712 -0.2758  0.0831
  934TIP3    H124293   3.788   5.784   3.422 -0.8751 -0.5820  0.2492
  934TIP3    H224294   3.691   5.776   3.307 -0.0608  0.1167 -0.5007
  935TIP3   OH224295   4.128   2.567  11.462 -0.0939 -0.2110 -0.4910
  935TIP3    H124296   4.056   2.567  11.399  0.3927 -0.4397 -1.0512
  935TIP3    H224297   4.190   2.504  11.428 -0.1723 -0.9321  0.6309
  936TIP3   OH224298   0.541   0.368  13.205 -0.1231 -0.8748  0.3006
  936TIP3    H124299   0.525   0.304  13.274 -0.2958 -1.4055 -0.2262
  936TIP3    H224300   0.621   0.414  13.232 -1.2282  0.2645  1.8393
  937TIP3   OH224301   5.319   2.385   1.849  0.4652 -0.0087 -0.5210
  937TIP3    H124302   5.406   2.365   1.885 -0.0461 -0.3034  0.5826
  937TIP3    H224303   5.310   2.327   1.774  0.2814 -1.7233  0.7626
  938TIP3   OH224304   5.057   2.909   3.944  0.0276  0.1472 -0.8298
  938TIP3    H124305   4.971   2.869   3.929 -0.0874  0.3693 -0.7799
  938TIP3    H224306   5.062   2.918   4.039 -0.0450  0.4563 -0.8545
  939TIP3   OH224307   2.426   4.614   4.181 -0.4788 -0.1274 -0.2554
  939TIP3    H124308   2.406   4.529   4.142 -0.3977  0.2479 -1.1457
  939TIP3    H224309   2.489   4.595   4.250 -1.1161 -0.8844  0.1278
  940TIP3   OH224310   4.297   1.836   3.966  0.0782  0.2888 -0.2444
  940TIP3    H124311   4.213   1.870   3.936 -0.3013 -1.1961 -0.9480
  940TIP3    H224312   4.293   1.742   3.948  1.5392  0.0444  0.5418
  941TIP3   OH224313   3.226   2.780  15.914  0.2058  0.0896 -0.3244
  941TIP3    H124314   3.200   2.865  15.878 -0.2736 -0.3889 -1.1335
  941TIP3    H224315   3.150   2.723  15.899  0.6344 -0.5607 -0.0584
  942TIP3   OH224316   5.528   0.275   6.197 -0.0196 -0.1954  0.2116
  942TIP3    H124317   5.612   0.321   6.199 -0.6707  1.0642  0.0620
  942TIP3    H224318   5.464   0.344   6.178 -1.1823 -0.9986  1.0977
  943TIP3   OH224319   6.446   6.544   4.375  0.3402  0.0390  0.6368
  943TIP3    H124320   6.364   6.497   4.386  1.5127 -1.8322  1.9546
  943TIP3    H224321   6.475   6.563   4.464  2.3888 -1.3208  0.3386
  944TIP3   OH224322   3.155   3.222   0.273  0.6923 -0.4051 -0.3154
  944TIP3    H124323   3.209   3.217   0.352  0.6283 -0.5824 -0.2834
  944TIP3    H224324   3.204   3.174   0.207  1.4224  0.9127 -0.7740
  945TIP3   OH224325   6.134   2.249   4.580  0.1873  0.4963 -0.3898
  945TIP3    H124326   6.087   2.169   4.556  2.0137 -0.9111  0.4861
  945TIP3    H224327   6.118   2.258   4.674  2.5475 -0.7213  0.2029
  946TIP3   OH224328   5.821   1.476   4.049 -0.1452 -0.3030 -0.0114
  946TIP3    H124329   5.865   1.525   4.117  0.0081 -0.0513 -0.2929
  946TIP3    H224330   5.734   1.516   4.043 -0.6706 -1.2295  1.0120
  947TIP3   OH224331   1.209   5.309   2.629  0.1868  0.5039 -0.0272
  947TIP3    H124332   1.204   5.247   2.701  1.1213  0.0032 -0.3734
  947TIP3    H224333   1.139   5.283   2.569 -0.8604  1.1767  0.8642
  948TIP3   OH224334   2.831   0.511  12.574  0.5785 -0.3909 -0.3750
  948TIP3    H124335   2.800   0.555  12.495 -1.2967  0.6713  0.8498
  948TIP3    H224336   2.904   0.565  12.605  0.8852 -0.4311 -1.0157
  949TIP3   OH224337   0.279   5.827   1.799  0.0782  0.5201 -0.5743
  949TIP3    H124338   0.189   5.794   1.801  0.3692 -0.2875 -0.5277
  949TIP3    H224339   0.271   5.920   1.822 -0.7182  0.4076 -0.3718
  950TIP3   OH224340   4.669   1.639   4.116  0.1770 -0.3651 -0.2929
  950TIP3    H124341   4.648   1.572   4.182  0.4703  0.7316  0.9712
  950TIP3    H224342   4.652   1.722   4.161 -0.1589  0.4225 -1.8160
  951TIP3   OH224343   4.641   5.515   2.707  0.0596 -0.1250 -0.0504
  951TIP3    H124344   4.728   5.476   2.699  0.5717  0.7555  1.0333
  951TIP3    H224345   4.653   5.590   2.765 -1.4726 -0.1492  0.3396
  952TIP3   OH224346   3.363   5.175  16.831 -0.0785 -0.4049 -0.7266
  952TIP3    H124347   3.406   5.155  16.748  0.8427  0.2639 -0.4358
  952TIP3    H224348   3.393   5.264  16.852 -0.4645 -0.4865  0.2162
  953TIP3   OH224349   3.255   5.580   3.702 -0.4468  0.1877 -0.2130
  953TIP3    H124350   3.161   5.597   3.701 -0.1592  1.9992  0.1493
  953TIP3    H224351   3.281   5.596   3.793 -0.0039 -1.7506  0.0420
  954TIP3   OH224352   0.506   4.297   0.519  0.1960 -0.5269  0.2604
  954TIP3    H124353   0.422   4.265   0.552  0.4701  0.4924  2.0877
  954TIP3    H224354   0.569   4.231   0.548 -0.0367 -1.9167 -2.1327
  955TIP3   OH224355   4.517   6.639  16.097  0.1609 -0.1937  0.1261
  955TIP3    H124356   4.565   6.621  16.016  3.5570  1.2722  1.6139
  955TIP3    H224357   4.535   6.564  16.153 -0.2389 -0.1388  0.3311
  956TIP3   OH224358   2.872   4.218   2.550 -0.4004 -0.1761  0.5944
  956TIP3    H124359   2.885   4.291   2.611  0.0161 -0.1935  0.5242
  956TIP3    H224360   2.785   4.234   2.513  0.9135  2.1333 -1.8869
  957TIP3   OH224361   6.550   3.366  16.829  0.0735 -0.2715  0.6455
  957TIP3    H124362   6.602   3.287  16.848  1.3560  0.7909  1.7996
  957TIP3    H224363   6.510   3.349  16.745  0.4607 -2.0975  0.7874
  958TIP3   OH224364   4.097   6.587  13.187 -0.2788  0.2435  0.0424
  958TIP3    H124365   4.037   6.538  13.242  0.7327 -0.1632  0.8032
  958TIP3    H224366   4.113   6.530  13.111  1.3352 -0.9088  1.1869
  959TIP3   OH224367   4.998   1.040   3.971  0.0270 -0.2901 -0.2842
  959TIP3    H124368   5.013   0.993   4.053 -1.7584 -0.2274  0.1404
  959TIP3    H224369   4.943   0.981   3.920  0.4711 -0.0002 -1.1076
  960TIP3   OH224370   5.445   6.518  10.964  0.5848 -0.1476  0.1378
  960TIP3    H124371   5.396   6.598  10.978  2.2987  1.4940 -2.3520
  960TIP3    H224372   5.537   6.544  10.968  1.2790 -2.5149  1.7114
  961TIP3   OH224373   2.421   2.392  14.243  0.6380 -0.1604 -1.0526
  961TIP3    H124374   2.501   2.380  14.293  1.5096  1.9060 -1.8607
  961TIP3    H224375   2.359   2.330  14.282  1.8602 -0.0443  1.2225
  962TIP3   OH224376   3.687   3.053   4.169 -0.2982 -0.0064 -0.3337
  962TIP3    H124377   3.692   2.960   4.150  1.2875  0.1935 -1.1099
  962TIP3    H224378   3.598   3.079   4.145 -0.7061 -1.2814 -0.2322
  963TIP3   OH224379   1.565   0.191  14.723 -0.1523  0.2313  0.2384
  963TIP3    H124380   1.640   0.132  14.725 -0.5273 -0.2382  1.0412
  963TIP3    H224381   1.491   0.134  14.703 -0.3858  0.5912  0.0698
  964TIP3   OH224382   2.264   5.404   5.297  0.0030  0.3452 -0.0314
  964TIP3    H124383   2.287   5.311   5.291 -1.4486  0.0072 -0.8364
  964TIP3    H224384   2.219   5.412   5.381  0.8177  0.4967  0.3994
  965TIP3   OH224385   0.164   3.016   2.847  0.3086 -0.1814 -0.2434
  965TIP3    H124386   0.191   2.926   2.830 -0.0728 -1.1999  3.6438
  965TIP3    H224387   0.241   3.057   2.886 -0.4540  0.1709  0.9422
  966TIP3   OH224388   6.580   1.458   3.751  0.2142  0.3104  0.0781
  966TIP3    H124389   6.661   1.436   3.705  0.9543  0.5729  1.2031
  966TIP3    H224390   6.542   1.373   3.775  1.0494  0.1682  1.0077
  967TIP3   OH224391   2.500   0.276   3.935 -0.0682  0.8101  0.5938
  967TIP3    H124392   2.477   0.228   3.856  2.6966 -1.7864  1.1468
  967TIP3    H224393   2.480   0.216   4.007  3.1429  0.4199  1.3479
  968TIP3   OH224394   2.859   2.786  16.605 -0.4003 -0.5971  0.1542
  968TIP3    H124395   2.847   2.868  16.652 -1.5416  0.0217 -1.1119
  968TIP3    H224396   2.889   2.813  16.518 -0.7997 -1.5023 -0.2802
  969TIP3   OH224397   1.497   0.736  15.608 -0.6141  0.1786  0.4490
  969TIP3    H124398   1.433   0.726  15.537  0.3671 -2.0153 -0.2252
  969TIP3    H224399   1.538   0.821  15.593 -2.3552  0.9862  0.0610
  970TIP3   OH224400   0.614   6.758   3.172  0.4168  0.2504 -0.2394
  970TIP3    H124401   0.617   6.807   3.090 -0.9743 -2.2030 -1.8671
  970TIP3    H224402   0.691   6.702   3.170  0.5968  0.4681  0.3428
  971TIP3   OH224403   5.897   5.559  10.999  0.5109 -0.1968 -0.1132
  971TIP3    H124404   5.835   5.486  10.998 -0.2833  0.4539  0.4342
  971TIP3    H224405   5.919   5.571  11.091  1.2012 -0.1969 -0.2694
  972TIP3   OH224406   3.511   4.319  11.059 -0.2978 -0.2129 -0.5367
  972TIP3    H124407   3.419   4.331  11.084 -0.0023 -0.5346  0.7888
  972TIP3    H224408   3.517   4.226  11.033 -0.2899 -0.2547 -0.3840
  973TIP3   OH224409   3.012   6.564   5.356  0.3729 -0.1990 -0.2836
  973TIP3    H124410   2.961   6.483   5.354 -0.3309  0.2312 -0.2296
  973TIP3    H224411   3.083   6.545   5.417 -1.9880  0.4387  2.9476
  974TIP3   OH224412   0.617   6.004   3.386  0.1305 -0.0281 -0.0265
  974TIP3    H124413   0.668   6.002   3.467 -1.5764 -0.5302  1.1184
  974TIP3    H224414   0.578   5.916   3.381 -1.7205  0.7381 -0.0377
  975TIP3   OH224415   1.518   5.925  14.465 -0.2216  0.1496 -0.0217
  975TIP3    H124416   1.477   5.839  14.453 -1.5398  0.6939  0.3847
  975TIP3    H224417   1.612   5.907  14.461 -0.4250 -1.5176  1.2689
  976TIP3   OH224418   2.625   0.577  13.973  0.2345  0.0218  0.4264
  976TIP3    H124419   2.685   0.649  13.989  0.1000  0.5555 -1.2321
  976TIP3    H224420   2.541   0.607  14.010 -0.0957  1.2352 -1.1873
  977TIP3   OH224421   0.618   6.100   2.817 -0.4708 -0.6146  0.7617
  977TIP3    H124422   0.661   6.019   2.788  1.1791  0.9417 -1.4470
  977TIP3    H224423   0.582   6.078   2.903  0.8782 -3.3582  0.7441
  978TIP3   OH224424   1.486   1.113   4.171 -0.2049 -0.1662  0.0875
  978TIP3    H124425   1.425   1.158   4.230  0.7604 -0.7730  1.6224
  978TIP3    H224426   1.491   1.024   4.206 -0.1320 -0.7668 -1.3722
  979TIP3   OH224427   2.178   5.956  16.154  0.2110  0.9735  0.4012
  979TIP3    H124428   2.234   5.906  16.094 -1.3597  1.0285 -1.1766
  979TIP3    H224429   2.121   5.890  16.195 -2.3914  1.3975 -2.2514
  980TIP3   OH224430   3.122   2.242  12.400 -0.0527  0.1941  0.0868
  980TIP3    H124431   3.196   2.298  12.375  1.0334 -1.2034  0.0318
  980TIP3    H224432   3.111   2.257  12.493 -0.0775  0.8423 -0.0178
  981TIP3   OH224433   6.055   0.244   2.843 -0.1125  0.1575 -0.2067
  981TIP3    H124434   6.039   0.237   2.937 -0.3646  1.2881 -0.1551
  981TIP3    H224435   5.997   0.314   2.813 -1.4170 -1.3829 -1.5516
  982TIP3   OH224436   0.450   2.974  12.685  0.1969 -0.1037  0.2233
  982TIP3    H124437   0.427   3.060  12.720 -0.7320 -0.8719  1.5380
  982TIP3    H224438   0.368   2.926  12.682  0.6933 -0.9447 -0.5737
  983TIP3   OH224439   0.608   0.034   5.548  1.3271  0.4604  0.8249
  983TIP3    H124440   0.590   0.037   5.454  0.7293 -1.0205  0.8544
  983TIP3    H224441   0.527   0.066   5.588  1.4977  0.8703  0.8462
  984TIP3   OH224442   2.971   2.014  12.358  0.2927 -0.5934  0.4379
  984TIP3    H124443   3.038   1.963  12.311 -0.9099 -2.3927  0.6021
  984TIP3    H224444   3.020   2.088  12.396  2.8141 -3.3208  3.0158
  985TIP3   OH224445   2.589   5.575  12.104 -0.2828  0.4215  0.0348
  985TIP3    H124446   2.683   5.559  12.098  0.4575  4.0622 -0.4780
  985TIP3    H224447   2.579   5.631  12.181 -2.0585  0.1434  0.0547
  986TIP3   OH224448   2.488   4.301  16.558  0.0643 -0.3184 -0.5043
  986TIP3    H124449   2.426   4.372  16.545  1.6821  0.9859 -1.4411
  986TIP3    H224450   2.459   4.258  16.639 -0.3585  2.0653  0.6820
  987TIP3   OH224451   2.423   3.009   1.096  0.5529 -0.3020 -0.2817
  987TIP3    H124452   2.502   2.955   1.102  0.7001 -0.3970 -2.3190
  987TIP3    H224453   2.447   3.081   1.037 -0.4156  0.5693  0.3497
  988TIP3   OH224454   0.014   0.036  15.442 -0.5772 -0.2031 -0.3354
  988TIP3    H124455   0.023   0.079  15.527 -0.3133 -0.8912 -0.0106
  988TIP3    H224456  -0.016  -0.052  15.463  0.1716 -0.6074 -0.9077
  989TIP3   OH224457   5.200   1.076   2.158 -0.3677 -0.5174  0.3026
  989TIP3    H124458   5.173   1.141   2.093 -0.3961  0.5898  1.4001
  989TIP3    H224459   5.158   0.995   2.129 -0.8531  0.0831 -0.7392
  990TIP3   OH224460   2.192   0.914  15.302 -0.0138 -0.0945 -0.2881
  990TIP3    H124461   2.212   0.869  15.384 -2.1200  0.6027  0.7096
  990TIP3    H224462   2.191   1.007  15.326  0.8813  0.2493 -1.4963
  991TIP3   OH224463   2.753   1.084  15.129 -0.4498  0.6253 -0.0093
  991TIP3    H124464   2.837   1.099  15.086 -1.2988 -0.1456 -2.0793
  991TIP3    H224465   2.702   1.163  15.112 -0.7527  0.3681 -0.3050
  992TIP3   OH224466   3.812   3.510  16.084 -0.0974  0.1544 -0.1025
  992TIP3    H124467   3.769   3.444  16.138 -0.3123 -0.1992 -0.6974
  992TIP3    H224468   3.795   3.592  16.129 -0.7311 -0.0729  0.0869
  993TIP3   OH224469   2.818   5.973   3.680  0.2692  0.4742  0.7138
  993TIP3    H124470   2.822   6.024   3.600  1.9920 -2.2792 -1.1588
  993TIP3    H224471   2.729   5.937   3.683 -0.1141  1.4031  0.6265
  994TIP3   OH224472   6.109   3.437  16.642 -0.2172  0.1651 -0.1307
  994TIP3    H124473   6.179   3.502  16.640  0.5894 -0.6827 -2.5821
  994TIP3    H224474   6.045   3.468  16.578  0.2543 -1.4633 -1.4511
  995TIP3   OH224475   5.860   2.686   1.935  0.5055  0.8095  0.0062
  995TIP3    H124476   5.904   2.687   2.020  0.2391  1.2808  0.1451
  995TIP3    H224477   5.776   2.643   1.953  0.8373  0.0437 -0.2273
  996TIP3   OH224478   5.715   3.868   5.076 -0.1800 -0.1523  0.0794
  996TIP3    H124479   5.640   3.838   5.025  0.7935 -0.4834 -1.2091
  996TIP3    H224480   5.742   3.792   5.126  0.1922 -0.4764 -0.5944
  997TIP3   OH224481   2.020   4.708   6.414 -0.7839 -0.0996 -0.6215
  997TIP3    H124482   1.929   4.681   6.427 -0.3848 -1.1061  0.2845
  997TIP3    H224483   2.014   4.795   6.375 -2.1539  0.7261  1.2736
  998TIP3   OH224484   3.117   2.832  11.470  0.1771 -0.4218  0.1338
  998TIP3    H124485   3.196   2.780  11.482  0.7147 -0.6721 -3.5707
  998TIP3    H224486   3.149   2.922  11.463 -0.6005  0.4951  4.7099
  999TIP3   OH224487   4.517   6.439  12.216 -0.0034 -0.3452  0.3018
  999TIP3    H124488   4.455   6.369  12.198 -1.2019  0.7344  0.1032
  999TIP3    H224489   4.568   6.447  12.135 -2.0134  1.1179 -0.9117
 1000TIP3   OH224490   5.123   2.155  14.404 -0.1073  0.2681  0.2367
 1000TIP3    H124491   5.202   2.160  14.349 -1.0175  0.9345 -1.0808
 1000TIP3    H224492   5.095   2.246  14.414 -1.7731 -0.0661 -0.9805
 1001TIP3   OH224493   4.565   6.318  11.300  0.2738  0.1997 -0.3008
 1001TIP3    H124494   4.545   6.387  11.236 -0.6209  0.9353  0.7320
 1001TIP3    H224495   4.561   6.363  11.385  1.9427 -0.6407  0.2561
 1002TIP3   OH224496   0.603   1.295   3.252  0.1921  0.2300  0.0023
 1002TIP3    H124497   0.688   1.266   3.218  0.9708  2.7039 -0.3809
 1002TIP3    H224498   0.626   1.360   3.320 -1.3828  0.5217  0.2835
 1003TIP3   OH224499   0.530   0.518   4.300 -0.3002 -0.0174  0.0838
 1003TIP3    H124500   0.498   0.507   4.389  0.1243  0.6805  0.3364
 1003TIP3    H224501   0.502   0.607   4.276  2.5473  1.1925  0.8293
 1004TIP3   OH224502   3.588   5.115   5.604 -0.4032 -0.2587  0.1638
 1004TIP3    H124503   3.528   5.042   5.622  0.8436 -1.8136 -1.5995
 1004TIP3    H224504   3.590   5.121   5.509  2.1131 -0.1957  0.1676
 1005TIP3   OH224505   1.921   6.659  14.866 -0.0847 -0.8888 -0.0570
 1005TIP3    H124506   1.958   6.675  14.952  1.1469 -1.1738 -0.5114
 1005TIP3    H224507   1.993   6.622  14.815 -0.5534  0.0204 -1.4500
 1006TIP3   OH224508   2.316   4.818  11.155  0.7041  0.4520 -0.1198
 1006TIP3    H124509   2.262   4.889  11.188  0.3991  0.7918 -1.3047
 1006TIP3    H224510   2.258   4.769  11.096  1.5896  0.6931 -1.2374
 1007TIP3   OH224511   1.373   6.387  15.239  0.1128 -0.1015 -0.5142
 1007TIP3    H124512   1.469   6.396  15.236  0.1805 -0.5972 -0.0175
 1007TIP3    H224513   1.356   6.295  15.221 -0.1651 -0.3574  0.9096
 1008TIP3   OH224514   4.966   4.774   4.142  0.0839 -0.0812 -0.2215
 1008TIP3    H124515   5.029   4.703   4.137 -0.1252 -0.1905 -2.6390
 1008TIP3    H224516   4.888   4.735   4.181  0.0804 -1.1366 -1.2307
 1009TIP3   OH224517   2.240   3.052   5.498 -0.9111 -0.4255  0.4461
 1009TIP3    H124518   2.328   3.014   5.496 -0.9374 -0.6198  2.0384
 1009TIP3    H224519   2.205   3.028   5.583 -1.2882  2.3742  1.1944
 1010TIP3   OH224520   3.433   6.818  14.811 -0.1277 -0.1504  0.3975
 1010TIP3    H124521   3.444   6.726  14.787  0.5337 -0.3172  1.2755
 1010TIP3    H224522   3.414   6.815  14.905  1.3569  0.6807  0.7542
 1011TIP3   OH224523   3.678   3.677  16.836  0.6584 -0.1323  0.5796
 1011TIP3    H124524   3.591   3.643  16.816  0.9037  0.3464 -1.5415
 1011TIP3    H224525   3.667   3.726  16.918 -1.1082  0.1032  0.2305
 1012TIP3   OH224526   6.099   6.524  15.547  0.0959 -0.4460  0.3788
 1012TIP3    H124527   6.123   6.460  15.480  0.1486  1.3428 -1.4306
 1012TIP3    H224528   6.012   6.555  15.521 -0.6384 -0.9072  2.1394
 1013TIP3   OH224529   3.386   1.022   5.409  0.5308  0.6365 -0.1030
 1013TIP3    H124530   3.382   0.941   5.460 -1.7678 -1.0460 -2.6926
 1013TIP3    H224531   3.308   1.071   5.436 -0.9294 -0.4478 -2.0811
 1014TIP3   OH224532   1.343   1.964  15.134 -0.7010  0.2921 -0.3221
 1014TIP3    H124533   1.267   1.953  15.077 -1.8999  1.5487  0.9602
 1014TIP3    H224534   1.314   1.931  15.219  0.5247 -0.0758 -0.0175
 1015TIP3   OH224535   0.375   6.714  16.803 -0.3572 -0.2946  1.1078
 1015TIP3    H124536   0.347   6.639  16.857 -0.5346 -1.4601 -0.5249
 1015TIP3    H224537   0.423   6.770  16.863  0.6832 -2.2308  2.1751
 1016TIP3   OH224538   4.281   5.279  13.486  0.3133  0.2414  0.1733
 1016TIP3    H124539   4.256   5.247  13.400 -0.2663  1.9244 -0.3148
 1016TIP3    H224540   4.226   5.356  13.501 -0.2266 -0.4866  2.4195
 1017TIP3   OH224541   3.449   6.016  14.952 -0.5688 -0.2421 -0.5912
 1017TIP3    H124542   3.378   6.071  14.919 -1.1358 -0.1971  0.6401
 1017TIP3    H224543   3.406   5.955  15.012  0.1388 -1.6292 -1.4410
 1018TIP3   OH224544   6.431   1.535  11.959  0.8702  0.0010 -0.0995
 1018TIP3    H124545   6.473   1.471  11.902  0.5319  0.0757 -0.4387
 1018TIP3    H224546   6.470   1.520  12.045  0.7945 -0.6569 -0.1761
 1019TIP3   OH224547   2.156   4.961   3.620  0.3574  0.0610 -0.1801
 1019TIP3    H124548   2.220   4.900   3.657  0.2922  0.9784  1.5723
 1019TIP3    H224549   2.083   4.906   3.593  1.2443 -0.8494 -0.8138
 1020TIP3   OH224550   1.747   2.346   0.496 -0.0919 -0.0414  0.2244
 1020TIP3    H124551   1.812   2.279   0.516 -1.3461 -1.7579 -1.1443
 1020TIP3    H224552   1.798   2.426   0.485  1.4743 -0.7578  1.7670
 1021TIP3   OH224553   5.671   1.287  16.851  0.3445 -0.0772  0.4504
 1021TIP3    H124554   5.669   1.211  16.793  1.1883 -0.3995  0.8141
 1021TIP3    H224555   5.677   1.362  16.792 -2.2178 -0.1444  0.0329
 1022TIP3   OH224556   6.732   4.388  16.021  0.1404  0.4616  0.6833
 1022TIP3    H124557   6.756   4.344  15.940 -2.1757  0.0732  0.1472
 1022TIP3    H224558   6.722   4.317  16.085  1.5544  0.7298  1.2377
 1023TIP3   OH224559   2.419   1.493   5.742  0.3657 -1.0388 -0.3306
 1023TIP3    H124560   2.432   1.504   5.836 -0.6849  0.5121 -0.3235
 1023TIP3    H224561   2.501   1.524   5.703  0.7804 -1.6255  0.0605
 1024TIP3   OH224562   3.341   2.684  11.530  0.0311  0.6035 -0.4505
 1024TIP3    H124563   3.354   2.597  11.568  0.3967  0.9761  0.2939
 1024TIP3    H224564   3.429   2.720  11.519 -0.0356  0.3368 -2.0882
 1025TIP3   OH224565   6.639   2.690  16.327  0.4277  0.4376 -0.3152
 1025TIP3    H124566   6.594   2.744  16.392  1.1891 -0.0597  0.6293
 1025TIP3    H224567   6.571   2.630  16.295 -0.1717  1.2644 -0.6567
 1026TIP3   OH224568   5.889   1.330   1.105  0.0642 -0.3716 -0.0642
 1026TIP3    H124569   5.969   1.277   1.095  0.0788 -0.2410 -0.7025
 1026TIP3    H224570   5.906   1.409   1.054 -0.3922 -0.2482 -0.0310
 1027TIP3   OH224571   2.980   3.385  12.506 -0.4482  0.7218 -0.4440
 1027TIP3    H124572   2.937   3.347  12.582  0.2292 -0.7069 -0.7292
 1027TIP3    H224573   2.919   3.451  12.473 -1.2279  0.5798  0.6701
 1028TIP3   OH224574   3.793   4.823   2.464  1.1238 -0.1827 -0.5784
 1028TIP3    H124575   3.793   4.916   2.485 -2.6812 -0.3679  1.1277
 1028TIP3    H224576   3.795   4.820   2.368  2.0151  1.5857 -0.6505
 1029TIP3   OH224577   6.315   3.031  16.342 -0.1473  0.1039  0.5914
 1029TIP3    H124578   6.398   2.997  16.373 -0.0416 -1.3435 -1.1057
 1029TIP3    H224579   6.263   2.954  16.320 -0.1896  0.8782 -2.6824
 1030TIP3   OH224580   2.270   3.385   1.577 -0.2820 -0.1456 -0.2053
 1030TIP3    H124581   2.206   3.327   1.618 -0.9771  0.3819 -0.5384
 1030TIP3    H224582   2.335   3.325   1.539 -0.6679 -0.6903 -0.0146
 1031TIP3   OH224583   6.862   3.039  13.624 -0.3116  0.3586  0.2776
 1031TIP3    H124584   6.871   3.001  13.712 -0.5915  0.8205  0.5068
 1031TIP3    H224585   6.802   3.112  13.635 -0.8080  0.0640 -0.4147
 1032TIP3   OH224586   2.584   1.623   2.232 -0.2436 -0.2900  0.2809
 1032TIP3    H124587   2.568   1.540   2.188 -0.1990 -0.5423  0.7418
 1032TIP3    H224588   2.628   1.600   2.313 -2.3288 -0.0352  1.5628
 1033TIP3   OH224589   5.991   4.637   5.377 -0.0402 -0.1607  0.3379
 1033TIP3    H124590   5.963   4.550   5.404 -0.3636 -0.1999 -0.1108
 1033TIP3    H224591   6.018   4.680   5.458 -1.6978 -0.0115  0.8507
 1034TIP3   OH224592   3.371   0.499  15.818  0.1929 -0.3821 -0.5400
 1034TIP3    H124593   3.421   0.447  15.755 -0.0272  0.8999 -1.8353
 1034TIP3    H224594   3.433   0.517  15.889  0.2688 -2.3466 -0.0652
 1035TIP3   OH224595   4.338   5.628   4.207 -0.9255  0.5970 -0.0112
 1035TIP3    H124596   4.383   5.544   4.216 -0.9237  0.7967  2.3261
 1035TIP3    H224597   4.267   5.611   4.145 -0.4794 -0.9266 -0.1284
 1036TIP3   OH224598   2.953   6.582   6.327 -0.2568 -0.2538  0.1083
 1036TIP3    H124599   2.902   6.609   6.404  0.8142 -0.3031  0.8609
 1036TIP3    H224600   3.024   6.646   6.322  0.9015 -1.4747  0.4354
 1037TIP3   OH224601   1.715   3.732  15.338 -0.3419  0.2791 -0.0399
 1037TIP3    H124602   1.664   3.652  15.336  1.9582 -1.2871 -0.0572
 1037TIP3    H224603   1.714   3.763  15.247  0.8702 -1.2365 -0.6197
 1038TIP3   OH224604   3.589   5.597   3.681 -0.8776 -0.0583  0.4234
 1038TIP3    H124605   3.550   5.630   3.601 -1.6691 -1.9391 -0.0087
 1038TIP3    H224606   3.530   5.528   3.711 -0.2947  0.1987  2.3102
 1039TIP3   OH224607   4.868   3.502  14.245  0.6742  0.4010  0.2237
 1039TIP3    H124608   4.811   3.491  14.321  0.5291  1.1513  0.2285
 1039TIP3    H224609   4.956   3.482  14.278  1.4233  5.2864  1.9407
 1040TIP3   OH224610   1.227   3.956   2.057  0.3753 -0.2601 -0.3168
 1040TIP3    H124611   1.282   3.879   2.069  0.9257  0.0887 -0.5182
 1040TIP3    H224612   1.242   4.009   2.136  0.2145 -0.2363 -0.3024
 1041TIP3   OH224613   6.340   5.035  11.813  0.0910 -0.4543 -0.0974
 1041TIP3    H124614   6.245   5.048  11.824  0.0018 -0.5871 -0.6508
 1041TIP3    H224615   6.377   5.123  11.820 -0.1570 -0.3024 -0.6034
 1042TIP3   OH224616   2.733   6.599  17.043 -0.2827 -0.1581 -0.1489
 1042TIP3    H124617   2.772   6.619  16.959  0.0917  0.8907  0.2557
 1042TIP3    H224618   2.712   6.684  17.081 -0.6863 -0.6182  0.7001
 1043TIP3   OH224619   3.625   1.473   4.980 -0.4109  0.4458 -0.8451
 1043TIP3    H124620   3.573   1.499   5.057  0.7330  0.4019 -0.0265
 1043TIP3    H224621   3.616   1.377   4.977  2.0806  0.0371  1.2176
 1044TIP3   OH224622   1.475   6.593  14.979 -0.2168 -0.4568  0.1317
 1044TIP3    H124623   1.513   6.506  14.969  0.3101 -0.3723  1.2283
 1044TIP3    H224624   1.442   6.595  15.069 -1.4102  0.0289 -0.2961
 1045TIP3   OH224625   0.990   6.266  14.421 -0.2649 -0.0274 -0.2072
 1045TIP3    H124626   1.028   6.184  14.454 -0.6502  0.3223  1.1223
 1045TIP3    H224627   1.036   6.280  14.338 -0.2465 -1.6256 -0.5090
 1046TIP3   OH224628   3.171   3.218  16.098 -0.1412  0.3275 -0.2899
 1046TIP3    H124629   3.111   3.220  16.023 -0.7892  2.4024  0.2132
 1046TIP3    H224630   3.181   3.310  16.123  0.1044 -0.2966  2.1467
 1047TIP3   OH224631   0.996   4.883   5.802  0.0871  0.6628 -0.2556
 1047TIP3    H124632   1.016   4.976   5.809  1.2681  0.3828  0.3430
 1047TIP3    H224633   1.075   4.844   5.764  0.1907 -0.2966  0.8798
 1048TIP3   OH224634   0.059   4.376  11.575  0.4422 -0.4416 -0.4564
 1048TIP3    H124635   0.078   4.320  11.500 -0.4856  0.3328 -1.3075
 1048TIP3    H224636   0.107   4.457  11.557 -1.3239  0.4895 -1.2427
 1049TIP3   OH224637   1.464   4.452   2.078 -0.0240 -0.3986 -0.4457
 1049TIP3    H124638   1.501   4.404   2.004 -0.3261 -0.5583 -0.4965
 1049TIP3    H224639   1.540   4.489   2.124  0.1351  0.1801 -1.1567
 1050TIP3   OH224640   0.109   6.070  12.279 -0.4174  0.1397  0.1471
 1050TIP3    H124641   0.074   6.106  12.361 -1.3696 -0.1609 -0.1175
 1050TIP3    H224642   0.122   5.977  12.298 -0.8766  0.0211 -0.1184
 1051TIP3   OH224643   2.218   0.331  11.569  0.0897  0.2919 -0.1741
 1051TIP3    H124644   2.150   0.390  11.603 -0.3224 -0.7162  0.8378
 1051TIP3    H224645   2.251   0.374  11.491  0.0122  1.9991  0.6944
 1052TIP3   OH224646   2.266   4.600  15.517  0.0701  0.0758  0.3608
 1052TIP3    H124647   2.300   4.671  15.572 -0.5791 -0.0932  0.9966
 1052TIP3    H224648   2.205   4.553  15.574 -1.2807  0.4120 -0.7612
 1053TIP3   OH224649   3.307   5.362   0.802 -0.3215  0.0460  0.1784
 1053TIP3    H124650   3.245   5.430   0.775 -1.6246 -1.1197  0.0748
 1053TIP3    H224651   3.381   5.371   0.742 -0.5240  1.2877  0.1005
 1054TIP3   OH224652   4.508   3.713  11.626  0.3356  0.3128 -0.1485
 1054TIP3    H124653   4.473   3.624  11.618  0.6705  0.2425 -0.9290
 1054TIP3    H224654   4.602   3.704  11.609  0.4248  0.7794  0.0634
 1055TIP3   OH224655   6.732   4.621  13.803  0.4615  0.2050 -0.4142
 1055TIP3    H124656   6.732   4.690  13.737 -1.1796  0.3581 -0.2912
 1055TIP3    H224657   6.640   4.605  13.822  0.8619 -0.3214  1.3374
 1056TIP3   OH224658   4.317   4.539  15.636 -0.0743  0.2132 -0.3638
 1056TIP3    H124659   4.301   4.472  15.570 -0.2111 -0.6193  0.5002
 1056TIP3    H224660   4.269   4.615  15.604 -2.4286 -0.9848  0.1005
 1057TIP3   OH224661   5.389   6.158   0.164 -0.5367  0.0822 -0.2191
 1057TIP3    H124662   5.373   6.178   0.072 -0.5669  0.0979 -0.2103
 1057TIP3    H224663   5.344   6.227   0.212  1.7134  1.6887 -0.2345
 1058TIP3   OH224664   4.302   0.452  15.909  0.7472  0.2827 -0.4272
 1058TIP3    H124665   4.227   0.458  15.850  1.0850  2.4416 -0.7367
 1058TIP3    H224666   4.264   0.454  15.997  0.3904  0.1950 -0.5770
 1059TIP3   OH224667   2.405   6.295  15.305  0.4046  0.0598 -0.2860
 1059TIP3    H124668   2.467   6.348  15.254  0.1964  1.5975  0.9638
 1059TIP3    H224669   2.412   6.330  15.394  1.0322 -2.7736  0.8788
 1060TIP3   OH224670   6.610   5.907  13.210  0.3186 -0.0341 -0.0884
 1060TIP3    H124671   6.627   5.966  13.283  1.2569 -0.8468  0.3822
 1060TIP3    H224672   6.625   5.820  13.246  1.3670 -0.4264 -1.3989
 1061TIP3   OH224673   4.790   2.668  13.969  0.3625  0.3470 -0.3530
 1061TIP3    H124674   4.696   2.666  13.988 -0.1511 -0.4259 -2.7456
 1061TIP3    H224675   4.820   2.749  14.011 -1.3604  0.6687  0.3893
 1062TIP3   OH224676   2.943   1.200   2.534  0.9742  0.2801 -0.0965
 1062TIP3    H124677   2.909   1.275   2.582 -0.2657  0.5170 -1.2738
 1062TIP3    H224678   2.932   1.126   2.593 -0.0461  0.6452  0.1812
 1063TIP3   OH224679   1.771   4.665  15.127  0.2771  0.0717 -0.6793
 1063TIP3    H124680   1.714   4.637  15.199  0.9998 -2.2256 -0.9040
 1063TIP3    H224681   1.850   4.697  15.171 -0.4415  1.5651 -0.4182
 1064TIP3   OH224682   0.453   4.274  14.961 -0.1793 -0.5784 -0.2894
 1064TIP3    H124683   0.470   4.263  15.054 -0.5998 -1.3248 -0.2936
 1064TIP3    H224684   0.448   4.185  14.926 -3.6305 -0.4846 -0.3656
 1065TIP3   OH224685   5.541   3.440   2.645  0.0193 -0.5567  0.3538
 1065TIP3    H124686   5.448   3.464   2.643  0.1512 -0.0183 -1.5935
 1065TIP3    H224687   5.583   3.511   2.693 -0.3175  0.3289 -0.6227
 1066TIP3   OH224688   4.202   4.838   2.080  0.1413 -0.2243 -0.1859
 1066TIP3    H124689   4.190   4.841   2.175 -0.3966 -1.9524 -0.1570
 1066TIP3    H224690   4.116   4.862   2.045 -0.2731 -1.5643 -0.1652
 1067TIP3   OH224691   3.611   1.428  14.231  0.2082 -0.3135  0.3966
 1067TIP3    H124692   3.644   1.493  14.169  0.1785  0.5388  1.2445
 1067TIP3    H224693   3.541   1.383  14.184 -0.3183  0.8148  0.0424
 1068TIP3   OH224694   3.711   5.833  12.758 -0.3083 -0.1244 -0.0499
 1068TIP3    H124695   3.702   5.923  12.726 -3.5598  0.4852  2.1383
 1068TIP3    H224696   3.687   5.778  12.683  0.7031  0.8260 -1.1093
 1069TIP3   OH224697   1.698   1.227  16.134 -0.6922 -0.5978 -0.5271
 1069TIP3    H124698   1.748   1.146  16.145  0.8876  0.3264 -0.5273
 1069TIP3    H224699   1.765   1.294  16.121 -1.9180  0.8814  0.5422
 1070TIP3   OH224700   3.148   4.706  10.753 -0.2831  0.0008 -0.2254
 1070TIP3    H124701   3.060   4.669  10.763 -1.4452  2.5707 -0.1587
 1070TIP3    H224702   3.139   4.768  10.680  0.3652  3.2128  2.2424
 1071TIP3   OH224703   6.106   4.377   4.679 -0.2537 -0.1950  0.1166
 1071TIP3    H124704   6.065   4.296   4.709 -0.6716  0.0317  0.1682
 1071TIP3    H224705   6.164   4.402   4.751 -0.8268  0.0445  0.4993
 1072TIP3   OH224706   2.278   1.609  16.630 -0.3224  0.2060 -0.6119
 1072TIP3    H124707   2.200   1.647  16.589 -0.1138  0.7074 -0.5613
 1072TIP3    H224708   2.244   1.555  16.701 -0.6422  0.0912 -0.8526
 1073TIP3   OH224709   2.107   1.259   1.421  0.3107 -0.7417 -0.1555
 1073TIP3    H124710   2.067   1.173   1.434 -0.3738 -0.4652 -0.3741
 1073TIP3    H224711   2.196   1.250   1.455  0.6331 -1.8781 -1.2110
 1074TIP3   OH224712   3.128   3.474   3.467 -0.4498 -0.0419  0.0988
 1074TIP3    H124713   3.191   3.473   3.539  0.5065  1.2404 -0.6883
 1074TIP3    H224714   3.044   3.492   3.509  0.0119  0.1961  0.9419
 1075TIP3   OH224715   6.731   5.335   3.417  0.3038  0.1426  0.3252
 1075TIP3    H124716   6.824   5.352   3.430  0.6635 -0.8669 -0.8358
 1075TIP3    H224717   6.718   5.336   3.322 -1.2832  2.2649  0.4667
 1076TIP3   OH224718   5.431   2.410  14.496 -0.0292 -0.2011  0.5461
 1076TIP3    H124719   5.444   2.494  14.454  0.9077 -0.5623  0.0784
 1076TIP3    H224720   5.512   2.362  14.479 -0.3368 -1.0040  1.2513
 1077TIP3   OH224721   1.117   0.299   1.934  0.2759  0.7108 -0.4496
 1077TIP3    H124722   1.049   0.302   2.001 -1.8680 -1.6886 -2.2933
 1077TIP3    H224723   1.184   0.240   1.970 -0.2502  0.4313  0.0957
 1078TIP3   OH224724   0.651   3.635  11.379  0.9061 -0.5227 -0.2437
 1078TIP3    H124725   0.612   3.617  11.464 -1.4889 -0.2480 -1.2107
 1078TIP3    H224726   0.630   3.559  11.326 -1.1142  0.9252 -1.6669
 1079TIP3   OH224727   0.849   3.597   4.773 -0.2075 -0.1190 -0.2264
 1079TIP3    H124728   0.831   3.665   4.708 -2.9610 -3.1805 -3.0814
 1079TIP3    H224729   0.943   3.602   4.788 -0.2694  4.3884  0.1034
 1080TIP3   OH224730   6.652   1.891   3.670  0.3021 -0.3603 -0.2699
 1080TIP3    H124731   6.680   1.850   3.752  1.6747  1.5936  0.3092
 1080TIP3    H224732   6.594   1.827   3.630 -0.1331 -1.5231  2.0555
 1081TIP3   OH224733   2.729   0.470  14.660 -0.0005 -0.0314  0.2464
 1081TIP3    H124734   2.633   0.470  14.663 -0.0030  1.6150  0.6828
 1081TIP3    H224735   2.756   0.478  14.751  0.5078  1.8007 -0.0382
 1082TIP3   OH224736   0.243   2.925  14.982 -0.0275  0.2085  0.0149
 1082TIP3    H124737   0.339   2.922  14.973 -0.0082 -0.1740  0.3158
 1082TIP3    H224738   0.210   2.880  14.904  0.0875 -1.1569  0.7111
 1083TIP3   OH224739   6.109   0.579  15.895  0.0641 -0.0740 -0.1504
 1083TIP3    H124740   6.064   0.659  15.924 -0.2423 -0.4009  0.3006
 1083TIP3    H224741   6.199   0.590  15.925 -0.3565 -0.6227  1.4359
 1084TIP3   OH224742   2.563   6.372   2.524  0.6005 -0.3116 -0.8848
 1084TIP3    H124743   2.611   6.289   2.527 -0.4835 -0.9428  0.5605
 1084TIP3    H224744   2.585   6.410   2.439  2.9187 -0.9688 -0.6465
 1085TIP3   OH224745   6.622   2.095   3.405 -0.0522 -0.1895 -0.3490
 1085TIP3    H124746   6.620   2.029   3.335 -0.8547 -0.7925  0.2228
 1085TIP3    H224747   6.600   2.046   3.485 -3.6347  1.1813 -0.2831
 1086TIP3   OH224748   1.182   0.460  16.721  0.1150  0.4231  0.3376
 1086TIP3    H124749   1.273   0.430  16.714  0.3628  1.4013 -1.2003
 1086TIP3    H224750   1.167   0.470  16.815  0.8875 -1.7842  0.7592
 1087TIP3   OH224751   5.665   0.959  15.044  0.5052 -0.2347 -0.3664
 1087TIP3    H124752   5.622   0.971  14.960  1.6265  1.9210 -0.6931
 1087TIP3    H224753   5.758   0.948  15.022  0.5215 -2.5090  0.4650
 1088TIP3   OH224754   3.317   3.709  16.836  0.2648 -0.2132 -0.4718
 1088TIP3    H124755   3.347   3.647  16.903 -1.4547 -0.5876 -0.0212
 1088TIP3    H224756   3.330   3.795  16.876  3.0330 -0.1667 -1.2483
 1089TIP3   OH224757   6.074   4.685  15.994 -0.1875  0.1827  0.7528
 1089TIP3    H124758   6.060   4.773  15.959 -0.9234  0.0609  0.7313
 1089TIP3    H224759   6.110   4.699  16.082 -0.0929  0.4965  0.6645
 1090TIP3   OH224760   3.926   5.290  13.698 -0.0052 -0.1660  0.1569
 1090TIP3    H124761   3.839   5.272  13.662  0.4744  0.7840 -1.5908
 1090TIP3    H224762   3.977   5.212  13.676 -0.8037 -1.5929  2.8633
 1091TIP3   OH224763   6.121   4.130   0.234  0.0524  0.2631 -0.0835
 1091TIP3    H124764   6.186   4.128   0.163  0.9460  4.0294  0.4038
 1091TIP3    H224765   6.148   4.059   0.292  3.0122  0.8369 -0.5733
 1092TIP3   OH224766   1.683   0.095  10.967  0.2595  0.5294  0.3495
 1092TIP3    H124767   1.777   0.100  10.950  0.3514 -0.9904  0.2999
 1092TIP3    H224768   1.676   0.061  11.056 -0.2684  2.0622  0.9404
 1093TIP3   OH224769   5.107   1.658   5.214  0.0276  0.0931 -0.1879
 1093TIP3    H124770   5.134   1.734   5.162 -0.1077  0.4084  0.1996
 1093TIP3    H224771   5.122   1.584   5.156  0.9831  0.3305 -0.2689
 1094TIP3   OH224772   5.528   4.940  11.416 -0.0245  0.2471  0.0072
 1094TIP3    H124773   5.585   4.903  11.483  0.2454  0.9240  0.1618
 1094TIP3    H224774   5.588   4.979  11.353 -0.2816  2.4152  0.9907
 1095TIP3   OH224775   1.920   2.112   3.834 -0.4195 -0.2458  0.2745
 1095TIP3    H124776   1.915   2.058   3.755 -0.0160 -0.5218  0.4304
 1095TIP3    H224777   1.829   2.131   3.857 -0.5230  0.8003 -0.9021
 1096TIP3   OH224778   5.947   2.428  14.970  0.6620  0.3268  0.1159
 1096TIP3    H124779   6.011   2.392  14.908 -0.4715 -0.5098 -0.6066
 1096TIP3    H224780   5.917   2.509  14.928  0.6915  0.3264  0.0934
 1097TIP3   OH224781   1.383   3.275  17.104 -0.2652 -0.5063  0.0601
 1097TIP3    H124782   1.455   3.288  17.164 -0.8373 -0.5282  0.7691
 1097TIP3    H224783   1.415   3.209  17.042  0.7599  0.4070 -0.4071
 1098TIP3   OH224784   5.111   6.828  15.371 -0.4216 -0.5360  0.2341
 1098TIP3    H124785   5.048   6.894  15.401 -0.0543 -0.0508 -0.0429
 1098TIP3    H224786   5.173   6.820  15.443 -0.1399 -0.1521  0.0358
 1099TIP3   OH224787   0.099   2.701  15.219 -0.4397 -0.1738  0.4056
 1099TIP3    H124788   0.150   2.621  15.235  2.5504  1.5129  0.0135
 1099TIP3    H224789   0.064   2.725  15.305 -0.5731 -1.3497  0.6985
 1100TIP3   OH224790   6.777   0.067   4.960  0.4231  1.0422 -0.0124
 1100TIP3    H124791   6.832   0.019   5.022  1.8416  1.6050 -0.7899
 1100TIP3    H224792   6.828   0.068   4.879 -0.7989  1.4894 -0.8004
 1101TIP3   OH224793   6.632   3.475  11.493 -0.8136 -0.0710 -0.3838
 1101TIP3    H124794   6.650   3.542  11.427 -2.8535  1.3520  0.3971
 1101TIP3    H224795   6.705   3.414  11.486  0.7067  1.7888 -1.7166
 1102TIP3   OH224796   4.053   3.450  16.875 -0.0104  0.1768  0.0829
 1102TIP3    H124797   4.068   3.355  16.877  1.7582  0.3849 -1.2649
 1102TIP3    H224798   4.014   3.467  16.789 -0.3687  0.6944  0.3403
 1103TIP3   OH224799   2.129   5.530  14.699  0.0490  0.0924  0.4794
 1103TIP3    H124800   2.065   5.462  14.722  0.3396 -1.4262 -2.6249
 1103TIP3    H224801   2.087   5.578  14.628  1.5200  0.4323 -0.1965
 1104TIP3   OH224802   5.724   4.984  11.233 -0.1124  0.0020  0.3471
 1104TIP3    H124803   5.812   4.987  11.270 -0.0053 -1.5334  0.2720
 1104TIP3    H224804   5.736   4.948  11.145 -0.7073  0.7217 -0.0364
 1105TIP3   OH224805   3.498   3.725   2.468 -0.2827  0.0655  0.1652
 1105TIP3    H124806   3.505   3.756   2.559  0.5514 -1.6032  0.7168
 1105TIP3    H224807   3.437   3.785   2.427 -0.2040  1.2392  1.6732
 1106TIP3   OH224808   3.879   0.766  16.121  0.1677 -0.6598 -0.5261
 1106TIP3    H124809   3.791   0.796  16.143 -0.3854 -1.6194 -1.3797
 1106TIP3    H224810   3.893   0.795  16.031  1.5004  1.1607  0.2048
 1107TIP3   OH224811   1.608   5.000  14.277  0.1822  0.0008  0.3881
 1107TIP3    H124812   1.557   5.034  14.203 -1.3976 -0.4632  1.2167
 1107TIP3    H224813   1.679   4.951  14.236 -0.0090  0.6761 -0.8171
 1108TIP3   OH224814   1.411   0.046   1.095  0.7364 -0.3631  0.1105
 1108TIP3    H124815   1.454   0.029   1.179 -0.2856  0.2102  0.7633
 1108TIP3    H224816   1.476   0.096   1.045  1.5720 -1.2026  0.3281
 1109TIP3   OH224817   6.018   0.628  14.131 -0.4776  0.0638  0.3286
 1109TIP3    H124818   6.056   0.715  14.135  1.3152 -0.7262  1.4123
 1109TIP3    H224819   6.080   0.577  14.078 -0.7505 -0.8993  0.9109
 1110TIP3   OH224820   5.265   4.856  17.087  0.0297 -0.1493  0.0316
 1110TIP3    H124821   5.340   4.911  17.066  1.1711 -1.7259 -0.1850
 1110TIP3    H224822   5.190   4.915  17.081  1.2540  1.5441  0.5372
 1111TIP3   OH224823   0.705   6.770  16.520  0.2902 -0.1861 -0.3323
 1111TIP3    H124824   0.761   6.753  16.596 -0.1018  0.7528  0.1875
 1111TIP3    H224825   0.617   6.749  16.550  0.0788  0.6097 -0.3775
 1112TIP3   OH224826   1.980   2.429  16.648  0.4211 -0.6883  0.5789
 1112TIP3    H124827   1.946   2.479  16.574 -0.9503  0.0073  1.6396
 1112TIP3    H224828   1.907   2.373  16.675  1.8848 -3.2448 -0.5072
 1113TIP3   OH224829   5.957   4.207  14.014 -0.5812 -0.8457  0.4411
 1113TIP3    H124830   5.932   4.140  14.077 -1.0189 -1.3623 -0.2671
 1113TIP3    H224831   5.880   4.218  13.958 -1.9229  2.7954  2.6302
 1114TIP3   OH224832   6.527   4.342   4.329  0.5346 -0.1982  0.4720
 1114TIP3    H124833   6.479   4.283   4.272 -0.7640  0.2263  1.0876
 1114TIP3    H224834   6.459   4.393   4.374  1.5535  0.3004  1.5063
 1115TIP3   OH224835   1.868   0.499  15.350  0.0634  0.3353  0.1060
 1115TIP3    H124836   1.811   0.488  15.275 -1.3896  0.7338  1.1144
 1115TIP3    H224837   1.906   0.586  15.339  0.7276 -0.0468 -0.7176
 1116TIP3   OH224838   2.201   6.656   4.938  0.8141  0.1108  0.6368
 1116TIP3    H124839   2.137   6.633   5.006  0.9436 -2.4119 -0.0022
 1116TIP3    H224840   2.158   6.631   4.856  1.4808  1.1973 -0.0613
 1117TIP3   OH224841   4.131   0.720  15.072  0.7048 -0.5742  0.1224
 1117TIP3    H124842   4.126   0.734  15.167  1.1659 -3.6091  0.7086
 1117TIP3    H224843   4.088   0.796  15.034 -0.4143  0.2555  2.8151
 1118TIP3   OH224844   3.118   3.544  12.727  0.7346  0.0959  0.2920
 1118TIP3    H124845   3.208   3.553  12.697  0.4619  2.7626  0.0749
 1118TIP3    H224846   3.071   3.511  12.650  1.3176 -0.2749  0.0820
 1119TIP3   OH224847   2.527   5.569  15.254 -0.1676  0.1264  0.1587
 1119TIP3    H124848   2.529   5.517  15.335  1.4194  1.1198  0.8131
 1119TIP3    H224849   2.473   5.645  15.275 -0.6934 -0.1707 -0.0976
 1120TIP3   OH224850   2.659   2.134  15.565  0.4695 -0.5792 -0.0816
 1120TIP3    H124851   2.731   2.165  15.511 -0.5112  0.5762 -0.7801
 1120TIP3    H224852   2.701   2.093  15.641  1.8530  0.8490 -0.0262
 1121TIP3   OH224853   5.862   5.669  14.025  0.6182 -0.2548 -0.2454
 1121TIP3    H124854   5.853   5.764  14.025  1.1090 -0.1642 -2.1254
 1121TIP3    H224855   5.956   5.653  14.027  0.5316 -0.7380  0.6633
 1122TIP3   OH224856   0.730   3.557  13.942  0.0601  0.4962  0.3487
 1122TIP3    H124857   0.661   3.623  13.936 -0.0800  0.3675  0.5317
 1122TIP3    H224858   0.731   3.531  14.035  0.3902  0.5370  0.3594
 1123TIP3   OH224859   3.475   5.448   5.005 -0.0284  0.3321 -0.5320
 1123TIP3    H124860   3.464   5.460   5.099  1.4132 -0.3948 -0.2473
 1123TIP3    H224861   3.471   5.537   4.969  2.5737  1.0218  0.6290
 1124TIP3   OH224862   6.547   6.819  15.942 -0.2046  0.1931 -0.1998
 1124TIP3    H124863   6.525   6.758  15.872 -0.1562 -1.2748  1.0340
 1124TIP3    H224864   6.640   6.840  15.927  0.0198 -0.7237 -0.1446
 1125TIP3   OH224865   3.419   1.279   5.087 -0.0990 -0.2208  0.1731
 1125TIP3    H124866   3.476   1.202   5.087 -1.3752 -1.2116 -1.0581
 1125TIP3    H224867   3.331   1.244   5.076 -0.7509  1.3855  0.0553
 1126TIP3   OH224868   4.519   6.731   4.135  0.3088  0.6359  0.4789
 1126TIP3    H124869   4.447   6.778   4.092 -0.2612 -0.6440 -0.0084
 1126TIP3    H224870   4.517   6.763   4.225 -1.5967 -0.1546  0.7657
 1127TIP3   OH224871   4.493   3.581  15.595 -0.1180  0.5202 -0.0244
 1127TIP3    H124872   4.477   3.664  15.551 -3.2617  0.8570  1.5299
 1127TIP3    H224873   4.416   3.528  15.576  0.9395 -1.3547  0.6271
 1128TIP3   OH224874   2.777   4.764   0.956 -0.1665 -0.1235 -0.4615
 1128TIP3    H124875   2.779   4.797   1.046 -2.1978  1.4129 -0.9190
 1128TIP3    H224876   2.823   4.831   0.905 -1.0339  0.1730 -0.8686
 1129TIP3   OH224877   4.003   3.103   5.612  0.2362  0.2328  0.0532
 1129TIP3    H124878   4.043   3.016   5.614  0.4067  0.2831 -0.8482
 1129TIP3    H224879   3.918   3.090   5.571  0.2386  0.4797 -0.0356
 1130TIP3   OH224880   1.200   4.795   2.636 -0.4070  0.2535 -0.5548
 1130TIP3    H124881   1.251   4.716   2.654 -1.4185  0.3169  3.7623
 1130TIP3    H224882   1.265   4.866   2.636  0.0425 -0.1434  0.1754
 1131TIP3   OH224883   3.885   5.059   2.943  0.1884  0.5190 -0.1923
 1131TIP3    H124884   3.940   5.131   2.972 -1.2422  1.7880 -0.5128
 1131TIP3    H224885   3.905   5.050   2.849  0.5645  0.2903 -0.0947
 1132TIP3   OH224886   2.724   3.969  16.683 -0.0960 -1.0257  0.1785
 1132TIP3    H124887   2.702   4.025  16.757  1.5484 -0.0080 -0.0284
 1132TIP3    H224888   2.678   4.008  16.609 -0.0971 -0.7964  0.2977
 1133TIP3   OH224889   3.796   6.710  14.498  0.9991  0.3330 -1.0389
 1133TIP3    H124890   3.817   6.738  14.587 -0.0713 -2.9718  0.4274
 1133TIP3    H224891   3.713   6.753  14.479  1.5817  1.6253 -0.7747
 1134TIP3   OH224892   3.441   6.807   0.780  0.3670  0.2873 -0.3005
 1134TIP3    H124893   3.462   6.775   0.692  0.1019 -0.7368 -0.0043
 1134TIP3    H224894   3.526   6.811   0.825  0.3397 -0.5948 -0.1568
 1135TIP3   OH224895   5.915   3.051   0.509  0.0929  0.2025  0.0640
 1135TIP3    H124896   5.884   3.043   0.599  0.8010 -0.6415  0.2554
 1135TIP3    H224897   5.923   3.145   0.494  0.9119  0.3405  1.2218
 1136TIP3   OH224898   4.055   1.743  15.132 -0.3597 -0.2469 -0.3124
 1136TIP3    H124899   4.115   1.671  15.113  0.7764  0.7620 -0.6694
 1136TIP3    H224900   3.987   1.736  15.064 -0.2698 -0.9789 -0.3358
 1137TIP3   OH224901   5.383   4.346   4.355 -1.3389 -0.1833 -0.3272
 1137TIP3    H124902   5.306   4.303   4.393 -0.0473 -1.1215  1.3517
 1137TIP3    H224903   5.378   4.436   4.386 -1.2851 -0.4713  0.5375
 1138TIP3   OH224904   1.299   2.516   2.867  0.2450 -0.5661 -0.0717
 1138TIP3    H124905   1.258   2.476   2.791 -0.8878 -1.6950  1.0884
 1138TIP3    H224906   1.232   2.574   2.903  0.8274  0.0867 -0.0105
 1139TIP3   OH224907   6.440   0.311  13.003  0.3177  0.0703 -0.0379
 1139TIP3    H124908   6.349   0.338  13.011 -0.4184 -1.7508 -1.5732
 1139TIP3    H224909   6.488   0.370  13.061 -1.7534  1.4131  0.3941
 1140TIP3   OH224910   3.459   0.519  17.068 -0.0161  0.3375 -0.2664
 1140TIP3    H124911   3.408   0.578  17.124  0.1906  1.6960 -1.4587
 1140TIP3    H224912   3.418   0.525  16.982 -0.0238 -1.3336 -0.4251
 1141TIP3   OH224913   0.593   3.887   3.990 -0.4381  0.0757  0.4221
 1141TIP3    H124914   0.674   3.859   4.032  1.0613 -1.5404 -3.1015
 1141TIP3    H224915   0.601   3.983   3.983  0.5378  0.0698  1.2530
 1142TIP3   OH224916   6.656   4.320  11.911 -0.1282  0.0717  0.0908
 1142TIP3    H124917   6.622   4.395  11.863  0.9350 -0.4586 -1.5870
 1142TIP3    H224918   6.751   4.326  11.902  0.1756  0.2120  2.6273
 1143TIP3   OH224919   3.695   4.056   2.458  0.3766  0.7806  0.0473
 1143TIP3    H124920   3.684   4.138   2.410 -3.0181  0.6227  0.3530
 1143TIP3    H224921   3.670   3.988   2.396  1.0397  0.1256  0.4745
 1144TIP3   OH224922   2.775   2.651  16.838 -0.3633 -0.1557 -0.3162
 1144TIP3    H124923   2.815   2.695  16.763  0.7193 -1.4022 -0.5094
 1144TIP3    H224924   2.703   2.599  16.800 -0.1575 -0.3664 -0.4194
 1145TIP3   OH224925   5.841   3.674  11.568  0.0346  0.1613 -0.4127
 1145TIP3    H124926   5.797   3.725  11.500 -0.5703  1.9509  1.2072
 1145TIP3    H224927   5.771   3.647  11.627  0.6694 -0.2405  0.1760
 1146TIP3   OH224928   6.227   3.133  14.450 -0.6296  0.5921  0.1334
 1146TIP3    H124929   6.240   3.137  14.355 -1.3601  4.0122  0.0602
 1146TIP3    H224930   6.299   3.184  14.487 -0.2142 -0.8860  1.5066
 1147TIP3   OH224931   5.659   1.027  11.950 -0.0982  0.1697  0.0029
 1147TIP3    H124932   5.653   0.996  12.041  0.2727  0.5173  0.1467
 1147TIP3    H224933   5.747   1.065  11.944 -0.9430  2.2619  0.1568
 1148TIP3   OH224934   4.287   3.281  13.238 -0.7980  0.3650  0.1200
 1148TIP3    H124935   4.316   3.256  13.150  1.7214 -1.2783  1.3158
 1148TIP3    H224936   4.194   3.259  13.240 -0.2536 -2.5235 -1.2049
 1149TIP3   OH224937   4.249   2.776   5.023 -0.0878  0.1193 -0.0456
 1149TIP3    H124938   4.222   2.698   4.974  2.9782 -0.9623 -0.2590
 1149TIP3    H224939   4.282   2.836   4.956 -0.2810  0.6158  0.3041
 1150TIP3   OH224940   0.578   0.700  16.534  0.3400  0.1529 -0.8570
 1150TIP3    H124941   0.618   0.619  16.568  0.3729  1.0442  1.4031
 1150TIP3    H224942   0.487   0.676  16.516 -0.1888 -0.0306  1.6061
 1151TIP3   OH224943   2.360   2.978  13.835  0.4770  0.1228  0.8724
 1151TIP3    H124944   2.371   2.959  13.742 -3.9976 -1.7903  0.5049
 1151TIP3    H224945   2.413   2.912  13.879  0.1401 -1.0275 -0.3697
 1152TIP3   OH224946   2.654   1.787  15.317 -0.4454  0.6970  0.0203
 1152TIP3    H124947   2.731   1.762  15.368  0.5528  0.4733 -1.5263
 1152TIP3    H224948   2.678   1.870  15.275 -0.6276  0.1051 -1.3043
 1153TIP3   OH224949   6.159   1.630  14.086  0.0712  0.1626 -0.2459
 1153TIP3    H124950   6.107   1.706  14.059 -0.8044 -0.3135  0.0501
 1153TIP3    H224951   6.094   1.567  14.118  0.9882  0.4906  2.5178
 1154TIP3   OH224952   5.973   3.707  12.872  0.0091 -0.4441  0.4212
 1154TIP3    H124953   5.943   3.721  12.962 -0.8311 -0.2484  0.1242
 1154TIP3    H224954   6.036   3.778  12.856 -0.3855 -0.0420  0.6219
 1155TIP3   OH224955   4.936   1.330   3.958 -0.0345 -0.2105 -0.5531
 1155TIP3    H124956   4.936   1.234   3.950  0.4292 -0.3509  0.8126
 1155TIP3    H224957   5.012   1.358   3.907 -1.4406 -0.3499 -2.8122
 1156TIP3   OH224958   3.318   4.117  16.050 -0.1721  0.3169 -0.0858
 1156TIP3    H124959   3.392   4.062  16.024 -0.6913  0.3307 -1.6984
 1156TIP3    H224960   3.336   4.202  16.009 -0.4908  0.6836  0.5256
 1157TIP3   OH224961   2.650   0.341   4.614 -0.4335  0.1128 -0.2411
 1157TIP3    H124962   2.586   0.349   4.543  0.2816  1.2290 -0.7898
 1157TIP3    H224963   2.678   0.431   4.631 -0.1871 -0.1930  1.0983
 1158TIP3   OH224964   0.878   6.103   5.021 -0.2377  1.0637 -0.3701
 1158TIP3    H124965   0.974   6.108   5.013 -0.1421  0.1897  0.1101
 1158TIP3    H224966   0.864   6.047   5.096 -1.1371  0.0451 -1.2719
 1159TIP3   OH224967   0.101   3.623  11.566  0.2837  0.1544 -0.0875
 1159TIP3    H124968   0.087   3.541  11.518 -0.3671  0.1411  0.1100
 1159TIP3    H224969   0.134   3.594  11.651 -0.5488  0.0545  0.2078
 1160TIP3   OH224970   0.178   0.487   4.223  0.6093  0.0197 -0.3824
 1160TIP3    H124971   0.182   0.493   4.128  2.3313 -0.1490 -0.3604
 1160TIP3    H224972   0.110   0.549   4.248 -0.4689 -0.5565 -1.7643
 1161TIP3   OH224973   1.607   6.087  12.380 -0.0267 -0.2006 -0.4228
 1161TIP3    H124974   1.697   6.071  12.409  0.7012  0.9355 -1.9247
 1161TIP3    H224975   1.555   6.020  12.425  1.8098 -2.0206 -0.8928
 1162TIP3   OH224976   4.646   1.932   1.483 -0.1716  0.1902 -0.7939
 1162TIP3    H124977   4.706   1.876   1.435  1.3399  2.1735 -1.3470
 1162TIP3    H224978   4.654   1.903   1.574 -1.5465 -2.2535 -1.3588
 1163TIP3   OH224979   3.132   4.376  10.684  0.3057  0.3997  0.1032
 1163TIP3    H124980   3.145   4.342  10.773 -2.6785 -1.8236 -0.1627
 1163TIP3    H224981   3.137   4.298  10.628  0.4981  1.5213 -1.5051
 1164TIP3   OH224982   0.113   0.411  11.758  0.8924 -0.2202 -0.1497
 1164TIP3    H124983   0.124   0.493  11.806  1.1572 -1.0180  1.1855
 1164TIP3    H224984   0.195   0.364  11.771  0.2225 -1.3047  0.2873
 1165TIP3   OH224985   3.257   2.380   4.969  0.8022  0.0704  0.0247
 1165TIP3    H124986   3.191   2.326   5.012  0.4091  0.2891 -0.2954
 1165TIP3    H224987   3.212   2.417   4.893  1.2723  0.2812 -0.1553
 1166TIP3   OH224988   1.102   1.863  11.832  0.5012 -0.0792 -0.3215
 1166TIP3    H124989   1.084   1.817  11.914  0.6030  0.0540 -0.2231
 1166TIP3    H224990   1.190   1.835  11.807 -0.5185 -2.1972 -1.7839
 1167TIP3   OH224991   6.848   6.302   3.686 -0.5327 -0.3322 -0.0554
 1167TIP3    H124992   6.929   6.352   3.693 -0.5151 -0.5603  2.0030
 1167TIP3    H224993   6.848   6.269   3.596  0.1449  2.1343 -1.0410
 1168TIP3   OH224994   4.312   2.788  12.092 -0.3033 -0.0254 -0.5806
 1168TIP3    H124995   4.274   2.780  12.004 -2.2086 -0.2671  0.2217
 1168TIP3    H224996   4.273   2.868  12.127 -1.5847 -1.2689  0.9606
 1169TIP3   OH224997   5.449   3.683  13.147  0.2700  0.1068 -0.2034
 1169TIP3    H124998   5.481   3.630  13.074  0.5012  0.5071 -0.3956
 1169TIP3    H224999   5.513   3.668  13.217  0.2089 -0.0476 -0.1803
 1170TIP3   OH225000   4.624   5.840  13.486  0.3192 -0.4075  0.2229
 1170TIP3    H125001   4.609   5.789  13.406  0.5279  0.4525 -0.3795
 1170TIP3    H225002   4.718   5.831  13.502  0.0501 -1.7296  1.1832
 1171TIP3   OH225003   5.507   4.528  16.783  0.0790 -0.0018  0.1136
 1171TIP3    H125004   5.424   4.570  16.802 -0.1396 -0.6070  0.5319
 1171TIP3    H225005   5.557   4.594  16.735  0.3242  1.2911  2.0211
 1172TIP3   OH225006   6.460   0.439  14.055 -0.2943 -0.0872  0.2151
 1172TIP3    H125007   6.477   0.483  14.139  1.5890 -1.2232  0.4947
 1172TIP3    H225008   6.434   0.350  14.080 -0.0087 -0.3483 -0.3956
 1173TIP3   OH225009   0.354   6.128   2.557  0.4207 -0.0940  0.2968
 1173TIP3    H125010   0.384   6.043   2.526 -0.6896 -0.2108 -0.5199
 1173TIP3    H225011   0.345   6.116   2.652 -1.1369 -1.3872  0.0454
 1174TIP3   OH225012   0.784   3.610   2.443  0.1188 -0.3999  0.2753
 1174TIP3    H125013   0.854   3.589   2.381  0.8100  0.3827  0.7590
 1174TIP3    H225014   0.821   3.587   2.529  0.1175  0.7998  0.6166
 1175TIP3   OH225015   6.298   0.618   3.997  0.3217 -0.4256  0.2732
 1175TIP3    H125016   6.274   0.710   3.984  1.4679 -0.2134 -0.4175
 1175TIP3    H225017   6.377   0.606   3.946  1.7164 -1.1167  2.4379
 1176TIP3   OH225018   5.914   1.452  14.364 -0.3263  0.5249 -0.1965
 1176TIP3    H125019   5.834   1.453  14.416 -1.0461 -0.2347 -1.2419
 1176TIP3    H225020   5.889   1.407  14.283  0.8855  1.2349 -0.9905
 1177TIP3   OH225021   2.858   3.127   3.614  0.0656  0.6268 -0.1614
 1177TIP3    H125022   2.945   3.150   3.647 -0.8094  0.0725  2.7298
 1177TIP3    H225023   2.872   3.047   3.563  1.0675 -0.4509  1.7029
 1178TIP3   OH225024   6.496   4.691  12.227 -0.4899 -0.0996 -0.2508
 1178TIP3    H125025   6.529   4.649  12.147 -3.0422 -3.3089  0.1411
 1178TIP3    H225026   6.409   4.724  12.202 -0.4760  0.7048  0.7225
 1179TIP3   OH225027   2.841   1.243   3.749  0.8510  0.0333  0.7660
 1179TIP3    H125028   2.817   1.196   3.669 -0.5160 -1.6818  2.1053
 1179TIP3    H225029   2.903   1.310   3.719  0.7473 -0.8261 -1.6440
 1180TIP3   OH225030   1.449   1.571  12.550 -0.4762 -0.2678  0.2698
 1180TIP3    H125031   1.459   1.559  12.644 -1.7896  0.8405  0.5892
 1180TIP3    H225032   1.513   1.639  12.528 -0.9359  0.2812  0.5923
 1181TIP3   OH225033   1.472   1.453   2.477  0.4278 -0.1211 -0.0408
 1181TIP3    H125034   1.495   1.499   2.558  0.6488 -0.5070  0.1178
 1181TIP3    H225035   1.379   1.431   2.488  0.3195  0.2887 -0.1197
 1182TIP3   OH225036   6.274   4.955  10.257  0.1528 -0.4438  0.1892
 1182TIP3    H125037   6.357   4.962  10.304  0.8473 -1.0410 -0.8954
 1182TIP3    H225038   6.220   4.899  10.312  0.5714 -0.2846  0.7708
 1183TIP3   OH225039   6.379   4.652  14.109  0.3353 -0.1263 -0.2454
 1183TIP3    H125040   6.298   4.612  14.139  1.0704 -1.9922 -0.5602
 1183TIP3    H225041   6.443   4.632  14.178  0.7619  0.3965 -0.4785
 1184TIP3   OH225042   6.747   4.920  13.793  0.6221 -0.1317  0.0821
 1184TIP3    H125043   6.704   4.939  13.709  1.5180  1.4564 -0.0593
 1184TIP3    H225044   6.700   4.974  13.856  2.0917  1.3718 -0.0193
 1185TIP3   OH225045   6.089   5.756  14.999 -0.0213  0.2448  0.6698
 1185TIP3    H125046   6.068   5.678  14.949 -0.9520  0.9663 -0.1161
 1185TIP3    H225047   6.145   5.725  15.071 -0.7176 -1.1902  0.6222
 1186TIP3   OH225048   2.804   2.823   5.156 -0.9109  0.3979  0.0596
 1186TIP3    H125049   2.772   2.763   5.089  1.3471  0.7882 -1.4741
 1186TIP3    H225050   2.848   2.767   5.220 -1.1907  0.1890  0.0659
 1187TIP3   OH225051   3.016   1.194  16.099 -0.2691 -0.3546  0.4549
 1187TIP3    H125052   2.972   1.264  16.147  0.2217  0.2128  0.0911
 1187TIP3    H225053   3.016   1.120  16.159  0.3164  0.3346  1.3282
 1188TIP3   OH225054   5.059   6.386   2.195 -0.8965  0.3809  0.6310
 1188TIP3    H125055   5.114   6.406   2.119  0.3035  0.0571  1.3966
 1188TIP3    H225056   4.978   6.352   2.157 -0.3796  0.3764 -0.5102
 1189TIP3   OH225057   5.554   2.048   0.257  0.2702  0.1687 -0.1971
 1189TIP3    H125058   5.487   2.075   0.195  0.7241 -0.3072 -0.9065
 1189TIP3    H225059   5.512   1.979   0.309 -0.2214  0.8054  0.2705
 1190TIP3   OH225060   4.118   2.957   0.340  0.6054 -0.0172 -0.4295
 1190TIP3    H125061   4.214   2.961   0.338  0.6242 -0.3688 -0.2006
 1190TIP3    H225062   4.091   3.001   0.259  0.9510  0.3381 -0.3540
 1191TIP3   OH225063   6.781   4.882   5.573  0.0668  0.0288 -0.1157
 1191TIP3    H125064   6.832   4.801   5.575 -1.5216 -1.0084  0.5368
 1191TIP3    H225065   6.821   4.938   5.639  0.9871 -0.3420 -0.3527
 1192TIP3   OH225066   6.703   1.925   4.238 -0.7831 -0.1816 -0.4569
 1192TIP3    H125067   6.621   1.963   4.206 -0.3379  0.9239 -0.3265
 1192TIP3    H225068   6.683   1.900   4.328 -0.9942  0.0306 -0.4415
 1193TIP3   OH225069   2.283   4.187  13.977 -0.3191  0.1881  0.6259
 1193TIP3    H125070   2.188   4.184  13.965 -0.3279  0.8246  0.5110
 1193TIP3    H225071   2.314   4.248  13.910  0.0787  0.6022  1.1711
 1194TIP3   OH225072   4.719   2.479  16.561 -0.1477 -0.1477  0.3288
 1194TIP3    H125073   4.689   2.521  16.641 -0.5066 -0.5840  0.4288
 1194TIP3    H225074   4.781   2.541  16.523 -1.8615  1.2380 -0.3842
 1195TIP3   OH225075   0.251   1.586  15.147 -0.3286  0.6122  0.1588
 1195TIP3    H125076   0.229   1.617  15.235 -0.6014  1.4145 -0.1810
 1195TIP3    H225077   0.286   1.664  15.103  1.9192 -0.2815  0.2412
 1196TIP3   OH225078   0.529   4.491   5.168  0.1644  0.0715 -0.2813
 1196TIP3    H125079   0.584   4.506   5.244  0.0792 -0.2982 -0.1452
 1196TIP3    H225080   0.586   4.506   5.093  0.9640 -2.0640 -0.1624
 1197TIP3   OH225081   1.302   1.362   3.311 -0.2828 -0.5511  0.6077
 1197TIP3    H125082   1.385   1.317   3.293  0.5286  0.8367  0.7479
 1197TIP3    H225083   1.325   1.454   3.317 -2.1199  0.1118 -1.1426
 1198TIP3   OH225084   3.299   4.336   2.449 -0.0965 -0.3760 -0.5400
 1198TIP3    H125085   3.327   4.334   2.541 -1.5057  1.1101 -0.0111
 1198TIP3    H225086   3.238   4.262   2.441 -0.1239 -0.3919 -0.2116
 1199TIP3   OH225087   6.364   1.837   1.362  0.1176 -0.1764 -0.3235
 1199TIP3    H125088   6.320   1.912   1.321 -1.0567 -0.3829  0.4886
 1199TIP3    H225089   6.446   1.873   1.395 -1.1981  1.2726  1.6578
 1200TIP3   OH225090   1.103   5.927  11.777  0.0678 -0.7620  0.1980
 1200TIP3    H125091   1.138   5.844  11.745  1.8321  0.2159 -0.4978
 1200TIP3    H225092   1.177   5.987  11.775 -1.3068  0.9959  0.1729
 1201TIP3   OH225093   6.695   4.287   5.440  0.0524  0.2331  0.5782
 1201TIP3    H125094   6.612   4.246   5.465 -0.1662  0.3233  0.0127
 1201TIP3    H225095   6.751   4.277   5.517 -0.6012  0.4961  1.0987
 1202TIP3   OH225096   4.568   2.640   2.675  0.0828 -0.0134 -0.1594
 1202TIP3    H125097   4.496   2.591   2.635  0.1086 -0.1479 -0.0429
 1202TIP3    H225098   4.547   2.639   2.769 -0.2679  0.7666 -0.2241
 1203TIP3   OH225099   3.409   1.561  12.629  0.1777 -0.3108 -0.3497
 1203TIP3    H125100   3.503   1.554  12.642  0.2093 -0.6426 -0.7400
 1203TIP3    H225101   3.396   1.644  12.583  0.1799  0.2456  0.6262
 1204TIP3   OH225102   5.777   0.581   4.354  0.3446 -0.0203 -0.4984
 1204TIP3    H125103   5.724   0.524   4.411 -2.5621  0.6619 -2.3159
 1204TIP3    H225104   5.829   0.634   4.415 -0.9084 -0.8853  1.4274
 1205TIP3   OH225105   0.229   4.886  15.770 -0.3074  0.0944  0.2875
 1205TIP3    H125106   0.268   4.967  15.804 -0.0843  0.6302 -1.1795
 1205TIP3    H225107   0.303   4.840  15.730 -0.9360  0.6220 -1.5841
 1206TIP3   OH225108   6.757   4.891  13.210 -0.1332 -0.2683  0.3079
 1206TIP3    H125109   6.769   4.850  13.295  0.4805  1.0559  0.8924
 1206TIP3    H225110   6.676   4.942  13.218  0.3215  0.4689  0.3791
 1207TIP3   OH225111   1.608   0.081   4.975  0.8157 -0.1382 -0.3012
 1207TIP3    H125112   1.654   0.152   5.020 -1.6350  1.5169 -0.2506
 1207TIP3    H225113   1.577   0.025   5.046  0.5319  0.1713 -0.1790
 1208TIP3   OH225114   5.506   2.346  10.879  0.4327 -0.8976 -0.4430
 1208TIP3    H125115   5.491   2.255  10.906 -1.4645 -0.6485 -0.4834
 1208TIP3    H225116   5.451   2.357  10.801  1.1328  0.1136 -0.8171
 1209TIP3   OH225117   1.262   2.453   0.655 -0.4402 -0.3281 -0.4890
 1209TIP3    H125118   1.214   2.394   0.597 -1.0981  0.6082 -0.9264
 1209TIP3    H225119   1.208   2.532   0.658 -0.4604 -0.3777  1.4750
 1210TIP3   OH225120   4.621   0.396   2.930  0.2317 -0.1528  0.3700
 1210TIP3    H125121   4.620   0.464   2.864  1.4519 -0.6636 -0.1934
 1210TIP3    H225122   4.672   0.325   2.892  0.8479 -0.5195  1.7884
 1211TIP3   OH225123   4.719   6.401  15.030 -0.3591 -0.4727 -0.6085
 1211TIP3    H125124   4.684   6.317  15.060 -0.8455  0.3707  1.3760
 1211TIP3    H225125   4.642   6.451  15.004 -0.2112 -0.1351 -0.4001
 1212TIP3   OH225126   3.272   3.637  14.434 -0.1753  0.2614 -0.1886
 1212TIP3    H125127   3.247   3.720  14.474 -1.0006  0.4198 -0.9904
 1212TIP3    H225128   3.193   3.608  14.388  0.9491  0.5863 -2.4796
 1213TIP3   OH225129   5.502   4.688  15.475 -0.1437 -0.4409 -0.3794
 1213TIP3    H125130   5.567   4.618  15.473  0.2248 -0.0926 -0.7398
 1213TIP3    H225131   5.503   4.719  15.566 -2.9516 -3.3246  0.8170
 1214TIP3   OH225132   1.529   5.888   3.575  0.4634 -0.5420  0.5974
 1214TIP3    H125133   1.509   5.825   3.505  1.7175  0.0255 -0.3055
 1214TIP3    H225134   1.444   5.911   3.611 -0.1481 -1.5032 -0.1744
 1215TIP3   OH225135   4.137   4.313   4.546  0.1460 -0.0391 -0.5211
 1215TIP3    H125136   4.191   4.304   4.625 -0.8444  0.7560  0.2817
 1215TIP3    H225137   4.191   4.363   4.486 -0.2931  2.3485  0.9338
 1216TIP3   OH225138   0.106   1.142  12.600 -0.2310 -0.2855 -0.1364
 1216TIP3    H125139   0.183   1.133  12.656  0.1714  0.7967 -0.4866
 1216TIP3    H225140   0.037   1.173  12.658  0.0060  0.1783 -0.0928
 1217TIP3   OH225141   4.748   4.078  16.353 -0.4941 -0.1550 -0.2162
 1217TIP3    H125142   4.663   4.106  16.319  0.2336  0.9746 -1.2305
 1217TIP3    H225143   4.794   4.043  16.277  0.6391  1.0544 -0.1399
 1218TIP3   OH225144   0.142   4.317   6.704 -0.1579 -0.4980 -0.1891
 1218TIP3    H125145   0.166   4.232   6.667  0.2180 -0.3234 -0.3493
 1218TIP3    H225146   0.215   4.339   6.762 -0.4209 -0.4481  0.1271
 1219TIP3   OH225147   2.194   2.007  17.115  0.0050  0.7684 -0.3296
 1219TIP3    H125148   2.232   2.094  17.103 -0.1915  0.7444 -1.2541
 1219TIP3    H225149   2.148   2.012  17.199  0.7575  1.2650  0.0654
 1220TIP3   OH225150   2.892   1.631  12.376 -0.4139 -0.3607 -0.0504
 1220TIP3    H125151   2.877   1.613  12.283 -0.2547  0.8225 -0.3328
 1220TIP3    H225152   2.987   1.639  12.384 -0.2767 -2.2268  0.5969
 1221TIP3   OH225153   1.655   2.340   1.487 -0.2052 -0.2752  0.2404
 1221TIP3    H125154   1.625   2.428   1.512  0.5990  0.8457 -2.3666
 1221TIP3    H225155   1.750   2.350   1.478 -0.0099 -1.6424  0.6024
 1222TIP3   OH225156   3.619   2.349  16.459  0.1701  0.0968 -0.6557
 1222TIP3    H125157   3.594   2.345  16.552  1.9949 -2.3567 -0.1445
 1222TIP3    H225158   3.681   2.421  16.454  3.0179 -2.0058  1.0124
 1223TIP3   OH225159   5.454   0.635   0.100  0.4425 -0.3923 -0.6467
 1223TIP3    H125160   5.429   0.668   0.186 -3.0566  1.4684 -2.1636
 1223TIP3    H225161   5.525   0.693   0.073 -0.2197  0.7786 -0.0092
 1224TIP3   OH225162   4.674   4.263   3.804 -0.0574  0.9544 -0.6461
 1224TIP3    H125163   4.742   4.214   3.851  0.2572  2.4419  0.5100
 1224TIP3    H225164   4.594   4.212   3.817  0.5560 -0.0862 -0.8458
 1225TIP3   OH225165   5.198   3.638  14.577  0.5774 -0.0622 -0.1666
 1225TIP3    H125166   5.149   3.647  14.658  1.6372 -1.9401  0.7541
 1225TIP3    H225167   5.218   3.544  14.572  1.1643  0.1278 -2.2336
 1226TIP3   OH225168   2.300   1.215  16.414  0.0254 -0.0637 -0.1717
 1226TIP3    H125169   2.275   1.193  16.324  3.4133 -1.9863 -0.8229
 1226TIP3    H225170   2.258   1.148  16.468  1.0520 -1.2558 -0.8219
 1227TIP3   OH225171   5.574   6.726   1.832  0.0334 -0.1877  0.8900
 1227TIP3    H125172   5.619   6.697   1.753 -1.0414 -0.7089  0.4492
 1227TIP3    H225173   5.500   6.777   1.801  0.5615  1.0771  1.6198
 1228TIP3   OH225174   1.610   3.912   0.652  0.5763 -0.2696  0.1769
 1228TIP3    H125175   1.558   3.909   0.732  0.6109 -0.3185  0.1972
 1228TIP3    H225176   1.607   4.003   0.624  2.2625  0.1689  1.3235
 1229TIP3   OH225177   5.656   3.815   3.361 -0.2346  0.0611  0.3402
 1229TIP3    H125178   5.693   3.901   3.343  0.7828 -0.5270 -0.5221
 1229TIP3    H225179   5.616   3.789   3.278  1.6520 -1.3173 -0.2167
 1230TIP3   OH225180   4.233   0.709  15.988 -0.0627  0.0449  0.6879
 1230TIP3    H125181   4.310   0.679  15.941  0.7833  1.3169  1.2177
 1230TIP3    H225182   4.201   0.632  16.034  2.3364 -0.0192  2.4340
 1231TIP3   OH225183   4.166   4.988   3.672  0.1113 -0.0234  0.1557
 1231TIP3    H125184   4.164   5.080   3.697  2.2787 -0.0141  0.4741
 1231TIP3    H225185   4.140   4.941   3.751 -0.5266  0.2641  0.1303
 1232TIP3   OH225186   0.453   0.778  13.979  0.1909 -0.4465 -0.3974
 1232TIP3    H125187   0.494   0.751  14.062 -1.3409  2.4992  1.4867
 1232TIP3    H225188   0.504   0.855  13.952 -2.3275  1.7763  0.7017
 1233TIP3   OH225189   6.671   3.020  16.203 -0.4083  0.0620 -0.0459
 1233TIP3    H125190   6.682   2.925  16.196 -1.7532  0.0128 -2.5697
 1233TIP3    H225191   6.663   3.050  16.112 -1.2142  2.4428  0.7396
 1234TIP3   OH225192   4.028   5.045  15.184  0.1750  0.3704  0.6644
 1234TIP3    H125193   4.118   5.013  15.183  0.1271 -0.0786  3.2684
 1234TIP3    H225194   3.977   4.974  15.146  0.8813  0.6425 -0.8741
 1235TIP3   OH225195   6.208   2.186   2.295  0.2708 -0.0365  0.1749
 1235TIP3    H125196   6.183   2.159   2.383  0.4560  0.5278  0.4017
 1235TIP3    H225197   6.236   2.105   2.252  1.2066 -0.1475  0.9745
 1236TIP3   OH225198   6.324   0.129   0.088 -0.0965 -0.2273  0.5147
 1236TIP3    H125199   6.277   0.073   0.026  0.7013 -2.0197  1.4628
 1236TIP3    H225200   6.394   0.168   0.036  0.8541 -2.0722  0.3258
 1237TIP3   OH225201   1.111   0.460  12.645 -0.2770 -0.1517  0.3055
 1237TIP3    H125202   1.087   0.546  12.612 -0.4793 -0.1335  0.5021
 1237TIP3    H225203   1.171   0.477  12.717 -0.2180 -0.1779  0.2625
 1238TIP3   OH225204   4.902   4.358   2.681  0.7288  0.5984  0.4402
 1238TIP3    H125205   4.849   4.376   2.604 -2.7523 -0.2031  2.4338
 1238TIP3    H225206   4.974   4.421   2.676 -0.5275  1.9865 -2.3612
 1239TIP3   OH225207   3.026   1.766   5.511 -0.1050  0.1711  0.4277
 1239TIP3    H125208   2.944   1.742   5.554 -1.5792  1.2726 -1.6136
 1239TIP3    H225209   3.047   1.692   5.454 -1.2497  0.9900 -1.1356
 1240TIP3   OH225210   0.784   5.637  13.187 -0.6434 -0.2390 -0.6870
 1240TIP3    H125211   0.816   5.708  13.131  0.0990  0.3756  0.4839
 1240TIP3    H225212   0.854   5.623  13.251 -1.2533 -1.2778 -0.2221
 1241TIP3   OH225213   6.597   4.803   5.886 -0.6927 -0.5271 -0.2710
 1241TIP3    H125214   6.666   4.855   5.845 -0.2483 -1.6375 -0.9826
 1241TIP3    H225215   6.530   4.867   5.910  0.4795  0.5449  0.2454
 1242TIP3   OH225216   5.509   4.671   4.748  0.4016  0.3732 -0.2293
 1242TIP3    H125217   5.577   4.719   4.700 -0.3616 -0.2112 -1.9718
 1242TIP3    H225218   5.552   4.642   4.828  1.2514  2.8443  0.3103
 1243TIP3   OH225219   4.153   1.528  15.901  0.1311  0.0362 -0.2411
 1243TIP3    H125220   4.212   1.490  15.836  1.1170 -0.1184  0.7135
 1243TIP3    H225221   4.089   1.459  15.918  1.0091 -0.6689  0.3463
 1244TIP3   OH225222   6.048   0.443  15.169 -0.0393  0.5213 -0.1032
 1244TIP3    H125223   6.086   0.358  15.147 -1.0490  0.5597 -2.3289
 1244TIP3    H225224   6.080   0.502  15.101 -0.4415  1.5991  0.6177
 1245TIP3   OH225225   5.535   2.964  16.262 -0.5651  0.8446  0.4491
 1245TIP3    H125226   5.485   2.981  16.342 -1.9072 -0.8242  0.0309
 1245TIP3    H225227   5.525   2.870  16.247  2.7991  0.4018  0.3319
 1246TIP3   OH225228   0.404   0.268  12.395 -0.0096  0.2882  0.1114
 1246TIP3    H125229   0.439   0.354  12.415 -0.1296  0.4840 -0.5186
 1246TIP3    H225230   0.472   0.207  12.424  0.4418  0.6253 -0.2415
 1247TIP3   OH225231   5.335   6.683  16.762  0.0472 -0.2963 -0.0212
 1247TIP3    H125232   5.369   6.772  16.757  0.1951 -0.3510  0.0227
 1247TIP3    H225233   5.240   6.693  16.754  0.1099 -0.1860 -0.6300
 1248TIP3   OH225234   1.675   6.298   3.863  0.7860  0.4976 -0.2078
 1248TIP3    H125235   1.661   6.236   3.791 -0.2241 -0.5562  0.8302
 1248TIP3    H225236   1.760   6.274   3.899  0.1398 -0.7680  0.5747
 1249TIP3   OH225237   3.017   6.531   5.693 -0.0715 -0.2137 -0.2066
 1249TIP3    H125238   3.099   6.506   5.650  0.1435  0.1454 -0.0087
 1249TIP3    H225239   3.044   6.582   5.769 -0.4027 -1.5808  0.8827
 1250TIP3   OH225240   2.614   6.434  12.430 -0.0112 -0.3914 -0.1425
 1250TIP3    H125241   2.627   6.342  12.406  1.4955 -0.0686 -0.6431
 1250TIP3    H225242   2.681   6.451  12.496 -0.6144  0.2156  0.3172
 1251TIP3   OH225243   3.219   4.660  16.635  0.0706  0.6552 -0.4410
 1251TIP3    H125244   3.150   4.703  16.584  0.4239  0.9798 -0.6532
 1251TIP3    H225245   3.235   4.577  16.589  0.2206  0.8396 -0.7239
 1252TIP3   OH225246   4.067   0.600   1.488  0.5141 -0.1013  0.3409
 1252TIP3    H125247   4.041   0.636   1.403 -1.6380  1.5523  1.6080
 1252TIP3    H225248   3.994   0.543   1.513  1.0673 -0.4731  1.1511
 1253TIP3   OH225249   5.439   6.833   1.419 -0.4432  0.0285 -0.1069
 1253TIP3    H125250   5.375   6.823   1.490 -0.9623  0.7391 -0.4739
 1253TIP3    H225251   5.432   6.924   1.392  1.1293  0.2695  0.2192
 1254TIP3   OH225252   4.829   1.399  13.451 -0.5427  0.2430  0.3050
 1254TIP3    H125253   4.887   1.349  13.393  1.2337  1.9281  0.5183
 1254TIP3    H225254   4.876   1.482  13.465 -0.7935 -0.1128  4.2384
 1255TIP3   OH225255   5.791   3.249  11.599  0.3277 -0.0026 -0.1993
 1255TIP3    H125256   5.870   3.240  11.545 -1.4622  0.3259 -3.1161
 1255TIP3    H225257   5.806   3.193  11.674  2.5479 -1.4860 -1.6443
 1256TIP3   OH225258   2.143   2.512  14.809  0.0980 -0.6360 -0.0370
 1256TIP3    H125259   2.075   2.577  14.822  1.1038  0.3037  0.7693
 1256TIP3    H225260   2.169   2.487  14.898 -0.2804 -2.1822 -0.3225
 1257TIP3   OH225261   6.574   5.122  16.542  0.0495 -0.6132  0.1150
 1257TIP3    H125262   6.553   5.055  16.477  0.2351  1.3656 -2.1105
 1257TIP3    H225263   6.669   5.131  16.538  0.1835 -1.1173  1.4203
 1258TIP3   OH225264   0.022   5.343   5.755  0.3564  0.0810  0.3987
 1258TIP3    H125265  -0.003   5.327   5.846 -2.4552 -0.2197 -0.3408
 1258TIP3    H225266   0.036   5.255   5.719 -1.7773 -0.0450 -0.2361
 1259TIP3   OH225267   0.492   4.901  15.442 -0.0172 -0.4033  0.5412
 1259TIP3    H125268   0.417   4.959  15.426  0.6308  0.3792  0.2838
 1259TIP3    H225269   0.467   4.851  15.521 -0.6781  0.0600  0.6355
 1260TIP3   OH225270   2.144   3.789  12.878  0.1450  0.5723  0.3590
 1260TIP3    H125271   2.204   3.842  12.824  1.7187 -0.6782  0.8211
 1260TIP3    H225272   2.133   3.840  12.958 -1.1096  1.7792 -0.5073
 1261TIP3   OH225273   4.313   4.474   5.014  0.4634 -0.1860 -0.4675
 1261TIP3    H125274   4.280   4.563   5.007  1.4767  0.1243 -1.9687
 1261TIP3    H225275   4.261   4.433   5.082 -0.6106  1.2926 -0.3706
 1262TIP3   OH225276   1.113   4.755   3.063  0.0160 -0.3745  0.2466
 1262TIP3    H125277   1.128   4.835   3.114  1.0768  0.1442 -0.8212
 1262TIP3    H225278   1.190   4.701   3.079 -1.3120 -1.8397  2.0496
 1263TIP3   OH225279   4.506   2.585  14.592  0.6892 -0.0901 -0.7791
 1263TIP3    H125280   4.455   2.584  14.512 -0.9516 -0.1206  0.2347
 1263TIP3    H225281   4.450   2.545  14.658  1.2601  1.5732  0.8204
 1264TIP3   OH225282   5.705   4.059   4.496 -0.4321 -0.2467 -0.5988
 1264TIP3    H125283   5.701   4.152   4.517  0.1431 -0.3724  0.1323
 1264TIP3    H225284   5.614   4.028   4.505 -0.6254  0.2369 -0.8580
 1265TIP3   OH225285   3.920   4.122  12.842  0.2628  0.1673 -0.3027
 1265TIP3    H125286   3.900   4.215  12.853  0.1084  0.3656 -1.9298
 1265TIP3    H225287   4.000   4.108  12.892 -0.1551  0.9718  0.6278
 1266TIP3   OH225288   4.882   2.072  14.539  0.0947  0.3848  0.0617
 1266TIP3    H125289   4.958   2.087  14.484  2.1876  2.2616  3.1432
 1266TIP3    H225290   4.817   2.136  14.509  0.1500 -0.3410 -1.7372
 1267TIP3   OH225291   5.554   2.147   3.124 -0.5023  0.3625 -0.0519
 1267TIP3    H125292   5.529   2.229   3.081 -1.6892 -0.4121 -0.8905
 1267TIP3    H225293   5.472   2.100   3.138  0.0435 -0.2401  1.4075
 1268TIP3   OH225294   3.450   4.854   1.013 -0.1778 -0.1904 -0.1207
 1268TIP3    H125295   3.492   4.795   1.075 -0.3703  1.1120  1.2962
 1268TIP3    H225296   3.371   4.807   0.986 -0.4939 -0.4664  1.2226
 1269TIP3   OH225297   6.452   5.711   1.375 -0.7685 -0.5564 -0.0962
 1269TIP3    H125298   6.437   5.759   1.457 -1.1774 -0.1053 -0.4229
 1269TIP3    H225299   6.526   5.653   1.394  1.1780  1.7199 -0.3153
 1270TIP3   OH225300   5.887   6.158  13.201  0.2986  0.2089 -0.2403
 1270TIP3    H125301   5.846   6.174  13.116 -0.1081  0.4654 -0.0015
 1270TIP3    H225302   5.940   6.079  13.188 -1.8093 -1.3383 -0.0617
 1271TIP3   OH225303   0.578   3.751   0.058  0.1235 -0.4642  0.6847
 1271TIP3    H125304   0.536   3.785   0.138 -2.5791  1.0251 -1.2013
 1271TIP3    H225305   0.661   3.797   0.053  0.5744 -0.9398  2.8405
 1272TIP3   OH225306   0.208   6.409  15.571  0.3535  0.2177 -0.3431
 1272TIP3    H125307   0.182   6.318  15.590 -0.3755  0.5263  0.2088
 1272TIP3    H225308   0.193   6.419  15.477 -0.1210 -0.0677 -0.3046
 1273TIP3   OH225309   4.508   1.713   1.979  0.2319  0.3636 -0.0363
 1273TIP3    H125310   4.519   1.627   2.021 -0.5543  0.3635  0.1926
 1273TIP3    H225311   4.413   1.721   1.966  0.5164 -0.6917 -4.0250
 1274TIP3   OH225312   4.331   0.855   2.504  0.2175  0.4672  0.3556
 1274TIP3    H125313   4.386   0.777   2.512  2.1304  1.7704  0.6441
 1274TIP3    H225314   4.312   0.880   2.594 -1.2265 -0.1568  0.2643
 1275TIP3   OH225315   2.093   0.012   4.667  0.1687 -0.0635  0.0260
 1275TIP3    H125316   2.064  -0.077   4.688  2.4197 -0.8343  0.2135
 1275TIP3    H225317   2.066   0.065   4.742  1.2964 -1.2069  1.2920
 1276TIP3   OH225318   6.192   1.023   2.368 -0.3115  0.3135  0.3817
 1276TIP3    H125319   6.217   1.095   2.426  1.2408  0.5298 -0.4958
 1276TIP3    H225320   6.118   1.057   2.317 -0.4059  0.8199  0.8562
 1277TIP3   OH225321   5.962   5.176  14.890 -0.8384  0.4715 -0.0849
 1277TIP3    H125322   5.867   5.188  14.885 -0.8210  0.5238 -0.2694
 1277TIP3    H225323   5.976   5.136  14.977 -1.1636 -0.8516 -0.6109
 1278TIP3   OH225324   3.208   0.993  11.516  0.0792 -0.4068 -0.2096
 1278TIP3    H125325   3.127   0.943  11.525  0.7545 -2.2438 -3.1124
 1278TIP3    H225326   3.195   1.047  11.438  1.9445 -1.5350 -1.3859
 1279TIP3   OH225327   5.648   0.177   2.183 -0.2374  0.1041  0.6444
 1279TIP3    H125328   5.694   0.107   2.137 -0.5371  0.2459  0.1174
 1279TIP3    H225329   5.567   0.189   2.134 -0.3165  0.6304  0.8960
 1280TIP3   OH225330   2.960   2.334   0.213  0.4323 -0.0268 -0.0816
 1280TIP3    H125331   2.897   2.274   0.175 -1.3720  1.3414  0.6341
 1280TIP3    H225332   3.023   2.278   0.258 -1.0148 -1.4018  0.2907
 1281TIP3   OH225333   1.572   3.555  14.744 -0.0909 -0.7624  0.1215
 1281TIP3    H125334   1.483   3.547  14.711  0.2396  0.1027 -1.0441
 1281TIP3    H225335   1.627   3.524  14.673  0.6246  0.6455  0.0247
 1282TIP3   OH225336   0.970   3.809   4.608 -0.0667 -0.4574  0.4927
 1282TIP3    H125337   0.943   3.823   4.517  0.4976  0.1810  0.4053
 1282TIP3    H225338   0.981   3.898   4.643 -2.0499 -0.6486  1.7578
 1283TIP3   OH225339   4.607   4.605  11.706 -0.0802 -0.2861  0.3544
 1283TIP3    H125340   4.562   4.521  11.718 -0.7170 -0.5991 -3.2586
 1283TIP3    H225341   4.693   4.581  11.670  0.1988  0.5701  0.4312
 1284TIP3   OH225342   2.463   3.046  10.939  0.5046  0.5899 -0.2091
 1284TIP3    H125343   2.534   3.005  10.889  0.2618 -1.2299  0.8428
 1284TIP3    H225344   2.387   3.043  10.880  0.4530 -0.6776 -0.1063
 1285TIP3   OH225345   1.585   0.136  14.300 -0.0867 -0.1599  0.3203
 1285TIP3    H125346   1.502   0.181  14.285  0.1141 -0.4935 -2.4704
 1285TIP3    H225347   1.643   0.204  14.335 -0.7073  0.9243 -0.6830
 1286TIP3   OH225348   5.559   6.105  11.363 -0.1838  0.4026  0.1492
 1286TIP3    H125349   5.617   6.074  11.433  0.4221 -0.2315 -0.6032
 1286TIP3    H225350   5.620   6.136  11.295 -0.7603  0.8577 -0.1658
 1287TIP3   OH225351   0.215   2.145  13.160  0.3026  0.1275  0.0338
 1287TIP3    H125352   0.231   2.220  13.103 -0.4513  0.1758 -0.1258
 1287TIP3    H225353   0.298   2.130  13.205  0.4050  1.1709  0.2067
 1288TIP3   OH225354   6.299   3.213   5.401  0.4863 -0.2765  0.6426
 1288TIP3    H125355   6.297   3.210   5.305  2.0796  0.8340  0.5387
 1288TIP3    H225356   6.216   3.254   5.425  0.6594  0.7157 -0.3484
 1289TIP3   OH225357   5.615   2.139  11.168 -0.7169 -0.1154  0.5461
 1289TIP3    H125358   5.706   2.166  11.152 -1.3461  1.2344 -1.0715
 1289TIP3    H225359   5.600   2.161  11.260  0.6133 -0.4495  0.8681
 1290TIP3   OH225360   3.254   1.145   0.269  0.3522  0.7212 -0.1562
 1290TIP3    H125361   3.210   1.158   0.185  0.0744  1.2556  0.0718
 1290TIP3    H225362   3.348   1.149   0.248  0.3159 -0.6115 -0.6733
 1291TIP3   OH225363   2.937   4.987  13.647 -0.0155  0.2063  0.1436
 1291TIP3    H125364   2.970   4.992  13.737 -1.0583 -0.0641  0.5590
 1291TIP3    H225365   2.929   5.078  13.620  0.2284  0.2927  0.3504
 1292TIP3   OH225366   0.919   1.898  10.971 -0.1896  0.0004  0.2306
 1292TIP3    H125367   0.967   1.822  10.939 -0.8568 -0.1140 -0.5550
 1292TIP3    H225368   0.906   1.952  10.893 -1.1623  0.1083  0.4544
 1293TIP3   OH225369   4.102   4.242   0.511 -0.2163 -0.2624  0.0215
 1293TIP3    H125370   4.150   4.175   0.463 -3.2061 -2.1311 -0.5785
 1293TIP3    H225371   4.028   4.264   0.455 -0.5551  1.9219  1.2233
 1294TIP3   OH225372   5.507   0.878   4.469 -0.1770 -0.2303  0.0786
 1294TIP3    H125373   5.549   0.831   4.541 -0.6479  0.1361  0.6059
 1294TIP3    H225374   5.575   0.887   4.402  0.4876  0.1075  0.7972
 1295TIP3   OH225375   0.461   0.387  11.274  0.3685  0.3371  0.4530
 1295TIP3    H125376   0.492   0.345  11.355 -0.1416 -2.0775 -0.5433
 1295TIP3    H225377   0.367   0.371  11.273  0.1152  1.7198  0.1104
 1296TIP3   OH225378   5.839   0.400   4.873  0.3693 -0.2475  0.2497
 1296TIP3    H125379   5.754   0.429   4.906  0.0994 -0.3078 -0.3835
 1296TIP3    H225380   5.882   0.481   4.845  0.3560 -0.2576  0.1989
 1297TIP3   OH225381   3.314   2.195  14.395 -0.0078 -0.1562 -0.1375
 1297TIP3    H125382   3.261   2.117  14.407 -1.6860  0.9370 -0.1640
 1297TIP3    H225383   3.254   2.268  14.412  1.5163  1.1369 -0.0513
 1298TIP3   OH225384   0.344   4.073  11.515  0.0357 -0.4043  0.1466
 1298TIP3    H125385   0.376   4.065  11.425  2.2258 -1.3954  0.9357
 1298TIP3    H225386   0.275   4.007  11.522 -1.0490  0.5286 -1.1045
 1299TIP3   OH225387   1.859   3.380  14.094 -0.3428 -0.4517 -0.3678
 1299TIP3    H125388   1.952   3.366  14.075  0.2832 -0.4599  2.1949
 1299TIP3    H225389   1.830   3.296  14.130 -0.0337  0.7401  3.0572
 1300TIP3   OH225390   1.198   6.295  16.468  0.2111 -0.2672  0.0785
 1300TIP3    H125391   1.266   6.233  16.444  0.9510  0.8172 -0.7393
 1300TIP3    H225392   1.116   6.249  16.453  0.7495 -1.2142  0.0027
 1301TIP3   OH225393   6.479   1.665   4.425 -0.0729  0.2945 -0.8369
 1301TIP3    H125394   6.454   1.752   4.456  0.6522  0.3645 -0.4128
 1301TIP3    H225395   6.575   1.670   4.417  0.0688 -0.7527  0.0896
 1302TIP3   OH225396   2.503   5.565   0.107  0.3029 -0.1824  0.3772
 1302TIP3    H125397   2.555   5.603   0.177  1.6578 -2.0483  0.4642
 1302TIP3    H225398   2.566   5.545   0.038 -0.9096  1.0431 -1.1569
 1303TIP3   OH225399   5.969   3.889  14.837  0.6822  0.2905 -0.7214
 1303TIP3    H125400   5.950   3.964  14.893  0.5437 -0.0414 -0.3198
 1303TIP3    H225401   5.951   3.920  14.748 -0.8990  0.2558 -0.4381
 1304TIP3   OH225402   2.023   4.162   3.413  0.2313 -0.3279 -0.0479
 1304TIP3    H125403   1.990   4.188   3.327 -0.6050  1.4999  0.7740
 1304TIP3    H225404   2.107   4.119   3.394 -0.0520 -0.2090 -1.7809
 1305TIP3   OH225405   4.053   6.050  16.967 -0.1973 -0.2522 -0.0697
 1305TIP3    H125406   3.995   6.060  16.892 -0.7767 -0.2488  0.3800
 1305TIP3    H225407   3.996   6.057  17.043  0.6851  2.2416  0.4649
 1306TIP3   OH225408   2.727   1.743   1.090 -0.0470 -0.5325 -0.1035
 1306TIP3    H125409   2.804   1.788   1.053 -0.3421 -0.9313 -1.2406
 1306TIP3    H225410   2.750   1.729   1.182  0.9203  0.0602 -0.2363
 1307TIP3   OH225411   2.177   3.637   1.020  0.3181  0.6174 -0.4616
 1307TIP3    H125412   2.142   3.557   0.981  0.1311  0.2402  0.4701
 1307TIP3    H225413   2.267   3.615   1.043 -0.8363 -0.6912  3.4544
 1308TIP3   OH225414   3.140   2.600   0.707 -0.2612  0.4978 -0.2029
 1308TIP3    H125415   3.076   2.637   0.647 -0.1175  3.2315  1.1564
 1308TIP3    H225416   3.094   2.593   0.790  0.5592  0.2891  0.2440
 1309TIP3   OH225417   5.296   4.240  14.383  0.5977  0.1653 -0.7792
 1309TIP3    H125418   5.295   4.294  14.304 -1.4142  1.0873 -0.1751
 1309TIP3    H225419   5.259   4.296  14.451 -0.0233 -1.4299  0.2491
 1310TIP3   OH225420   1.134   3.244  11.022  0.0081 -0.1477 -0.5759
 1310TIP3    H125421   1.121   3.254  10.927  0.6299  0.5728 -0.5970
 1310TIP3    H225422   1.207   3.182  11.029  0.6276  0.5757 -0.5926
 1311TIP3   OH225423   0.037   6.226   2.762 -0.0271 -0.1532 -0.0222
 1311TIP3    H125424   0.022   6.310   2.720 -0.1335  0.5064  1.2859
 1311TIP3    H225425   0.087   6.176   2.698 -0.1711  0.8121 -0.9146
 1312TIP3   OH225426   3.512   0.343  15.529 -0.1355 -0.0668 -0.0898
 1312TIP3    H125427   3.490   0.433  15.506 -0.6092  0.2466  1.4653
 1312TIP3    H225428   3.579   0.318  15.466  1.0550  1.8767  0.3099
 1313TIP3   OH225429   2.354   0.126  14.509 -0.5900 -0.5482  0.0098
 1313TIP3    H125430   2.384   0.160  14.593 -1.3103 -0.6674  0.3259
 1313TIP3    H225431   2.426   0.073  14.477  0.9191  1.8494 -0.8654
 1314TIP3   OH225432   3.292   6.551   3.216  0.5186  0.2415 -0.6431
 1314TIP3    H125433   3.234   6.570   3.142  0.9958  1.2519 -0.7886
 1314TIP3    H225434   3.275   6.622   3.278  0.8885 -0.0036 -0.2612
 1315TIP3   OH225435   0.962   3.281  11.464  0.2526 -0.1703  0.6417
 1315TIP3    H125436   0.934   3.250  11.378  1.3916 -0.6552  0.4242
 1315TIP3    H225437   0.900   3.351  11.486 -0.3483 -0.3725 -0.3462
 1316TIP3   OH225438   6.714   5.791  15.398  0.5466 -0.5242 -0.4306
 1316TIP3    H125439   6.740   5.822  15.485 -0.0738  1.6877 -0.9697
 1316TIP3    H225440   6.720   5.696  15.404 -0.7944 -0.5322  2.4819
 1317TIP3   OH225441   0.336   1.349   0.264  0.2250 -0.3439  0.1277
 1317TIP3    H125442   0.401   1.419   0.259 -0.8612  0.7424  0.6803
 1317TIP3    H225443   0.280   1.373   0.338 -0.8856 -1.1571 -0.4162
 1318TIP3   OH225444   6.839   2.534   5.123  0.3668  0.0316 -0.2145
 1318TIP3    H125445   6.891   2.477   5.179 -0.2114  0.0619  0.3619
 1318TIP3    H225446   6.809   2.604   5.181 -0.8637 -0.3419 -0.3789
 1319TIP3   OH225447   6.209   5.980   4.366  0.6552  0.3916 -0.7077
 1319TIP3    H125448   6.118   5.966   4.340  0.9488 -2.0284 -0.6079
 1319TIP3    H225449   6.203   6.029   4.448 -0.5112  0.8658 -1.0590
 1320TIP3   OH225450   0.513   6.006  11.558  0.9835 -0.2730 -0.5387
 1320TIP3    H125451   0.494   5.938  11.494  1.4727  0.1430 -1.1330
 1320TIP3    H225452   0.597   6.042  11.531  0.6536  0.6841 -0.3295
 1321TIP3   OH225453   5.021   0.413   3.426  0.1017  0.2656  0.2882
 1321TIP3    H125454   4.980   0.363   3.496 -1.4350  0.6756 -0.2690
 1321TIP3    H225455   5.061   0.347   3.369  2.8414 -0.0096  2.3188
 1322TIP3   OH225456   2.459   4.598  13.979  0.2369 -0.6118  0.5620
 1322TIP3    H125457   2.373   4.618  13.941  0.0768  0.5475  1.5116
 1322TIP3    H225458   2.442   4.582  14.072  1.1039  0.0008  0.8364
 1323TIP3   OH225459   4.536   0.401   3.818  0.3538  0.7028  0.6015
 1323TIP3    H125460   4.619   0.354   3.831  0.3044 -0.0267 -1.2838
 1323TIP3    H225461   4.562   0.487   3.786  0.4010  1.1068  1.7055
 1324TIP3   OH225462   0.930   3.548  15.246  0.0580  0.6536  0.1727
 1324TIP3    H125463   1.019   3.547  15.281 -0.0636  0.5171  0.4794
 1324TIP3    H225464   0.937   3.503  15.162  0.0555 -0.4517  0.7487
 1325TIP3   OH225465   3.459   5.101   1.667 -0.0384 -0.0805 -0.1635
 1325TIP3    H125466   3.371   5.067   1.648 -0.7457  1.4929  0.1064
 1325TIP3    H225467   3.510   5.080   1.589  0.5908 -4.6858  1.2073
 1326TIP3   OH225468   6.231   6.066  16.036 -0.1844 -0.0926 -0.3228
 1326TIP3    H125469   6.224   6.093  16.127 -0.9394  0.5276 -0.5597
 1326TIP3    H225470   6.234   6.147  15.986  1.5628 -0.3976 -0.7809
 1327TIP3   OH225471   6.850   1.775  16.350  0.2688 -0.9301 -0.0546
 1327TIP3    H125472   6.888   1.720  16.420 -1.9002  0.1133  2.0874
 1327TIP3    H225473   6.756   1.773  16.367 -0.0647  1.7695 -1.1944
 1328TIP3   OH225474   3.662   6.217  13.205  0.7116  0.1599 -0.2905
 1328TIP3    H125475   3.624   6.155  13.143 -1.6755  0.1066  1.0945
 1328TIP3    H225476   3.736   6.171  13.244  1.5200 -0.2303 -2.2090
 1329TIP3   OH225477   2.938   3.115   4.902 -0.1788  0.3192  0.0396
 1329TIP3    H125478   2.892   3.114   4.818  0.5701 -0.6091 -0.3883
 1329TIP3    H225479   2.877   3.156   4.963 -0.9156  0.5941 -0.8605
 1330TIP3   OH225480   5.294   3.159   3.473 -0.3898 -0.9900 -0.1059
 1330TIP3    H125481   5.237   3.188   3.402 -0.8069  0.0213  0.6109
 1330TIP3    H225482   5.289   3.229   3.538  2.9210 -0.0343 -0.6572
 1331TIP3   OH225483   2.522   3.753  13.641  0.1360  0.6408 -0.0207
 1331TIP3    H125484   2.477   3.696  13.579 -1.2889  0.1155  1.4513
 1331TIP3    H225485   2.544   3.831  13.589  0.3292 -0.3728 -1.5436
 1332TIP3   OH225486   1.767   2.322  15.594  0.4524  0.4486  0.3153
 1332TIP3    H125487   1.716   2.301  15.515  1.4546 -1.9067  0.1858
 1332TIP3    H225488   1.753   2.415  15.608  0.1047  0.9164 -2.5540
 1333TIP3   OH225489   0.668   5.668  12.470 -0.4071 -0.3370 -0.2001
 1333TIP3    H125490   0.747   5.645  12.421 -0.3871  1.7418 -1.2435
 1333TIP3    H225491   0.600   5.674  12.404 -0.8332  0.5331  0.2962
 1334TIP3   OH225492   5.520   5.237   1.971  0.4951 -0.4947  0.7543
 1334TIP3    H125493   5.511   5.239   1.876 -0.6562  0.7278  0.8651
 1334TIP3    H225494   5.503   5.327   1.999  0.4357 -0.9176  2.1449
 1335TIP3   OH225495   2.790   4.106   0.569 -0.1750  0.0840 -0.5761
 1335TIP3    H125496   2.711   4.154   0.545  0.2473  0.5759 -1.0201
 1335TIP3    H225497   2.835   4.090   0.486  0.5555  0.4777 -0.2661
 1336TIP3   OH225498   2.943   4.936  11.299 -0.2087  0.0106  0.0578
 1336TIP3    H125499   2.980   4.967  11.382 -1.5488  1.7926  0.0607
 1336TIP3    H225500   2.855   4.906  11.322 -1.0609  1.6688 -0.8501
 1337TIP3   OH225501   3.106   6.668   2.976  0.0687  0.0325  0.0849
 1337TIP3    H125502   3.126   6.599   2.913  1.4523  0.1914  0.3287
 1337TIP3    H225503   3.015   6.651   3.001  0.2055 -1.3556 -0.2754
 1338TIP3   OH225504   5.985   4.002  15.620 -0.1830  0.1287 -0.1687
 1338TIP3    H125505   5.919   3.944  15.656 -1.4045  1.2657 -0.5152
 1338TIP3    H225506   6.003   4.065  15.690  0.0500  0.2239 -0.3116
 1339TIP3   OH225507   4.461   6.634  12.643  0.2597 -0.2700 -0.2901
 1339TIP3    H125508   4.523   6.656  12.712 -1.1171 -0.3260  1.0057
 1339TIP3    H225509   4.400   6.573  12.684  0.9339 -2.4609 -2.3197
 1340TIP3   OH225510   5.194   5.153  14.066  0.4024 -0.5822 -0.0218
 1340TIP3    H125511   5.277   5.111  14.045  1.3431  1.4148 -0.4844
 1340TIP3    H225512   5.208   5.246  14.050 -2.2483 -0.2704 -1.1519
 1341TIP3   OH225513   1.605   1.106   5.906 -0.0413 -0.0233 -0.3560
 1341TIP3    H125514   1.606   1.190   5.951 -0.1122 -0.4914  0.5596
 1341TIP3    H225515   1.611   1.041   5.977 -0.2597 -0.7920 -1.0208
 1342TIP3   OH225516   3.284   0.659  11.537  0.5591 -0.0142  0.5930
 1342TIP3    H125517   3.364   0.667  11.485  0.3576  1.1829  0.4349
 1342TIP3    H225518   3.234   0.738  11.516 -1.2791 -1.3402 -0.3467
 1343TIP3   OH225519   3.015   4.213  16.040 -0.4080 -0.2368  0.7230
 1343TIP3    H125520   3.106   4.192  16.018 -0.6855 -1.7570  0.9226
 1343TIP3    H225521   3.007   4.193  16.133 -1.5588 -2.5394  0.1957
 1344TIP3   OH225522   0.545   6.024  11.849  0.0349  0.6417  0.0503
 1344TIP3    H125523   0.518   6.113  11.872 -0.3712  0.6180 -0.3247
 1344TIP3    H225524   0.543   6.022  11.754 -1.6645 -0.2688  0.0623
 1345TIP3   OH225525   4.306   2.776  14.248  0.1119  0.6512  0.5161
 1345TIP3    H125526   4.365   2.759  14.322 -1.8111 -0.1634  1.9251
 1345TIP3    H225527   4.353   2.741  14.172  1.9693  1.1468  1.3768
 1346TIP3   OH225528   2.975   2.112   1.504  0.2080 -0.3398  0.5248
 1346TIP3    H125529   3.061   2.072   1.492  0.1514 -0.0008 -1.2231
 1346TIP3    H225530   2.924   2.083   1.429 -0.7162  0.7432  0.7048
 1347TIP3   OH225531   0.609   3.192   2.354  0.5777  0.5308 -0.0239
 1347TIP3    H125532   0.521   3.204   2.387  0.4729  3.8136 -1.1856
 1347TIP3    H225533   0.598   3.177   2.260  1.2142 -1.5345  0.1723
 1348TIP3   OH225534   3.369   4.522   3.993 -0.5239 -0.3260  0.2812
 1348TIP3    H125535   3.395   4.484   4.077  0.9530  0.0605  0.0125
 1348TIP3    H225536   3.287   4.568   4.012  1.8985  3.5315  2.6491
 1349TIP3   OH225537   2.198   4.828  12.740  0.2489  0.3988 -0.5332
 1349TIP3    H125538   2.233   4.774  12.811  0.7054  0.5400 -0.6494
 1349TIP3    H225539   2.228   4.916  12.761 -2.2373  1.0186  0.8118
 1350TIP3   OH225540   6.036   2.249   0.642  0.6446  0.3584  0.4144
 1350TIP3    H125541   6.121   2.255   0.599  0.3013  0.3364 -0.2988
 1350TIP3    H225542   6.020   2.155   0.649 -0.3413  0.3038 -1.6253
 1351TIP3   OH225543   0.673   2.683  12.366 -0.1047  0.2339 -0.0691
 1351TIP3    H125544   0.584   2.661  12.340  0.3083  0.4502 -1.7813
 1351TIP3    H225545   0.692   2.625  12.440 -1.3519 -0.4140 -0.2386
 1352TIP3   OH225546   1.399   5.549  12.796  0.3404 -0.3340 -0.1052
 1352TIP3    H125547   1.406   5.563  12.702 -2.2578 -0.9033 -0.4393
 1352TIP3    H225548   1.378   5.635  12.832  1.7144 -0.0355  0.0542
 1353TIP3   OH225549   4.032   4.340  14.407 -0.4553  0.4958  0.7010
 1353TIP3    H125550   4.034   4.420  14.460  1.0217 -0.1822  1.7272
 1353TIP3    H225551   3.950   4.297  14.431 -1.2348  1.6603  0.1751
 1354TIP3   OH225552   4.681   3.214   3.007 -0.6020 -0.0281 -0.7947
 1354TIP3    H125553   4.755   3.268   3.034  0.1539 -0.7415 -1.4154
 1354TIP3    H225554   4.654   3.169   3.088 -0.9337  0.8871 -0.3796
 1355TIP3   OH225555   4.949   2.918   0.924  0.0305  0.1246  0.3544
 1355TIP3    H125556   5.010   2.846   0.907 -0.4807  0.0657 -1.3989
 1355TIP3    H225557   4.910   2.897   1.009  0.9256 -0.9142  0.5310
 1356TIP3   OH225558   6.050   1.668   4.070 -0.0177  0.5820 -0.1061
 1356TIP3    H125559   6.013   1.651   4.156  1.2963 -0.4680  0.2831
 1356TIP3    H225560   5.995   1.738   4.034 -1.9352 -0.4492  0.6770
 1357TIP3   OH225561   0.479   1.925   1.813  0.2772 -0.2645 -0.1697
 1357TIP3    H125562   0.514   1.900   1.727  0.3097  1.1294 -0.5888
 1357TIP3    H225563   0.384   1.918   1.803 -0.0042  3.1317 -1.5158
 1358TIP3   OH225564   4.969   2.422   6.412  0.8266 -0.2311  0.0918
 1358TIP3    H125565   4.910   2.497   6.413  1.3252  0.1536  0.8417
 1358TIP3    H225566   4.945   2.371   6.489  0.1348 -1.1401 -0.6912
 1359TIP3   OH225567   2.133   0.382   6.579 -0.0035 -0.2045  0.3860
 1359TIP3    H125568   2.178   0.355   6.499 -0.4447 -0.3039  0.1719
 1359TIP3    H225569   2.105   0.472   6.562  1.6451  0.5101  1.1738
 1360TIP3   OH225570   2.052   0.770  14.719 -0.1234 -0.0080 -0.0734
 1360TIP3    H125571   2.064   0.806  14.807  0.1507 -1.5689  0.5633
 1360TIP3    H225572   1.959   0.779  14.702  0.0650  1.7754 -0.3119
 1361TIP3   OH225573   0.288   3.681  17.022  0.3582  0.1407 -0.2078
 1361TIP3    H125574   0.373   3.668  17.064  0.3355  2.4454  0.6926
 1361TIP3    H225575   0.307   3.682  16.929  1.2661  0.1949 -0.0307
 1362TIP3   OH225576   6.205   3.207  12.159  0.0112  0.6550 -0.1997
 1362TIP3    H125577   6.166   3.121  12.171 -0.0336  0.8476  1.2199
 1362TIP3    H225578   6.176   3.235  12.073 -1.2473 -0.0919 -0.0400
 1363TIP3   OH225579   6.638   3.537   1.958 -0.3215  0.0128  0.0816
 1363TIP3    H125580   6.588   3.475   1.905 -1.5776 -0.4951  1.7852
 1363TIP3    H225581   6.584   3.552   2.035  1.9550 -0.2691  1.8626
 1364TIP3   OH225582   3.264   6.587   0.199  0.6170 -0.0656 -0.2627
 1364TIP3    H125583   3.309   6.663   0.237  1.7892 -0.1959 -1.3269
 1364TIP3    H225584   3.190   6.624   0.151 -1.5360  0.0543  2.7974
 1365TIP3   OH225585   4.919   6.507   4.189  0.4669 -0.6066  0.1649
 1365TIP3    H125586   4.951   6.538   4.105 -0.3940 -2.3107 -0.8270
 1365TIP3    H225587   4.990   6.451   4.222  0.0834 -1.3573 -0.2685
 1366TIP3   OH225588   0.680   2.753   2.758  0.3040 -0.4330 -0.5329
 1366TIP3    H125589   0.751   2.778   2.817  0.1770  1.2821 -1.0635
 1366TIP3    H225590   0.717   2.683   2.704  1.8612  0.8912 -1.2679
 1367TIP3   OH225591   0.403   3.311  14.080 -0.2259  0.1069  0.1733
 1367TIP3    H125592   0.340   3.245  14.050 -1.6214  1.6280 -0.4064
 1367TIP3    H225593   0.464   3.320  14.007 -1.2965  0.9496 -0.6633
 1368TIP3   OH225594   1.982   1.338   2.799 -0.0901 -0.0160  0.8527
 1368TIP3    H125595   1.944   1.283   2.867  1.5173  0.8394  2.5363
 1368TIP3    H225596   2.061   1.292   2.771 -0.9807 -0.6036 -0.8658
 1369TIP3   OH225597   2.515   5.747  10.667  0.8697  0.1514 -0.1192
 1369TIP3    H125598   2.568   5.806  10.720  0.5628  0.7796 -0.5015
 1369TIP3    H225599   2.578   5.701  10.612  1.4375 -2.0334  2.1740
 1370TIP3   OH225600   4.698   1.812   2.811 -0.9589 -0.4920 -0.3178
 1370TIP3    H125601   4.665   1.901   2.800 -1.6869 -0.6723  0.3132
 1370TIP3    H225602   4.740   1.791   2.728  1.1167  1.2012  0.2149
 1371TIP3   OH225603   1.358   4.911   1.532  0.2367  1.2830  0.6656
 1371TIP3    H125604   1.296   4.839   1.539 -1.1307  2.2561 -0.7722
 1371TIP3    H225605   1.414   4.902   1.610 -0.5799 -0.6447  1.0870
 1372TIP3   OH225606   4.488   6.137   4.378  0.5660 -0.3051  0.0129
 1372TIP3    H125607   4.559   6.090   4.333  0.8262 -2.0550  2.0588
 1372TIP3    H225608   4.421   6.070   4.394 -0.0602  0.5345  1.0584
 1373TIP3   OH225609   1.759   6.239  12.860  0.0773 -0.3895  0.4103
 1373TIP3    H125610   1.846   6.199  12.865 -0.0074 -0.8538 -1.2329
 1373TIP3    H225611   1.699   6.170  12.888  0.1621 -0.3796  0.6195
 1374TIP3   OH225612   3.859   3.242   5.013 -0.6033 -0.4575 -0.6992
 1374TIP3    H125613   3.907   3.304   5.067  0.8410 -0.2336 -2.1441
 1374TIP3    H225614   3.856   3.162   5.064  0.4033 -0.1513 -0.1407
 1375TIP3   OH225615   3.605   1.457   3.745 -0.0994  0.3342  0.4805
 1375TIP3    H125616   3.618   1.529   3.683  0.7246 -0.8526 -0.7635
 1375TIP3    H225617   3.691   1.417   3.754 -0.0443  0.8375  2.9211
 1376TIP3   OH225618   3.455   0.578   2.223 -0.0977  0.5777 -0.1035
 1376TIP3    H125619   3.548   0.580   2.201 -0.0282 -1.8199 -0.2884
 1376TIP3    H225620   3.439   0.489   2.254 -2.3267  0.9418 -0.0159
 1377TIP3   OH225621   4.491   2.719  16.456 -0.0655 -0.2783 -0.3743
 1377TIP3    H125622   4.451   2.782  16.396 -0.6947 -1.0763 -0.8217
 1377TIP3    H225623   4.544   2.772  16.516 -1.9789  0.8688  0.3916
 1378TIP3   OH225624   6.062   3.316  14.559  0.4471 -0.0175  0.0044
 1378TIP3    H125625   6.023   3.322  14.646 -0.1705  0.9569 -0.3351
 1378TIP3    H225626   6.111   3.233  14.561  1.7703  0.7473  1.8112
 1379TIP3   OH225627   3.393   0.045   4.366  0.0658  0.4351  0.8267
 1379TIP3    H125628   3.437  -0.032   4.331 -0.8504 -0.1960  1.0530
 1379TIP3    H225629   3.440   0.065   4.447  1.0092  0.7992  0.2169
 1380TIP3   OH225630   1.756   0.578  10.393 -0.2961  0.2507  0.0837
 1380TIP3    H125631   1.748   0.672  10.408  0.5810  0.2696  0.4739
 1380TIP3    H225632   1.769   0.541  10.481 -0.6428 -0.2407 -0.0670
 1381TIP3   OH225633   4.171   2.337   4.131 -0.4037 -0.1747  0.4129
 1381TIP3    H125634   4.095   2.285   4.106 -0.7967  0.7432 -0.3347
 1381TIP3    H225635   4.197   2.302   4.216 -1.5312 -0.6409  0.5814
 1382TIP3   OH225636   4.382   0.977  14.260  0.0464 -0.3451 -0.3632
 1382TIP3    H125637   4.316   1.044  14.242 -0.0096 -0.4399 -0.5163
 1382TIP3    H225638   4.333   0.895  14.260  0.1622 -0.4147 -0.4666
 1383TIP3   OH225639   6.704   2.721   5.627  0.1762  0.0423 -0.2824
 1383TIP3    H125640   6.637   2.666   5.586 -0.3253 -0.4680  1.1721
 1383TIP3    H225641   6.670   2.810   5.619 -1.0701 -0.2755  1.0743
 1384TIP3   OH225642   4.784   5.539  16.256 -0.6305 -0.4569 -0.1685
 1384TIP3    H125643   4.750   5.450  16.242 -1.8371 -0.1957  0.8870
 1384TIP3    H225644   4.819   5.537  16.345  0.1298 -0.1008 -0.4516
 1385TIP3   OH225645   3.693   0.765   3.582 -0.5628 -0.1177  0.1692
 1385TIP3    H125646   3.755   0.821   3.628 -1.0241  1.0766 -0.6137
 1385TIP3    H225647   3.610   0.777   3.629 -0.4279 -1.0552  0.6922
 1386TIP3   OH225648   2.869   5.157   3.505  0.2239 -0.2760 -0.2660
 1386TIP3    H125649   2.929   5.167   3.579 -0.7164 -1.5434  0.7123
 1386TIP3    H225650   2.853   5.063   3.499  0.1826 -0.2018 -2.0377
 1387TIP3   OH225651   4.267   2.091   3.439 -0.3053 -0.2629 -0.1307
 1387TIP3    H125652   4.175   2.084   3.462 -0.0396  0.7905  1.4088
 1387TIP3    H225653   4.301   2.002   3.449 -0.5077 -0.1104  2.4764
 1388TIP3   OH225654   1.244   4.087   0.774  0.1439  0.5699 -0.3121
 1388TIP3    H125655   1.298   4.135   0.836  0.6186 -0.7470  0.3415
 1388TIP3    H225656   1.257   3.995   0.797 -2.2969  0.1870 -0.2177
 1389TIP3   OH225657   3.365   0.973   1.368 -0.5310 -0.4521  0.1897
 1389TIP3    H125658   3.384   1.039   1.300 -0.2319 -0.6766  0.0529
 1389TIP3    H225659   3.429   0.991   1.437  0.8367 -1.8004 -0.6746
 1390TIP3   OH225660   5.576   0.885  16.890 -0.2446  0.2032 -0.2712
 1390TIP3    H125661   5.556   0.795  16.864  1.7422 -0.5667  0.6804
 1390TIP3    H225662   5.598   0.929  16.808 -1.1994 -0.1580 -0.7407
 1391TIP3   OH225663   0.594   1.949  13.020 -0.0068 -0.0142  0.6087
 1391TIP3    H125664   0.554   1.886  12.959  1.5650  2.1478 -3.0349
 1391TIP3    H225665   0.688   1.938  13.006  0.3212  2.6389  0.2844
 1392TIP3   OH225666   0.361   5.437   1.078  0.0423 -0.6372 -0.6130
 1392TIP3    H125667   0.421   5.424   1.151  2.5133 -1.5097 -2.6656
 1392TIP3    H225668   0.357   5.532   1.066  1.3696 -0.5701 -0.6666
 1393TIP3   OH225669   6.752   1.549  11.447  0.4219 -0.1410 -0.0296
 1393TIP3    H125670   6.824   1.608  11.425  0.8999 -1.0217 -0.8822
 1393TIP3    H225671   6.676   1.608  11.458  0.9342  0.6527 -0.6155
 1394TIP3   OH225672   3.469   4.477   3.037  0.1015  0.2486 -0.0366
 1394TIP3    H125673   3.532   4.447   3.102 -0.9691 -0.1325  0.8647
 1394TIP3    H225674   3.519   4.486   2.957  0.9893 -1.4896  0.2763
 1395TIP3   OH225675   0.720   6.284   5.161  0.5133 -0.3319 -0.7503
 1395TIP3    H125676   0.793   6.252   5.107  1.0641 -0.3453 -0.0159
 1395TIP3    H225677   0.676   6.206   5.191  0.5369 -0.3396 -0.7353
 1396TIP3   OH225678   4.476   4.603   2.967  0.1855  0.3158  0.1440
 1396TIP3    H125679   4.399   4.560   3.004 -0.0190  0.3993 -0.1788
 1396TIP3    H225680   4.491   4.679   3.023 -0.4920  0.7847 -0.2983
 1397TIP3   OH225681   2.821   0.596   2.701 -0.2416  0.3869  0.6166
 1397TIP3    H125682   2.727   0.580   2.712 -0.2013 -0.4715 -0.1626
 1397TIP3    H225683   2.860   0.564   2.782 -0.4321 -1.2358  0.1080
 1398TIP3   OH225684   2.109   2.690   0.714  0.0307 -0.2137 -0.8945
 1398TIP3    H125685   2.172   2.731   0.774 -1.0590  0.3844 -0.1188
 1398TIP3    H225686   2.117   2.741   0.633  2.3505 -1.7666 -1.7188
 1399TIP3   OH225687   5.433   5.542   3.655  0.0637  0.2101 -0.1729
 1399TIP3    H125688   5.393   5.621   3.619 -1.0583  0.2056  0.9841
 1399TIP3    H225689   5.359   5.487   3.680  0.8207 -0.5103  0.5538
 1400TIP3   OH225690   6.778   3.786   0.139  0.2772 -0.0220 -0.5888
 1400TIP3    H125691   6.690   3.761   0.111 -0.5587 -0.2863  2.0089
 1400TIP3    H225692   6.817   3.705   0.173  0.4002  0.6135  0.8938
 1401TIP3   OH225693   6.670   4.242   2.416  0.8402 -0.4749 -0.5943
 1401TIP3    H125694   6.682   4.303   2.343 -0.1721 -0.0585 -0.4169
 1401TIP3    H225695   6.749   4.188   2.414  1.6608  0.6853 -0.8960
 1402TIP3   OH225696   0.682   2.723  14.993 -0.1357  0.2931 -0.5560
 1402TIP3    H125697   0.641   2.799  15.036 -0.3285  0.8985 -1.7823
 1402TIP3    H225698   0.626   2.705  14.917  2.1432  1.5353 -2.6397
 1403TIP3   OH225699   6.378   2.582  16.891 -0.1413  0.4462 -0.5151
 1403TIP3    H125700   6.431   2.655  16.858  1.3450 -0.4989 -0.3156
 1403TIP3    H225701   6.391   2.512  16.828  0.9246 -0.6426  0.8433
 1404TIP3   OH225702   0.261   6.723  11.985 -0.1163  0.0660 -0.2168
 1404TIP3    H125703   0.241   6.809  11.950 -1.5116 -0.0708  0.1673
 1404TIP3    H225704   0.231   6.661  11.918 -0.0604 -0.1337 -0.0615
 1405TIP3   OH225705   1.535   0.770   1.728 -0.1736 -0.3392 -0.2132
 1405TIP3    H125706   1.568   0.720   1.802 -3.1626 -0.2666  1.3244
 1405TIP3    H225707   1.556   0.861   1.749 -1.2436 -0.2889  0.7667
 1406TIP3   OH225708   3.225   0.163  14.160 -0.4295  0.1088 -0.1241
 1406TIP3    H125709   3.181   0.082  14.134 -1.6721  0.5681  0.4656
 1406TIP3    H225710   3.209   0.223  14.087  0.7571 -0.2467 -0.7021
 1407TIP3   OH225711   4.088   6.829   6.000 -0.3134 -0.9072 -0.7992
 1407TIP3    H125712   4.133   6.745   6.009  0.1787 -0.6887 -1.1815
 1407TIP3    H225713   4.130   6.886   6.064 -0.4209 -0.8530 -0.7758
 1408TIP3   OH225714   5.379   1.238   1.680  0.3633  0.5467 -0.1620
 1408TIP3    H125715   5.347   1.323   1.709  0.7259  0.8597 -0.6816
 1408TIP3    H225716   5.474   1.248   1.675  0.2957  0.5414 -1.6085
 1409TIP3   OH225717   2.706   2.961  14.067  0.2492 -0.1214 -0.0304
 1409TIP3    H125718   2.780   2.980  14.011  0.7528 -1.1542  0.2560
 1409TIP3    H225719   2.745   2.943  14.153 -0.3653 -0.2085  0.2349
 1410TIP3   OH225720   3.623   0.163  16.122 -0.2076  0.2661  0.0552
 1410TIP3    H125721   3.551   0.216  16.154 -0.8250 -0.5791  0.1123
 1410TIP3    H225722   3.652   0.206  16.042  0.0216  1.2756  0.6619
 1411TIP3   OH225723   3.811   2.356  16.995 -0.1360 -0.3283 -0.1268
 1411TIP3    H125724   3.757   2.360  16.916  0.5721  1.3444 -0.5720
 1411TIP3    H225725   3.792   2.270  17.032 -1.3966 -0.6788 -1.4614
 1412TIP3   OH225726   6.850   1.398   3.212  0.1309 -0.4466 -0.3921
 1412TIP3    H125727   6.764   1.383   3.175 -1.3666  0.9481  2.1882
 1412TIP3    H225728   6.849   1.490   3.239  2.3337 -0.4626 -0.0283
 1413TIP3   OH225729   0.016   0.251  16.272  0.0664  0.5431  0.0533
 1413TIP3    H125730   0.072   0.186  16.230  0.3079  0.1591  0.9579
 1413TIP3    H225731  -0.073   0.225  16.246  0.0593 -0.8683  1.3221
 1414TIP3   OH225732   2.602   5.223   4.217 -0.1530 -0.2095  0.8141
 1414TIP3    H125733   2.653   5.153   4.257  0.0383 -0.2157  0.5622
 1414TIP3    H225734   2.511   5.191   4.219  0.0866 -1.0448 -0.4899
 1415TIP3   OH225735   3.576   4.487   2.572 -0.1582 -0.2715 -0.3422
 1415TIP3    H125736   3.521   4.563   2.554  0.1871 -0.0160 -0.3109
 1415TIP3    H225737   3.542   4.452   2.654 -0.0960  0.0495 -0.1801
 1416TIP3   OH225738   1.774   0.281  14.430  0.0075  0.0707  0.0777
 1416TIP3    H125739   1.859   0.261  14.392  1.4778  2.8097  1.5808
 1416TIP3    H225740   1.791   0.354  14.490 -3.3101  0.3381  0.9110
 1417TIP3   OH225741   5.880   0.444  14.281  0.0814 -0.4205  0.0246
 1417TIP3    H125742   5.936   0.510  14.240  1.5994 -1.6703 -0.0238
 1417TIP3    H225743   5.880   0.372  14.218 -1.6481 -0.4319  0.0125
 1418TIP3   OH225744   0.784   6.676   6.009  0.1590 -0.2858 -0.3664
 1418TIP3    H125745   0.730   6.649   5.934  1.0699 -0.9136 -0.8021
 1418TIP3    H225746   0.720   6.698   6.077 -0.6881  0.4972 -1.3879
 1419TIP3   OH225747   5.156   1.445  12.106 -0.1596  0.3216 -0.6587
 1419TIP3    H125748   5.112   1.529  12.094 -0.3496  0.1229 -1.3636
 1419TIP3    H225749   5.247   1.468  12.125 -0.8406  0.8332  2.7094
 1420TIP3   OH225750   2.197   5.233   4.514  0.3472  0.5757  0.2791
 1420TIP3    H125751   2.161   5.321   4.522  0.3145  0.5406  0.5268
 1420TIP3    H225752   2.280   5.245   4.467 -0.3646  0.5627 -1.0257
 1421TIP3   OH225753   3.085   2.527   6.186 -0.0542 -0.4721 -0.2415
 1421TIP3    H125754   3.008   2.555   6.137 -0.0292  0.0569  0.0108
 1421TIP3    H225755   3.049   2.482   6.262 -0.1329  0.1474  0.0980
 1422TIP3   OH225756   5.076   5.681   2.179 -0.1761 -0.2106 -0.0053
 1422TIP3    H125757   5.034   5.667   2.264  1.0956  0.5555  0.7662
 1422TIP3    H225758   5.006   5.715   2.123 -0.3932  2.1134  1.5566
 1423TIP3   OH225759   5.692   4.462  15.284 -0.1392 -0.0027  0.2272
 1423TIP3    H125760   5.760   4.411  15.328 -0.5564 -1.1916 -0.4384
 1423TIP3    H225761   5.639   4.396  15.238 -2.6290  0.7165  1.8947
 1424TIP3   OH225762   0.419   6.677  16.542 -0.5405 -0.0581  0.5637
 1424TIP3    H125763   0.407   6.667  16.636 -2.1151 -1.1246  0.2935
 1424TIP3    H225764   0.367   6.754  16.519  0.0352  0.3446  0.5833
 1425TIP3   OH225765   5.998   5.926  12.556  0.0558  0.3778  0.2278
 1425TIP3    H125766   6.069   5.964  12.609  1.7286 -0.9763 -0.9143
 1425TIP3    H225767   5.985   5.990  12.485 -0.8487  1.2707  1.1629
 1426TIP3   OH225768   3.606   6.829  15.653 -0.5147  0.0326 -0.5422
 1426TIP3    H125769   3.635   6.849  15.565 -1.6367  2.1403 -0.5047
 1426TIP3    H225770   3.678   6.780  15.692  1.6204  2.2890 -1.4364
 1427TIP3   OH225771   6.308   1.696   3.962 -0.1303  0.0972 -0.4372
 1427TIP3    H125772   6.217   1.678   3.986 -0.1823 -0.1474 -0.8125
 1427TIP3    H225773   6.301   1.755   3.887  0.0087 -0.3446 -0.8051
 1428TIP3   OH225774   2.661   0.478   1.167 -0.0350 -0.0649 -0.7670
 1428TIP3    H125775   2.598   0.518   1.107  0.3319 -1.1635 -1.9358
 1428TIP3    H225776   2.731   0.445   1.111  0.1453 -1.4718  0.2145
 1429TIP3   OH225777   4.073   0.022   2.073 -0.5996 -0.4599  0.5155
 1429TIP3    H125778   4.164   0.039   2.098 -1.1196  0.9490  1.5621
 1429TIP3    H225779   4.054   0.085   2.004 -1.0157 -0.1995  0.8615
 1430TIP3   OH225780   2.532   2.083   3.355  0.7370  0.0058  0.8163
 1430TIP3    H125781   2.457   2.142   3.344  1.3337  0.4728 -1.2656
 1430TIP3    H225782   2.494   1.995   3.356  0.1744  0.1745 -1.2040
 1431TIP3   OH225783   4.302   1.199  12.676 -0.7766 -0.4326  0.4914
 1431TIP3    H125784   4.274   1.290  12.686  0.7543  0.1583 -0.1908
 1431TIP3    H225785   4.320   1.169  12.766  1.4700  0.9285  0.5835
 1432TIP3   OH225786   2.571   3.943   1.914  0.1991  0.3699 -0.0851
 1432TIP3    H125787   2.516   4.010   1.873 -0.5748 -0.8492 -1.0751
 1432TIP3    H225788   2.547   3.862   1.871 -1.0713 -1.1308  3.1210
 1433TIP3   OH225789   2.752   5.965   1.684 -0.1886  0.2822  1.0657
 1433TIP3    H125790   2.846   5.963   1.666 -0.2150 -1.8284  0.9034
 1433TIP3    H225791   2.718   6.035   1.629  1.1425  0.4317  0.3976
 1434TIP3   OH225792   3.125   0.039   1.379 -0.3543  0.3439 -0.3271
 1434TIP3    H125793   3.044   0.030   1.328 -2.0079 -0.0097  2.1648
 1434TIP3    H225794   3.153  -0.051   1.395 -0.7136  0.3803  0.5905
 1435TIP3   OH225795   6.344   6.324  13.266  0.3765 -0.0710  0.0648
 1435TIP3    H125796   6.252   6.339  13.246  0.9739  1.0007 -2.2441
 1435TIP3    H225797   6.363   6.237  13.233  0.1725 -0.3353  0.6409
 1436TIP3   OH225798   4.012   2.082  15.842 -0.3148 -0.3127 -0.2336
 1436TIP3    H125799   3.946   2.068  15.774 -0.6042  1.1074 -0.2828
 1436TIP3    H225800   4.089   2.115  15.796 -0.1079 -0.4760 -0.0081
 1437TIP3   OH225801   3.136   1.684  14.810 -0.5342 -0.2677 -0.0945
 1437TIP3    H125802   3.196   1.622  14.769  0.4783  1.7451 -1.8448
 1437TIP3    H225803   3.135   1.759  14.751 -2.8777  0.7882  1.1676
 1438TIP3   OH225804   3.127   5.706  13.570  0.2778  0.3107  0.3370
 1438TIP3    H125805   3.222   5.700  13.577  0.2870 -0.3254 -0.2132
 1438TIP3    H225806   3.111   5.743  13.483  0.0053 -0.7376 -0.0732
 1439TIP3   OH225807   1.845   2.143  15.819  0.1516 -0.2519  0.0401
 1439TIP3    H125808   1.824   2.063  15.770  0.5729 -0.5394  0.3207
 1439TIP3    H225809   1.848   2.212  15.752  3.5314 -1.0853 -0.8913
 1440TIP3   OH225810   5.566   5.460   4.577  0.2977 -0.2169 -0.5448
 1440TIP3    H125811   5.601   5.489   4.661 -2.2635  0.4773  0.3974
 1440TIP3    H225812   5.564   5.365   4.583 -0.9647 -0.1385  0.7224
 1441TIP3   OH225813   5.999   5.832   3.631  0.1836  0.2287 -0.1235
 1441TIP3    H125814   6.036   5.837   3.543  0.8553 -0.9937  0.0673
 1441TIP3    H225815   6.072   5.850   3.690  0.2103 -0.9390  0.2244
 1442TIP3   OH225816   4.211   2.512   0.929 -0.9540  0.1238  0.4448
 1442TIP3    H125817   4.200   2.492   1.021 -2.2118 -0.6437  0.1579
 1442TIP3    H225818   4.139   2.573   0.909  0.3751  1.7524  0.3583
 1443TIP3   OH225819   4.411   3.467   5.135 -0.9356 -0.3626  0.4976
 1443TIP3    H125820   4.483   3.482   5.073 -0.3336  0.6215  1.4179
 1443TIP3    H225821   4.336   3.513   5.097 -0.6575 -0.0448  0.3363
 1444TIP3   OH225822   3.724   5.260  12.917 -0.3500 -0.3950  0.1849
 1444TIP3    H125823   3.680   5.301  12.992  0.2747 -0.7937  0.7809
 1444TIP3    H225824   3.817   5.263  12.939 -0.2845 -2.2946  0.3618
 1445TIP3   OH225825   2.875   0.130  14.925 -0.0149  0.1597  0.5987
 1445TIP3    H125826   2.959   0.115  14.968  0.0819  0.2634  0.4445
 1445TIP3    H225827   2.816   0.155  14.996  0.0899  0.1128  0.7030
 1446TIP3   OH225828   1.467   0.404  13.637 -0.3036 -0.1237  0.3551
 1446TIP3    H125829   1.500   0.348  13.567 -1.3652  0.5984 -0.7565
 1446TIP3    H225830   1.532   0.396  13.707  0.9332 -0.6396 -0.8133
 1447TIP3   OH225831   4.292   2.362  12.498  0.5216  0.6352  0.1631
 1447TIP3    H125832   4.359   2.307  12.457  0.3896  1.9051 -1.8798
 1447TIP3    H225833   4.327   2.451  12.492 -1.2945  1.3280 -0.9126
 1448TIP3   OH225834   1.513   1.041  14.864 -0.1838 -0.6108  0.0416
 1448TIP3    H125835   1.538   0.951  14.839 -0.6995 -0.5169 -0.8570
 1448TIP3    H225836   1.479   1.079  14.783 -2.3725 -0.4341  0.9841
 1449TIP3   OH225837   1.273   1.234  14.170  0.0484 -0.2255 -0.1516
 1449TIP3    H125838   1.184   1.258  14.148 -0.1493  0.0207  0.8794
 1449TIP3    H225839   1.297   1.291  14.243  0.7417 -0.8712  0.1440
 1450TIP3   OH225840   5.970   4.680   3.187 -0.3026  0.1290  0.0012
 1450TIP3    H125841   5.980   4.628   3.266  0.4403  2.2326  1.3574
 1450TIP3    H225842   6.002   4.767   3.210 -1.0618  1.1134 -2.2955
 1451TIP3   OH225843   4.866   2.837   2.947 -0.2155 -0.0180 -0.6577
 1451TIP3    H125844   4.830   2.887   2.874 -0.5161 -1.3911 -1.4950
 1451TIP3    H225845   4.810   2.859   3.021 -0.9724  0.1166 -1.2522
 1452TIP3   OH225846   3.180   6.545   1.837  0.4029 -0.3210 -0.1064
 1452TIP3    H125847   3.122   6.571   1.766  0.3460  0.4627  0.2152
 1452TIP3    H225848   3.131   6.564   1.917  1.8077  2.3416  0.2572
 1453TIP3   OH225849   1.671   0.655   2.398  0.3244  1.0386  0.6386
 1453TIP3    H125850   1.707   0.622   2.316  0.8274 -0.2240  1.3265
 1453TIP3    H225851   1.638   0.742   2.377 -1.1522  0.0742 -1.3160
 1454TIP3   OH225852   0.959   4.859   2.541  0.4108  0.1851  0.5903
 1454TIP3    H125853   0.972   4.936   2.485 -0.9214  0.9176  1.2524
 1454TIP3    H225854   1.047   4.837   2.571  0.8926  1.0537 -0.1141
 1455TIP3   OH225855   5.334   6.687   5.988 -0.4269  0.0598  0.3931
 1455TIP3    H125856   5.261   6.631   6.013  0.1662 -0.4925  0.9166
 1455TIP3    H225857   5.352   6.740   6.066  0.0561 -0.1638  0.4349
 1456TIP3   OH225858   2.781   5.326   0.119 -0.1248  0.8063  0.5993
 1456TIP3    H125859   2.718   5.290   0.057  0.1023  0.9057  0.3059
 1456TIP3    H225860   2.811   5.407   0.078 -1.7355  2.1286  1.9283
 1457TIP3   OH225861   4.360   1.352   5.357  0.4331 -0.4604 -0.0444
 1457TIP3    H125862   4.309   1.354   5.276  0.7953 -0.5104 -0.2769
 1457TIP3    H225863   4.298   1.320   5.423 -0.1506  0.5380 -0.0810
 1458TIP3   OH225864   0.029   1.532  10.714 -0.3804 -0.0924  0.0771
 1458TIP3    H125865   0.014   1.580  10.632 -0.5341 -0.4505 -0.1088
 1458TIP3    H225866  -0.037   1.463  10.713 -1.4210  0.8575  1.2728
 1459TIP3   OH225867   6.604   5.199   1.867 -0.0194 -0.0737 -0.0792
 1459TIP3    H125868   6.519   5.197   1.823  0.7513 -2.6337 -1.6572
 1459TIP3    H225869   6.620   5.108   1.892  1.5947  0.6049  1.6067
 1460TIP3   OH225870   6.765   0.842   5.714 -0.9675 -0.8690 -0.0859
 1460TIP3    H125871   6.825   0.904   5.755  1.6529 -3.6570  0.6078
 1460TIP3    H225872   6.705   0.898   5.664  1.6840  2.1861 -0.2293
 1461TIP3   OH225873   4.768   6.766   2.067  0.2060  0.4707 -0.7240
 1461TIP3    H125874   4.777   6.726   2.154  1.6455  2.3536  0.0628
 1461TIP3    H225875   4.853   6.753   2.026  0.5133  2.1227 -0.6750
 1462TIP3   OH225876   0.418   4.862  12.740  0.1126 -0.3555 -0.0580
 1462TIP3    H125877   0.446   4.946  12.776 -1.6669 -0.3872  1.5253
 1462TIP3    H225878   0.386   4.883  12.652  1.4675  0.2583 -0.4447
 1463TIP3   OH225879   3.504   5.157  13.245 -0.2998  0.2698  0.3801
 1463TIP3    H125880   3.500   5.212  13.323 -0.8080  1.3114 -0.3580
 1463TIP3    H225881   3.415   5.157  13.210  0.2675  1.3032 -1.1721
 1464TIP3   OH225882   4.386   6.014   0.106  0.1259 -0.4385  0.3386
 1464TIP3    H125883   4.426   6.084   0.158 -1.0667  1.3240 -0.9798
 1464TIP3    H225884   4.299   6.002   0.143  0.8541 -2.4005  1.5400
 1465TIP3   OH225885   1.179   2.920   2.533 -0.6510  0.1044  0.8221
 1465TIP3    H125886   1.206   2.939   2.443  0.4831  0.3695  1.2107
 1465TIP3    H225887   1.136   2.834   2.527  1.4456 -0.9711  0.3721
 1466TIP3   OH225888   3.477   2.621   0.194 -0.6184  0.0548 -0.1146
 1466TIP3    H125889   3.387   2.601   0.168 -0.4260 -0.6692 -0.2255
 1466TIP3    H225890   3.496   2.558   0.263 -1.3281  2.2609  2.2985
 1467TIP3   OH225891   5.639   3.692   6.003  0.2292  0.6541 -0.0830
 1467TIP3    H125892   5.681   3.703   5.918 -0.2852  0.1811 -0.3997
 1467TIP3    H225893   5.674   3.609   6.036 -0.1228  0.4761 -0.1569
 1468TIP3   OH225894   3.262   6.813  11.597  0.3841  0.2518  0.1790
 1468TIP3    H125895   3.230   6.768  11.518 -0.6217  0.6536  0.3363
 1468TIP3    H225896   3.329   6.755  11.632  0.5011 -0.1701 -0.7057
 1469TIP3   OH225897   1.910   0.089  14.918  1.0726  0.0461  1.0185
 1469TIP3    H125898   1.959   0.136  14.851  1.8377 -0.0590  1.4879
 1469TIP3    H225899   1.893   0.003  14.880  0.3342  0.4349  0.4520
 1470TIP3   OH225900   0.005   6.784  10.940  0.2391 -0.2860  0.5793
 1470TIP3    H125901  -0.067   6.749  10.993 -1.1220 -0.5285 -1.3633
 1470TIP3    H225902  -0.029   6.864  10.901  0.5491 -1.0487 -1.3579
 1471TIP3   OH225903   0.906   0.408   3.184 -0.0598  0.3522 -0.1707
 1471TIP3    H125904   0.850   0.348   3.234  0.7394  0.2331  0.6155
 1471TIP3    H225905   0.936   0.356   3.109 -0.8254  0.3549 -0.4866
 1472TIP3   OH225906   3.428   1.935  13.540 -0.0596 -0.6114 -0.3367
 1472TIP3    H125907   3.391   1.936  13.628 -1.7612  0.2834 -1.0273
 1472TIP3    H225908   3.387   1.860  13.497 -0.5608 -0.0236 -0.8980
 1473TIP3   OH225909   6.741   4.037  16.650 -0.6769 -0.5846 -0.2752
 1473TIP3    H125910   6.738   4.131  16.633  0.7707 -0.6437 -1.0386
 1473TIP3    H225911   6.819   4.006  16.603  0.0044 -1.8396  1.5319
 1474TIP3   OH225912   1.324   4.783   1.220 -0.8537  0.0340  0.0236
 1474TIP3    H125913   1.396   4.734   1.179  0.2563  0.6048  1.2192
 1474TIP3    H225914   1.278   4.717   1.272  0.4605  0.1512  1.3967
 1475TIP3   OH225915   4.490   6.785  14.610 -0.0070  0.0619 -0.5189
 1475TIP3    H125916   4.434   6.806  14.535  2.5170  2.7148 -1.9010
 1475TIP3    H225917   4.445   6.826  14.684 -0.1635  1.8431 -1.5184
 1476TIP3   OH225918   5.195   0.150  13.404  0.0115 -0.3319  0.2624
 1476TIP3    H125919   5.144   0.189  13.475 -2.6677 -0.3051 -1.5378
 1476TIP3    H225920   5.165   0.060  13.399  2.0659 -1.0922  0.7560
 1477TIP3   OH225921   1.357   6.506  13.567 -0.6039 -0.6848  0.1950
 1477TIP3    H125922   1.337   6.597  13.547  0.5708 -0.6400 -0.8520
 1477TIP3    H225923   1.323   6.494  13.656 -1.2716  0.5992  0.1436
 1478TIP3   OH225924   6.863   0.171   1.072 -0.3802 -0.2000  0.3752
 1478TIP3    H125925   6.853   0.094   1.128  0.8956  0.9752  2.3052
 1478TIP3    H225926   6.799   0.234   1.105 -0.2462  0.1960 -0.0981
 1479TIP3   OH225927   6.411   4.233   3.962  0.2591 -0.1765  0.2399
 1479TIP3    H125928   6.357   4.310   3.947  1.1710  0.3956 -0.1655
 1479TIP3    H225929   6.395   4.177   3.886 -0.6974 -0.5784  0.7198
 1480TIP3   OH225930   3.568   5.604  13.820  0.7447  0.6804  0.3873
 1480TIP3    H125931   3.613   5.631  13.900  2.8234 -0.2077 -0.4106
 1480TIP3    H225932   3.615   5.526  13.792 -0.6564  0.3324 -1.1136
 1481TIP3   OH225933   0.674   2.399   4.522  0.2827 -0.2985 -0.5553
 1481TIP3    H125934   0.714   2.315   4.546 -0.3893 -0.8093 -1.1780
 1481TIP3    H225935   0.619   2.378   4.447 -0.8070  0.4654  0.0057
 1482TIP3   OH225936   5.032   0.602  11.198 -0.2781  0.0733  0.4160
 1482TIP3    H125937   4.996   0.620  11.111  0.8664 -0.9508 -0.2999
 1482TIP3    H225938   5.084   0.522  11.187  2.9407  1.8629  1.1048
 1483TIP3   OH225939   3.681   2.430  16.732  0.3279 -0.0681  0.1836
 1483TIP3    H125940   3.608   2.487  16.755  0.5190 -0.8550  3.1048
 1483TIP3    H225941   3.754   2.490  16.715 -0.4402  0.6415 -0.7460
 1484TIP3   OH225942   4.397   2.465   1.388  0.0337  0.2801 -0.0567
 1484TIP3    H125943   4.419   2.557   1.402 -1.1066  0.3182  1.8899
 1484TIP3    H225944   4.386   2.429   1.476 -1.9053 -1.1126 -0.7900
 1485TIP3   OH225945   0.960   3.185  13.631 -0.0064  0.0200  0.2939
 1485TIP3    H125946   1.019   3.137  13.689  0.6335  0.6034  0.1454
 1485TIP3    H225947   0.873   3.153  13.653  0.3088 -0.4017  0.9590
 1486TIP3   OH225948   3.941   0.356   2.344  0.0012 -0.6026  0.2284
 1486TIP3    H125949   3.886   0.301   2.287  1.2165 -0.8701 -0.7369
 1486TIP3    H225950   4.029   0.345   2.309  0.4564  1.0198  0.7865
 1487TIP3   OH225951   0.458   0.987  12.907 -0.2101 -0.1652  0.4366
 1487TIP3    H125952   0.422   0.959  12.823  0.5001 -0.6189  0.2754
 1487TIP3    H225953   0.383   1.024  12.954 -1.2316 -2.3901  0.7020
 1488TIP3   OH225954   6.448   2.561  12.886  0.2381  0.0329  0.8231
 1488TIP3    H125955   6.375   2.519  12.841 -0.0227  1.3581 -0.0359
 1488TIP3    H225956   6.428   2.550  12.979 -0.1965 -1.0583  0.6223
 1489TIP3   OH225957   0.596   0.078  14.874 -0.1144 -0.2026  0.0986
 1489TIP3    H125958   0.520   0.122  14.836 -0.0022 -0.8110 -0.8894
 1489TIP3    H225959   0.659   0.149  14.889  0.7039 -0.0824 -3.0096
 1490TIP3   OH225960   1.764   3.133  14.202  0.0977  0.6935 -0.4578
 1490TIP3    H125961   1.773   3.056  14.258  1.3532  1.2126  0.0943
 1490TIP3    H225962   1.772   3.099  14.112  1.1342  0.2261 -0.2049
 1491TIP3   OH225963   6.551   2.177  12.002  0.0888  0.3899 -0.4596
 1491TIP3    H125964   6.477   2.207  11.949  0.5312 -0.2020 -1.4339
 1491TIP3    H225965   6.627   2.190  11.946  0.3446 -2.3456 -0.8823
 1492TIP3   OH225966   1.739   0.476  11.652 -0.1016 -0.4504  0.1577
 1492TIP3    H125967   1.656   0.514  11.624 -0.8186 -1.5801  0.6550
 1492TIP3    H225968   1.765   0.417  11.581 -0.3922 -1.0571  0.5426
 1493TIP3   OH225969   6.813   4.067   1.276 -0.6150  0.1706  0.1585
 1493TIP3    H125970   6.755   4.105   1.210  0.5875  1.7881 -0.0366
 1493TIP3    H225971   6.799   3.973   1.269 -2.2683  0.4437 -0.7353
 1494TIP3   OH225972   0.969   5.709  13.767 -0.2295 -0.0046 -0.5867
 1494TIP3    H125973   0.904   5.713  13.697 -1.2275  1.4547  0.3719
 1494TIP3    H225974   1.053   5.706  13.722 -0.8940 -2.4343 -1.8792
 1495TIP3   OH225975   0.022   3.384  15.351 -0.1115  0.1118 -0.0527
 1495TIP3    H125976   0.051   3.475  15.341 -0.6838  0.5712  1.9816
 1495TIP3    H225977   0.032   3.367  15.445 -2.3944 -1.0844  0.0274
 1496TIP3   OH225978   0.421   2.773   1.271  0.0087 -0.4138 -0.5506
 1496TIP3    H125979   0.396   2.694   1.223 -0.6991 -0.6550  0.1906
 1496TIP3    H225980   0.373   2.844   1.227  0.6608 -0.3816 -1.2296
 1497TIP3   OH225981   5.896   0.865  10.499 -0.4022 -0.0046 -0.5319
 1497TIP3    H125982   5.960   0.908  10.556  0.1236 -1.5046  0.0787
 1497TIP3    H225983   5.814   0.867  10.548 -0.5326  0.8185 -0.7740
 1498TIP3   OH225984   1.969   2.862  15.380  0.0849 -0.0245  0.0159
 1498TIP3    H125985   1.950   2.955  15.392  0.4118  0.0303  0.1138
 1498TIP3    H225986   1.964   2.825  15.468 -1.6772 -0.4206 -0.2038
 1499TIP3   OH225987   4.403   3.728   1.294  0.1105 -0.1487  0.2159
 1499TIP3    H125988   4.436   3.817   1.284  0.3415 -0.1969  0.5263
 1499TIP3    H225989   4.355   3.729   1.377 -2.1137  0.3432 -1.0004
 1500TIP3   OH225990   1.549   2.406  13.833 -0.2012  0.6027  0.3880
 1500TIP3    H125991   1.493   2.483  13.828 -0.5772  0.2908 -0.5716
 1500TIP3    H225992   1.584   2.396  13.744  1.0831  0.5672  0.8712
 1501TIP3   OH225993   3.470   3.353   0.970 -0.1353 -0.1318 -0.3431
 1501TIP3    H125994   3.378   3.332   0.986 -0.2292  0.0320 -0.6742
 1501TIP3    H225995   3.473   3.449   0.967  0.0139 -0.1413 -0.5315
 1502TIP3   OH225996   2.119   3.091  12.652  0.1041  1.1541  0.5641
 1502TIP3    H125997   2.139   3.083  12.559 -0.0965  0.7699  0.5532
 1502TIP3    H225998   2.026   3.069  12.659  0.7086 -1.5511  1.2199
 1503TIP3   OH225999   3.051   2.233  15.542  0.2293  0.0712  0.3631
 1503TIP3    H126000   3.016   2.252  15.629  2.2279 -0.0264  1.2349
 1503TIP3    H226001   3.136   2.276  15.540  1.0670 -1.5340 -0.8201
 1504TIP3   OH226002   2.855   6.180   3.836  0.1820  0.5302  0.0642
 1504TIP3    H126003   2.872   6.174   3.929  2.8079  0.8047 -0.3343
 1504TIP3    H226004   2.865   6.091   3.803 -1.8428  0.2181  0.1348
 1505TIP3   OH226005   0.315   3.855   3.399 -0.3925  1.1762 -0.2428
 1505TIP3    H126006   0.268   3.779   3.364 -0.6517  0.7537  0.9519
 1505TIP3    H226007   0.314   3.841   3.494  0.6331  2.0549 -0.0877
 1506TIP3   OH226008   4.530   1.620  14.471  0.3955  0.1590  0.2826
 1506TIP3    H126009   4.491   1.562  14.537  0.1608  0.2393  0.2135
 1506TIP3    H226010   4.518   1.708  14.506 -0.7300  0.2789 -0.3937
 1507TIP3   OH226011   3.766   2.821  16.037 -0.1393  0.1081 -0.3849
 1507TIP3    H126012   3.756   2.916  16.050 -0.9802 -0.1284  0.8006
 1507TIP3    H226013   3.677   2.789  16.022 -0.3357 -0.9337  2.4842
 1508TIP3   OH226014   6.362   4.021  16.360 -0.2059  0.2986  0.0198
 1508TIP3    H126015   6.288   4.056  16.410 -0.1146  0.4609  0.0409
 1508TIP3    H226016   6.324   3.998  16.275 -0.6271 -1.1057  0.5458
 1509TIP3   OH226017   3.172   5.980  16.795 -0.6144  0.6721 -0.3013
 1509TIP3    H126018   3.262   5.982  16.762 -0.8250 -1.4903 -1.2285
 1509TIP3    H226019   3.178   5.930  16.877 -0.8591  1.3390  0.1320
 1510TIP3   OH226020   6.212   5.795  15.875 -0.7326  0.3595 -0.4288
 1510TIP3    H126021   6.142   5.851  15.911 -0.6861  0.1121  0.0568
 1510TIP3    H226022   6.221   5.824  15.784 -0.2815  1.5690 -0.0186
 1511TIP3   OH226023   5.914   5.376   4.106 -0.0838  0.0194  0.2855
 1511TIP3    H126024   5.894   5.456   4.058 -0.4106 -0.9464 -1.2780
 1511TIP3    H226025   5.832   5.325   4.104  0.2292 -0.5304  0.8857
 1512TIP3   OH226026   2.649   6.450  11.665 -0.5060 -0.6714  0.2127
 1512TIP3    H126027   2.587   6.423  11.597 -0.3014 -1.0655  0.1770
 1512TIP3    H226028   2.632   6.543  11.678 -1.7347 -0.9625  0.8528
 1513TIP3   OH226029   0.688   0.409  13.951  0.1699 -0.3202  0.3048
 1513TIP3    H126030   0.773   0.368  13.964  0.7040  0.7464  0.2672
 1513TIP3    H226031   0.708   0.500  13.929 -0.8858 -0.5530 -1.9116
 1514TIP3   OH226032   2.766   0.693   5.979 -0.7445  0.6309 -0.3933
 1514TIP3    H126033   2.820   0.711   6.056  0.1897  2.3785 -1.3790
 1514TIP3    H226034   2.676   0.705   6.008 -0.6039 -1.5072  1.0875
 1515TIP3   OH226035   2.483   4.142  11.943 -0.0002  0.5844 -0.2621
 1515TIP3    H126036   2.414   4.126  11.878 -1.3396 -0.2104  1.2935
 1515TIP3    H226037   2.444   4.116  12.026  1.0717  3.1089  1.1438
 1516TIP3   OH226038   0.352   5.300   4.806  0.0474  0.1511  0.0369
 1516TIP3    H126039   0.397   5.349   4.874 -0.0863  1.5134 -0.8251
 1516TIP3    H226040   0.308   5.366   4.753 -0.1677 -0.9034 -1.1581
 1517TIP3   OH226041   5.727   6.520   2.752  0.4220  0.0193 -0.4984
 1517TIP3    H126042   5.722   6.460   2.677  0.1946 -0.4097 -0.1392
 1517TIP3    H226043   5.636   6.534   2.778  0.5116  0.0315 -0.1900
 1518TIP3   OH226044   6.460   2.260   2.043  0.4509  0.0743 -0.1873
 1518TIP3    H126045   6.375   2.228   2.076 -0.1594  1.0695 -0.7534
 1518TIP3    H226046   6.511   2.181   2.028  0.4362 -0.4973  2.2455
 1519TIP3   OH226047   2.747   6.766   1.944 -0.2243 -0.0564  0.3717
 1519TIP3    H126048   2.720   6.767   1.852 -2.6051 -2.0984  0.9464
 1519TIP3    H226049   2.833   6.725   1.943  0.7799  1.8781 -1.0614
 1520TIP3   OH226050   3.840   3.416   0.263 -0.0593  0.5746 -0.1035
 1520TIP3    H126051   3.850   3.390   0.172  3.0140  2.2284 -0.3757
 1520TIP3    H226052   3.790   3.498   0.260 -0.8339  0.0975 -0.2049
 1521TIP3   OH226053   0.812   5.806   0.104  0.3791 -0.8326 -0.2841
 1521TIP3    H126054   0.766   5.890   0.097  0.9689 -0.5350 -0.7734
 1521TIP3    H226055   0.791   5.761   0.023  1.2567 -0.5184 -0.7084
 1522TIP3   OH226056   1.118   1.605   1.321 -0.2822  0.0588 -0.0165
 1522TIP3    H126057   1.069   1.641   1.247  1.2643  2.3285 -0.0069
 1522TIP3    H226058   1.179   1.674   1.346  1.2426 -1.7493  1.5466
 1523TIP3   OH226059   4.789   2.850  11.122 -0.1131  0.6257  0.1937
 1523TIP3    H126060   4.781   2.927  11.178 -0.2594  0.4415  0.4242
 1523TIP3    H226061   4.780   2.776  11.181 -0.9183  0.4331 -0.1697
 1524TIP3   OH226062   3.736   1.553   3.508 -0.3566 -0.0256 -0.5276
 1524TIP3    H126063   3.764   1.633   3.552  2.1498 -0.7871 -0.5736
 1524TIP3    H226064   3.672   1.582   3.442  1.0610  2.0461 -1.0733
 1525TIP3   OH226065   2.008   6.429   1.920 -0.3511 -0.3407 -0.5482
 1525TIP3    H126066   1.932   6.462   1.967  1.1668  2.6216  0.0673
 1525TIP3    H226067   2.071   6.405   1.988  0.8856  1.5268 -0.9525
 1526TIP3   OH226068   6.648   1.232  15.899 -0.3826  0.1060 -0.0020
 1526TIP3    H126069   6.619   1.144  15.923 -0.0105 -0.1021 -0.2962
 1526TIP3    H226070   6.591   1.257  15.827 -0.2356 -0.0536 -0.1758
 1527TIP3   OH226071   4.674   4.295  10.806  0.3179 -0.3041 -0.4176
 1527TIP3    H126072   4.592   4.274  10.760 -0.0956  2.3701 -1.0956
 1527TIP3    H226073   4.734   4.321  10.736  0.5429  1.2482  0.3192
 1528TIP3   OH226074   6.843   6.209   0.959 -0.4262  1.2637 -0.2491
 1528TIP3    H126075   6.830   6.124   0.916  4.1015 -0.0179  0.4360
 1528TIP3    H226076   6.796   6.201   1.042 -1.6564  0.2301 -1.0109
 1529TIP3   OH226077   1.988   4.500   4.903  0.4546  0.2619  0.4973
 1529TIP3    H126078   1.940   4.445   4.842  1.1169 -0.6924  0.8217
 1529TIP3    H226079   1.989   4.587   4.862 -0.2374 -0.0597 -0.2110
 1530TIP3   OH226080   0.564   1.888  16.254 -0.6814  0.0414 -0.4647
 1530TIP3    H126081   0.646   1.863  16.211 -0.6049  0.2525 -0.4407
 1530TIP3    H226082   0.558   1.982  16.241 -0.5979  0.1289  0.0903
 1531TIP3   OH226083   0.430   5.141  14.399  0.1518  0.5322 -0.4522
 1531TIP3    H126084   0.465   5.085  14.330 -1.2772  0.7357 -1.3824
 1531TIP3    H226085   0.430   5.229  14.361 -0.5393  0.6670 -0.1483
 1532TIP3   OH226086   6.599   4.368   1.345 -0.2678  0.4902  0.2713
 1532TIP3    H126087   6.512   4.338   1.320  0.5028 -2.1993  0.5530
 1532TIP3    H226088   6.597   4.371   1.440 -0.3536  1.5845  0.2569
 1533TIP3   OH226089   3.278   1.929  15.171 -0.0677  1.5982 -0.0048
 1533TIP3    H126090   3.187   1.942  15.143 -0.1714  2.2071  0.5897
 1533TIP3    H226091   3.274   1.853  15.229 -0.1412  1.4093 -0.2563
 1534TIP3   OH226092   1.968   0.647  13.818 -0.0920 -0.0761 -0.0205
 1534TIP3    H126093   1.942   0.679  13.731 -0.9925 -0.1185  0.2256
 1534TIP3    H226094   2.063   0.653  13.818 -0.1571  1.3876 -0.4531
 1535TIP3   OH226095   0.896   4.186   3.444  0.5425  0.0662 -0.0784
 1535TIP3    H126096   0.940   4.198   3.528  1.5611 -1.4828 -0.3437
 1535TIP3    H226097   0.906   4.092   3.425  0.1314  0.3368 -1.8138
 1536TIP3   OH226098   5.401   3.362   4.137 -0.1805  0.2476 -0.3543
 1536TIP3    H126099   5.319   3.353   4.089  0.3973 -1.5683 -1.0612
 1536TIP3    H226100   5.462   3.302   4.094  0.8242 -0.2844  1.6743
 1537TIP3   OH226101   4.315   6.483   2.585 -0.6942  0.0691  0.0759
 1537TIP3    H126102   4.276   6.401   2.555 -0.2513  0.0232 -0.3876
 1537TIP3    H226103   4.243   6.529   2.628 -0.7347 -0.9379  1.1389
 1538TIP3   OH226104   5.085   0.209  13.644  0.4790  0.4761  0.1757
 1538TIP3    H126105   5.009   0.152  13.632  0.5394  0.2076  0.9669
 1538TIP3    H226106   5.079   0.238  13.735  2.1273 -0.7861  0.7532
 1539TIP3   OH226107   5.101   2.557   3.354 -0.2778  0.0836  0.6767
 1539TIP3    H126108   5.110   2.506   3.274 -1.4902  1.7548 -0.6100
 1539TIP3    H226109   5.087   2.493   3.423 -0.8840 -1.3362 -0.7165
 1540TIP3   OH226110   2.330   5.762   6.269 -0.4123  0.2243 -0.2450
 1540TIP3    H126111   2.417   5.801   6.264  0.9809 -1.7276  4.1104
 1540TIP3    H226112   2.277   5.828   6.314 -1.3336  1.3391 -2.7397
 1541TIP3   OH226113   2.771   1.946   4.457  0.0918  0.2081  0.8933
 1541TIP3    H126114   2.752   1.917   4.546 -1.1413 -1.5041  0.1345
 1541TIP3    H226115   2.851   1.998   4.465 -0.7518  1.3109  3.1950
 1542TIP3   OH226116   2.605   3.247   3.632  0.0726  0.2281 -0.1089
 1542TIP3    H126117   2.698   3.234   3.613  0.6438  1.8634  1.2378
 1542TIP3    H226118   2.586   3.335   3.600 -1.3343 -0.4847 -1.3486
 1543TIP3   OH226119   3.103   0.108  16.779 -0.3989 -0.5254 -0.3518
 1543TIP3    H126120   3.138   0.188  16.740  0.1322 -1.1254 -1.1311
 1543TIP3    H226121   3.176   0.046  16.779 -0.8117 -1.0295  0.2104
 1544TIP3   OH226122   0.167   1.229   1.961 -0.1909 -0.2267  0.0690
 1544TIP3    H126123   0.257   1.243   1.932  0.3838 -0.1058  1.7922
 1544TIP3    H226124   0.145   1.140   1.932  0.2375 -0.0128 -0.9315
 1545TIP3   OH226125   6.273   0.898   3.916 -0.1518 -0.0855  0.2116
 1545TIP3    H126126   6.226   0.930   3.993 -1.1151 -0.2374 -0.3007
 1545TIP3    H226127   6.229   0.939   3.842  0.2185 -0.6066 -0.3073
 1546TIP3   OH226128   6.441   1.142  15.680  0.4153 -0.3120 -0.1079
 1546TIP3    H126129   6.384   1.065  15.682 -0.9977  0.6913  1.2616
 1546TIP3    H226130   6.529   1.106  15.674 -0.2152 -2.0329  0.2632
 1547TIP3   OH226131   4.450   0.810  12.716  0.1594 -1.2445  0.5118
 1547TIP3    H126132   4.508   0.815  12.640  0.8320 -0.9851  1.0286
 1547TIP3    H226133   4.488   0.741  12.771  0.6131 -0.3394  1.3670
 1548TIP3   OH226134   5.994   6.851   1.970  0.8835  0.6342 -0.0870
 1548TIP3    H126135   6.050   6.895   2.034  0.2910 -0.3732  1.1663
 1548TIP3    H226136   5.968   6.769   2.013 -0.4339  0.4432 -1.1829
 1549TIP3   OH226137   5.466   5.674  16.485  0.3861 -0.3226 -0.5268
 1549TIP3    H126138   5.441   5.593  16.441  0.4706 -0.2590 -0.6912
 1549TIP3    H226139   5.401   5.738  16.457  1.1628  0.0366 -1.5566
 1550TIP3   OH226140   2.947   6.067   0.471  0.9082  0.2500  0.0407
 1550TIP3    H126141   2.906   6.154   0.470  0.7439  0.1859  0.9368
 1550TIP3    H226142   2.881   6.009   0.433  0.0112  0.0957  1.7438
 1551TIP3   OH226143   0.519   3.359   3.882 -0.1079  0.1953 -0.4712
 1551TIP3    H126144   0.526   3.450   3.856  0.9618  0.5175  0.8258
 1551TIP3    H226145   0.600   3.318   3.849  1.6177  0.7611  2.6647
 1552TIP3   OH226146   0.674   2.477  15.634 -0.0818 -0.2453 -0.7883
 1552TIP3    H126147   0.717   2.549  15.589  0.7457 -0.8510 -0.9765
 1552TIP3    H226148   0.595   2.516  15.672  0.1546  0.6644 -1.2231
 1553TIP3   OH226149   0.628   2.708   5.283 -0.3817 -0.2773  0.2684
 1553TIP3    H126150   0.694   2.730   5.349  0.3972 -0.3700 -0.4546
 1553TIP3    H226151   0.632   2.613   5.275  1.0394 -0.1283 -1.3861
 1554TIP3   OH226152   1.943   3.507  12.907  0.2972 -0.2876  0.2864
 1554TIP3    H126153   2.019   3.456  12.934 -0.2683 -0.8830  0.7714
 1554TIP3    H226154   1.886   3.444  12.863 -0.7818 -0.2939  1.6174
 1555TIP3   OH226155   4.952   5.245   2.142  0.0478 -0.7402 -0.1649
 1555TIP3    H126156   4.974   5.158   2.175  1.5433  0.1464  1.4079
 1555TIP3    H226157   5.025   5.268   2.085 -0.2755 -0.4687 -0.4738
 1556TIP3   OH226158   5.260   2.086  12.112  0.0252  0.4518  0.4160
 1556TIP3    H126159   5.181   2.056  12.067 -0.8675  1.2220  1.4188
 1556TIP3    H226160   5.264   2.180  12.094  1.8399  0.1087 -1.2584
 1557TIP3   OH226161   3.667   2.844   0.172  0.2711  0.0242 -0.1247
 1557TIP3    H126162   3.738   2.837   0.235 -1.1062 -3.5111  1.3025
 1557TIP3    H226163   3.627   2.757   0.171 -3.4843  1.5550 -1.4718
 1558TIP3   OH226164   1.693   0.227  11.780 -0.2725  0.2199 -0.1753
 1558TIP3    H126165   1.787   0.210  11.786 -0.5037 -1.0638  0.0299
 1558TIP3    H226166   1.687   0.316  11.745  1.0170 -0.0697 -1.2161
 1559TIP3   OH226167   4.760   3.748   2.011  0.3371  0.3175 -0.1392
 1559TIP3    H126168   4.710   3.819   1.971 -1.1002  0.1569  1.2317
 1559TIP3    H226169   4.815   3.791   2.076 -1.0597  0.1811  1.1982
 1560TIP3   OH226170   3.300   6.740  16.241 -0.2971 -0.3998  0.0444
 1560TIP3    H126171   3.387   6.773  16.221 -0.3610 -1.0808 -1.5353
 1560TIP3    H226172   3.313   6.672  16.308  0.6234 -1.7047 -1.4035
 1561TIP3   OH226173   3.835   5.670   3.553 -0.1389  0.3030 -0.0204
 1561TIP3    H126174   3.764   5.660   3.616 -0.6900  0.5834 -0.5816
 1561TIP3    H226175   3.915   5.650   3.602 -0.4578  1.5281  1.0447
 1562TIP3   OH226176   4.800   3.266   1.427 -0.2557 -0.1744 -0.2617
 1562TIP3    H126177   4.839   3.265   1.514 -0.3761  1.3950 -0.1631
 1562TIP3    H226178   4.782   3.174   1.408  2.1767 -0.8248  0.2549
 1563TIP3   OH226179   2.396   3.138  11.420 -0.2417  0.0047 -0.2606
 1563TIP3    H126180   2.304   3.122  11.438  0.1977 -0.9941  1.3661
 1563TIP3    H226181   2.422   3.067  11.360 -0.1031 -0.8912  0.8258
 1564TIP3   OH226182   3.950   0.625   5.479 -0.1433  0.3311  0.7134
 1564TIP3    H126183   3.868   0.642   5.525 -1.7074  3.1380 -2.6591
 1564TIP3    H226184   3.927   0.557   5.415  0.6272  0.0532  0.7215
 1565TIP3   OH226185   2.972   1.281   4.086 -0.1118  0.0759 -0.2840
 1565TIP3    H126186   2.955   1.254   3.996 -1.6546 -1.7878  0.4833
 1565TIP3    H226187   3.032   1.214   4.119 -0.5496  0.0224  0.4196
 1566TIP3   OH226188   5.926   1.357  12.117 -0.6029  0.1335  0.2041
 1566TIP3    H126189   5.973   1.431  12.154  1.1146 -0.9339  0.2917
 1566TIP3    H226190   5.835   1.369  12.145 -0.1902  1.6875  0.9875
 1567TIP3   OH226191   5.140   3.628   0.932 -0.1692  0.4279  0.1548
 1567TIP3    H126192   5.073   3.567   0.964 -0.2391  0.5640  0.2708
 1567TIP3    H226193   5.203   3.572   0.887 -0.2805  0.2797  0.1796
 1568TIP3   OH226194   3.056   0.952  13.332 -0.7831  0.3962 -0.2780
 1568TIP3    H126195   3.067   0.857  13.323  0.3646  0.3306  1.2476
 1568TIP3    H226196   2.963   0.967  13.318 -1.4362 -1.2926  1.6544
 1569TIP3   OH226197   3.180   2.457  15.460 -0.2109  0.1362 -0.0940
 1569TIP3    H126198   3.098   2.455  15.410 -0.3735 -0.8529  0.1849
 1569TIP3    H226199   3.228   2.532  15.425 -1.5910  1.2398  0.3090
 1570TIP3   OH226200   5.014   3.617  15.350  0.1989  0.1572 -0.0260
 1570TIP3    H126201   4.943   3.558  15.376  0.4055  0.1489  0.5365
 1570TIP3    H226202   4.977   3.669  15.278  0.1901 -1.0205 -0.9015
 1571TIP3   OH226203   2.923   4.252  14.386 -0.0545  0.0842 -0.1094
 1571TIP3    H126204   2.965   4.302  14.456 -1.8052  1.0642  0.3011
 1571TIP3    H226205   2.941   4.303  14.306 -0.1821  0.3063  0.0044
 1572TIP3   OH226206   1.859   1.520  14.367  0.1927  0.4487 -0.4339
 1572TIP3    H126207   1.823   1.432  14.360  0.8224  0.0280  1.1516
 1572TIP3    H226208   1.782   1.577  14.370 -0.4201 -0.3689  2.0513
 1573TIP3   OH226209   3.827   6.400  12.374  0.2093  0.1690 -0.3776
 1573TIP3    H126210   3.785   6.477  12.414  1.2425 -0.4635  2.1424
 1573TIP3    H226211   3.913   6.432  12.348  0.8593 -0.1994  1.1986
 1574TIP3   OH226212   2.547   2.050  11.937 -0.4193 -0.0746  0.0278
 1574TIP3    H126213   2.515   2.024  12.024 -1.9078 -1.0473 -0.7692
 1574TIP3    H226214   2.511   1.984  11.878  1.9871 -0.4500 -1.1476
 1575TIP3   OH226215   0.120   6.732  12.812 -1.1387 -0.3902 -0.0714
 1575TIP3    H126216   0.213   6.732  12.789 -0.9070 -0.7616  0.8336
 1575TIP3    H226217   0.083   6.657  12.766 -1.3832  0.7963 -1.8947
 1576TIP3   OH226218   6.623   0.522  11.827  0.8685  0.1696  0.7216
 1576TIP3    H126219   6.677   0.548  11.753  0.1870 -0.6892 -0.0978
 1576TIP3    H226220   6.539   0.566  11.814  0.5759 -0.3810  0.7052
 1577TIP3   OH226221   1.810   0.320   4.056  0.7654  0.7092  0.0004
 1577TIP3    H126222   1.886   0.345   4.109  1.4199 -0.6547 -0.2649
 1577TIP3    H226223   1.828   0.230   4.028 -1.6741 -0.2874  1.3010
 1578TIP3   OH226224   4.238   2.700  13.714 -0.4953  0.1542 -0.1737
 1578TIP3    H126225   4.187   2.628  13.750 -0.4977 -0.0087 -0.4999
 1578TIP3    H226226   4.256   2.674  13.624  0.6590 -0.0496  0.1026
 1579TIP3   OH226227   4.835   1.442   1.409 -0.6889  0.3056 -0.4739
 1579TIP3    H126228   4.760   1.404   1.455  0.5219 -2.3052 -0.4597
 1579TIP3    H226229   4.830   1.406   1.321  1.5149 -1.6058  0.0609
 1580TIP3   OH226230   1.969   1.806   3.735 -0.0665  0.1156 -0.2857
 1580TIP3    H126231   2.008   1.743   3.794 -0.8466  0.8789  1.1070
 1580TIP3    H226232   2.036   1.874   3.724 -0.0251  0.1175 -0.0280
 1581TIP3   OH226233   6.013   3.102  13.499 -0.4253 -0.1409 -0.0452
 1581TIP3    H126234   5.970   3.180  13.466 -1.5342 -0.2309  1.1184
 1581TIP3    H226235   6.040   3.054  13.421  1.0030  1.7491 -0.8021
 1582TIP3   OH226236   0.677   5.521  13.403  0.3376 -0.2289  0.3264
 1582TIP3    H126237   0.699   5.573  13.326  1.4091 -1.6181 -0.3638
 1582TIP3    H226238   0.697   5.578  13.478  1.2295  0.4346 -0.3961
 1583TIP3   OH226239   1.274   1.006  13.205  0.0742 -0.6962  0.9359
 1583TIP3    H126240   1.190   0.988  13.248 -0.2185 -1.3103  0.1264
 1583TIP3    H226241   1.260   1.088  13.159 -0.1937 -0.9494  0.5526
 1584TIP3   OH226242   4.157   4.884  13.135  0.3389  0.9236  0.5524
 1584TIP3    H126243   4.249   4.858  13.130  0.0026 -0.3068  0.4370
 1584TIP3    H226244   4.113   4.832  13.067 -0.6687  0.4414  1.5305
 1585TIP3   OH226245   4.940   2.722  14.341 -0.1835  0.3047 -0.3967
 1585TIP3    H126246   4.951   2.665  14.265 -1.8450  1.0652 -1.2707
 1585TIP3    H226247   4.873   2.679  14.393  0.4662  0.1284  0.2981
 1586TIP3   OH226248   4.115   3.819   1.722  0.6534  0.0041  0.0949
 1586TIP3    H126249   4.058   3.862   1.786  1.0406  0.0970  0.3808
 1586TIP3    H226250   4.143   3.890   1.664  1.7572  0.2711  0.9094
 1587TIP3   OH226251   1.099   4.788   4.911  0.2653 -0.3992 -0.1248
 1587TIP3    H126252   1.114   4.800   5.005 -0.0272  1.4221 -0.2892
 1587TIP3    H226253   1.007   4.809   4.898  0.2678 -0.7759 -0.8064
 1588TIP3   OH226254   1.155   4.287  13.060 -0.0608  0.1424  0.4703
 1588TIP3    H126255   1.063   4.267  13.042 -0.4715  1.7377  0.6926
 1588TIP3    H226256   1.190   4.321  12.977 -0.0890  0.9569  0.7830
 1589TIP3   OH226257   5.619   4.313   4.555 -0.3117 -0.9314 -0.1111
 1589TIP3    H126258   5.579   4.295   4.640 -1.4975  0.9059 -0.2058
 1589TIP3    H226259   5.547   4.347   4.502  0.9160  0.4446 -0.9903
 1590TIP3   OH226260   4.977   3.566  12.060  0.0816 -0.2216  0.0661
 1590TIP3    H126261   4.965   3.585  12.153  2.3325 -0.9983  0.5682
 1590TIP3    H226262   4.975   3.652  12.018 -1.1911  0.1210  0.7765
 1591TIP3   OH226263   0.190   4.129  12.618  0.2406 -0.5594  0.2265
 1591TIP3    H126264   0.267   4.130  12.562 -2.7675  1.7602 -4.4776
 1591TIP3    H226265   0.187   4.216  12.658 -0.7536  0.0417 -1.0815
 1592TIP3   OH226266   4.933   2.360  12.307  0.6149 -0.0456 -0.2005
 1592TIP3    H126267   4.995   2.321  12.369 -2.2376  0.3855  3.3106
 1592TIP3    H226268   4.884   2.285  12.272 -0.2072 -0.1268  1.0548
 1593TIP3   OH226269   3.624   2.372   3.194 -0.3928 -0.4958 -0.1463
 1593TIP3    H126270   3.677   2.417   3.129 -0.2443 -0.5890 -0.0913
 1593TIP3    H226271   3.547   2.427   3.206 -0.3779 -0.4351 -0.3361
 1594TIP3   OH226272   5.756   1.727  15.175 -0.0673  0.4245 -0.2383
 1594TIP3    H126273   5.821   1.748  15.242  0.7022  0.9707 -1.1324
 1594TIP3    H226274   5.796   1.658  15.122 -0.9836 -0.5465  0.2991
 1595TIP3   OH226275   5.203   5.460   0.138 -0.3439  0.7406 -0.3170
 1595TIP3    H126276   5.171   5.370   0.141 -0.5531  0.8392  0.8577
 1595TIP3    H226277   5.141   5.506   0.082 -0.5314  0.2753 -0.4956
 1596TIP3   OH226278   4.832   4.046   0.643  0.3082 -0.1317  0.2398
 1596TIP3    H126279   4.824   3.962   0.688 -1.1327 -0.9771 -1.4544
 1596TIP3    H226280   4.877   4.025   0.562 -1.2554  0.4163 -0.8228
 1597TIP3   OH226281   3.059   0.635   0.735  0.1043 -0.0777  0.2560
 1597TIP3    H126282   2.971   0.650   0.702  0.8396 -0.3685 -1.9930
 1597TIP3    H226283   3.091   0.723   0.758  0.0660  0.3506 -1.2399
 1598TIP3   OH226284   6.164   4.113  17.049 -0.1075  0.1416 -0.0812
 1598TIP3    H126285   6.203   4.065  16.977  0.4762  2.4300 -1.3972
 1598TIP3    H226286   6.071   4.121  17.025 -0.3969 -1.0507  0.5864
 1599TIP3   OH226287   5.367   0.615  16.818 -0.0375 -0.3820 -0.3228
 1599TIP3    H126288   5.344   0.573  16.902 -1.6078  2.0052  0.5436
 1599TIP3    H226289   5.309   0.574  16.754  0.0239 -1.0853  0.0660
 1600TIP3   OH226290   3.870   0.437   3.112  0.0464  0.4150  0.2242
 1600TIP3    H126291   3.848   0.526   3.085 -2.4189 -0.1865  0.0393
 1600TIP3    H226292   3.903   0.395   3.032  0.5931  0.9585  0.1577
 1601TIP3   OH226293   4.956   5.033  16.174  0.2882 -0.6055 -0.5986
 1601TIP3    H126294   4.897   5.072  16.109  1.5011 -0.0388 -1.3877
 1601TIP3    H226295   4.988   5.108  16.225 -0.2602 -0.9944  0.3567
 1602TIP3   OH226296   0.056   2.926  11.244 -0.5214  0.1318 -0.0844
 1602TIP3    H126297  -0.039   2.920  11.244 -0.5836  0.2590  2.1856
 1602TIP3    H226298   0.087   2.837  11.226 -1.0158  0.2305 -1.5685
 1603TIP3   OH226299   3.693   3.855   0.725  0.0825 -0.0437  0.4150
 1603TIP3    H126300   3.784   3.863   0.755  0.0035 -0.0665  0.6691
 1603TIP3    H226301   3.644   3.837   0.805 -0.1360 -0.1058  0.2669
 1604TIP3   OH226302   0.032   1.793   3.274  0.0554 -0.2451  0.1857
 1604TIP3    H126303   0.105   1.739   3.243 -1.3819 -1.6177 -0.9714
 1604TIP3    H226304   0.027   1.774   3.368 -0.1427 -1.8252 -0.1174
 1605TIP3   OH226305   4.770   3.166  12.993 -0.1706  0.1366  0.1443
 1605TIP3    H126306   4.850   3.206  12.958  0.2002 -0.9668 -0.3041
 1605TIP3    H226307   4.712   3.240  13.008  1.1813  1.0475  1.1625
 1606TIP3   OH226308   1.197   5.461  16.466 -0.5250  0.3995  0.3841
 1606TIP3    H126309   1.131   5.530  16.477  0.7036  1.5970  0.5711
 1606TIP3    H226310   1.255   5.471  16.541 -0.5543 -1.1475  0.6477
 1607TIP3   OH226311   5.530   5.345   3.847 -0.4441 -0.1275  0.2156
 1607TIP3    H126312   5.438   5.321   3.857  0.1209 -2.8718 -0.2697
 1607TIP3    H226313   5.536   5.380   3.759 -0.5576 -3.1803 -1.1467
 1608TIP3   OH226314   6.569   2.030  12.502  0.6919  0.7161 -0.5461
 1608TIP3    H126315   6.602   1.948  12.466  0.0326 -0.0516  0.5414
 1608TIP3    H226316   6.616   2.041  12.585 -1.5600 -0.3120  0.9574
 1609TIP3   OH226317   5.551   6.562  16.403  0.3846  0.0778  0.3876
 1609TIP3    H126318   5.586   6.493  16.347 -0.4408  1.5596 -2.1206
 1609TIP3    H226319   5.622   6.625  16.411  0.3377  0.0998  0.6517
 1610TIP3   OH226320   4.755   3.683  12.525  0.3032 -0.3677 -0.0144
 1610TIP3    H126321   4.673   3.658  12.570 -1.2305 -0.2083 -2.5318
 1610TIP3    H226322   4.812   3.715  12.595 -1.7311 -0.6130  1.8667
 1611TIP3   OH226323   3.581   4.496  16.372 -0.0015  1.0044 -0.1051
 1611TIP3    H126324   3.576   4.592  16.374 -1.5085  0.9570  2.0176
 1611TIP3    H226325   3.631   4.477  16.293 -0.8141  3.4968 -1.3616
 1612TIP3   OH226326   5.073   5.075   4.172  0.2280 -0.6911 -0.0505
 1612TIP3    H126327   4.990   5.033   4.149 -0.5324  1.4571 -1.6208
 1612TIP3    H226328   5.059   5.168   4.151  2.9939 -0.2245 -0.1889
 1613TIP3   OH226329   0.237   6.760  16.328 -0.7266 -0.0997  0.0234
 1613TIP3    H126330   0.202   6.676  16.359 -0.8280 -0.1344 -0.1873
 1613TIP3    H226331   0.205   6.824  16.391  0.3918 -0.3820  0.9351
 1614TIP3   OH226332   3.719   5.028  11.572 -0.0420 -0.2257 -0.3815
 1614TIP3    H126333   3.674   4.970  11.512 -0.6570 -2.2767  1.8993
 1614TIP3    H226334   3.797   4.980  11.599  1.5139  1.6369 -1.2402
 1615TIP3   OH226335   3.092   3.316  11.281  0.5343 -0.0167 -0.0663
 1615TIP3    H126336   3.186   3.327  11.264  0.2756  0.7345 -1.1185
 1615TIP3    H226337   3.050   3.384  11.228 -0.6667 -0.9177 -0.3040
 1616TIP3   OH226338   1.364   1.537  11.502 -0.2748  0.6740 -0.3580
 1616TIP3    H126339   1.368   1.466  11.438 -0.3268  0.2578  0.0978
 1616TIP3    H226340   1.270   1.552  11.516 -0.2712  0.0331  0.4186
 1617TIP3   OH226341   4.513   4.456   0.893  0.2018 -0.4360  0.0189
 1617TIP3    H126342   4.514   4.499   0.808 -1.5994 -1.6730 -0.7018
 1617TIP3    H226343   4.506   4.362   0.873 -1.3863 -0.6912  1.4817
 1618TIP3   OH226344   3.437   4.160  14.146 -0.2708  0.1769  0.0946
 1618TIP3    H126345   3.488   4.228  14.102 -1.1664 -0.3469 -1.8671
 1618TIP3    H226346   3.438   4.086  14.085 -1.2237 -0.7529  1.1648
 1619TIP3   OH226347   0.407   5.274   3.535 -0.5366 -0.2694 -0.4777
 1619TIP3    H126348   0.372   5.333   3.468 -0.2709  0.8227  0.3323
 1619TIP3    H226349   0.358   5.295   3.614  1.3015  0.7030  0.4721
 1620TIP3   OH226350   3.006   1.078   2.839  0.0403 -0.0411 -0.1758
 1620TIP3    H126351   3.053   1.037   2.912 -0.7880 -1.2224 -0.2651
 1620TIP3    H226352   2.965   1.004   2.793 -0.5219  0.8027 -1.0671
 1621TIP3   OH226353   4.085   4.037   3.315  0.6378  0.0466  0.7587
 1621TIP3    H126354   4.023   4.109   3.305 -0.6849 -1.2321 -0.5757
 1621TIP3    H226355   4.130   4.056   3.397 -0.0454  2.1011  0.7082
 1622TIP3   OH226356   3.353   0.505  10.706  0.0006  0.1875  0.0654
 1622TIP3    H126357   3.408   0.433  10.738 -0.7380 -1.0454 -1.3141
 1622TIP3    H226358   3.264   0.478  10.728 -0.3394  0.3654 -1.0502
 1623TIP3   OH226359   6.583   5.634   2.245  0.1124  0.2859  0.2721
 1623TIP3    H126360   6.581   5.685   2.164  0.2957 -0.1451 -0.0114
 1623TIP3    H226361   6.501   5.584   2.243  0.2778  0.0154  0.1771
 1624TIP3   OH226362   3.323   1.472  14.746 -0.3617 -0.2342  0.1591
 1624TIP3    H126363   3.329   1.451  14.652 -0.7774  0.6511 -0.0780
 1624TIP3    H226364   3.406   1.517  14.765 -0.1869 -0.6026  0.2654
 1625TIP3   OH226365   5.478   4.379  15.764  0.2773  0.3381  0.1622
 1625TIP3    H126366   5.428   4.424  15.832  0.4944 -0.4402  0.8635
 1625TIP3    H226367   5.562   4.424  15.762 -0.2497  1.3095 -0.6454
 1626TIP3   OH226368   4.762   3.690  11.549 -0.3187 -0.3650  0.3612
 1626TIP3    H126369   4.733   3.637  11.475  0.2688  0.6584 -0.6419
 1626TIP3    H226370   4.817   3.631  11.600  0.2382 -0.7886 -0.6798
 1627TIP3   OH226371   5.006   6.009   6.193  0.2767 -0.4770  0.2120
 1627TIP3    H126372   4.929   5.953   6.198 -0.3785  0.3768 -0.1036
 1627TIP3    H226373   4.977   6.086   6.144  1.8472 -1.0164 -1.7069
 1628TIP3   OH226374   4.483   5.699  11.138  0.0243 -0.1551  0.4892
 1628TIP3    H126375   4.418   5.674  11.073 -0.8760  0.1910  1.2403
 1628TIP3    H226376   4.564   5.710  11.088 -0.4178 -0.8896 -0.4074
 1629TIP3   OH226377   4.712   6.362   6.286 -0.4497 -0.1947  0.7319
 1629TIP3    H126378   4.634   6.307   6.274 -0.6648  0.4906 -1.4731
 1629TIP3    H226379   4.738   6.346   6.377 -1.6504 -2.4117  0.7794
 1630TIP3   OH226380   6.635   4.829  10.227  0.6471  0.6995 -0.2782
 1630TIP3    H126381   6.579   4.751  10.229 -1.1042  1.8349 -1.7027
 1630TIP3    H226382   6.587   4.895  10.276  1.8290  1.1152  0.3815
 1631TIP3   OH226383   2.669   5.393   5.533 -0.4781 -0.0091 -0.9361
 1631TIP3    H126384   2.618   5.311   5.534  0.1190 -0.3974  0.3858
 1631TIP3    H226385   2.672   5.418   5.441 -2.3476 -0.4046 -1.1570
 1632TIP3   OH226386   4.034   5.852  14.988 -0.2739 -0.1335  0.1705
 1632TIP3    H126387   4.051   5.789  14.918 -0.0884 -1.9467  1.7879
 1632TIP3    H226388   3.945   5.831  15.017 -0.2856  0.5018  0.6037
 1633TIP3   OH226389   6.148   2.186   6.031  0.2710  0.2297  0.2735
 1633TIP3    H126390   6.199   2.130   6.090  1.9016  0.0759 -1.2164
 1633TIP3    H226391   6.094   2.125   5.980  1.6704  0.0115 -0.9948
 1634TIP3   OH226392   1.902   0.447   5.319 -0.2030 -0.8309 -0.0605
 1634TIP3    H126393   1.854   0.490   5.390 -2.2954 -1.4998 -1.0119
 1634TIP3    H226394   1.969   0.396   5.364 -1.1035 -0.7700  1.4070
 1635TIP3   OH226395   4.899   6.586   5.693  0.1306 -0.5173  0.3133
 1635TIP3    H126396   4.827   6.624   5.643  0.3895  1.6409  1.4647
 1635TIP3    H226397   4.949   6.536   5.628  0.3516  1.9752 -1.5951
 1636TIP3   OH226398   2.159   2.738   4.123  0.4413  0.5860  0.0644
 1636TIP3    H126399   2.124   2.672   4.063 -0.2346  1.6769 -0.7650
 1636TIP3    H226400   2.085   2.762   4.178  0.6882  0.6574  0.3647
 1637TIP3   OH226401   5.185   1.822  15.067  0.2232 -0.3080  0.1112
 1637TIP3    H126402   5.256   1.765  15.038  0.5081  0.1101 -0.0246
 1637TIP3    H226403   5.229   1.899  15.104 -0.1544 -0.1156  0.1708
 1638TIP3   OH226404   6.297   5.828   3.137 -0.3694  0.0566 -0.2750
 1638TIP3    H126405   6.256   5.742   3.130  0.2679 -0.3132  0.3562
 1638TIP3    H226406   6.355   5.821   3.213  1.1121  0.4561 -1.3255
 1639TIP3   OH226407   1.912   1.084   1.608  0.4540 -0.3376 -0.1162
 1639TIP3    H126408   1.863   1.160   1.639  0.2111 -0.5880  0.1182
 1639TIP3    H226409   1.851   1.038   1.550  0.8102 -0.0219 -0.7551
 1640TIP3   OH226410   1.671   5.431   1.097  0.2069 -0.1170 -0.0980
 1640TIP3    H126411   1.606   5.381   1.146  1.3037 -0.8468  0.6525
 1640TIP3    H226412   1.619   5.481   1.033 -1.2457  0.7336  1.6520
 1641TIP3   OH226413   0.659   4.043   2.397  0.2827  0.7485  0.5501
 1641TIP3    H126414   0.654   4.132   2.362  0.4828  0.3434 -0.5509
 1641TIP3    H226415   0.680   4.055   2.489 -0.4279  1.8632  0.5964
 1642TIP3   OH226416   5.856   3.751   3.849 -0.5027  0.5379 -0.0280
 1642TIP3    H126417   5.941   3.773   3.810 -0.2234 -2.8403 -1.6630
 1642TIP3    H226418   5.879   3.708   3.932 -0.6763  0.5609  0.0317
 1643TIP3   OH226419   1.185   2.573  13.427  0.7482 -0.2927  0.0757
 1643TIP3    H126420   1.098   2.536  13.418 -0.0534  1.2584  0.9205
 1643TIP3    H226421   1.219   2.579  13.338  0.2309 -1.4091 -0.2124
 1644TIP3   OH226422   0.714   6.132  16.352  0.3627  0.2617 -0.1378
 1644TIP3    H126423   0.658   6.175  16.287 -1.6175 -0.4867  0.9735
 1644TIP3    H226424   0.745   6.053  16.308  0.1223  0.4283 -0.6172
 1645TIP3   OH226425   5.032   5.038   3.314 -0.1600 -0.6128  0.1496
 1645TIP3    H126426   5.012   4.984   3.237 -0.1317 -0.6244  0.1501
 1645TIP3    H226427   4.983   4.996   3.385 -0.9736 -0.0318 -0.0521
 1646TIP3   OH226428   0.807   2.529   5.533  0.3549 -0.0849 -0.6237
 1646TIP3    H126429   0.855   2.481   5.466  0.2175 -1.3026  0.1173
 1646TIP3    H226430   0.860   2.607   5.549  0.8763 -0.2513 -1.4543
 1647TIP3   OH226431   5.420   1.144   0.712 -0.9030  0.1173 -0.6321
 1647TIP3    H126432   5.416   1.210   0.642 -0.9717  0.0633 -0.6794
 1647TIP3    H226433   5.414   1.195   0.793  5.2144  0.9862 -0.2230
 1648TIP3   OH226434   1.707   3.562  12.145  0.4263 -0.2822  0.0895
 1648TIP3    H126435   1.729   3.539  12.055 -0.3895 -1.5451  0.1967
 1648TIP3    H226436   1.693   3.657  12.142  0.1828 -0.3364 -1.1643
 1649TIP3   OH226437   1.687   4.843  16.852 -0.1261 -0.0372  0.6026
 1649TIP3    H126438   1.604   4.837  16.804  0.3671  0.3652 -0.3230
 1649TIP3    H226439   1.664   4.820  16.942 -1.2790  0.2541  0.3994
 1650TIP3   OH226440   5.777   2.657   3.050 -0.1592 -0.8208  0.6101
 1650TIP3    H126441   5.757   2.703   3.132 -2.6458  0.2721 -0.5125
 1650TIP3    H226442   5.862   2.693   3.022 -0.6223  0.8830  1.2923
 1651TIP3   OH226443   1.870   6.011  12.002  0.0286  0.0504 -0.0708
 1651TIP3    H126444   1.861   5.917  12.017 -0.7387  0.1045 -0.1640
 1651TIP3    H226445   1.927   6.018  11.925 -1.7505 -0.4181 -1.5078
 1652TIP3   OH226446   3.335   1.490   1.622 -0.1993 -0.1581 -0.3995
 1652TIP3    H126447   3.363   1.571   1.581 -1.1990 -0.9611 -2.8615
 1652TIP3    H226448   3.391   1.423   1.584 -1.3556 -0.9808 -0.7240
 1653TIP3   OH226449   3.824   6.263   3.518  0.1939 -0.5621  0.1751
 1653TIP3    H126450   3.832   6.258   3.613 -0.5390  0.3324  0.2984
 1653TIP3    H226451   3.869   6.344   3.495  2.5480 -1.9657 -0.5498
 1654TIP3   OH226452   6.462   3.976  11.529  0.3886  0.6362 -0.2794
 1654TIP3    H126453   6.476   4.049  11.469  0.7936  1.8631  1.2437
 1654TIP3    H226454   6.547   3.930  11.530  0.8491  1.4683  0.4203
 1655TIP3   OH226455   4.771   0.943  16.647  0.1373  0.5771  0.1561
 1655TIP3    H126456   4.835   0.913  16.711 -0.9659 -0.6424  0.7281
 1655TIP3    H226457   4.687   0.941  16.693 -0.3884  1.7212 -0.7067
 1656TIP3   OH226458   0.067   5.425  12.056  0.3551 -0.2802  0.0199
 1656TIP3    H126459   0.123   5.356  12.022 -0.3947 -0.5341 -0.7315
 1656TIP3    H226460   0.010   5.381  12.120  0.0178 -0.3189 -0.3053
 1657TIP3   OH226461   5.736   6.805   6.439 -0.3735 -0.3181 -0.6401
 1657TIP3    H126462   5.670   6.826   6.505 -0.1215 -1.5165  0.0186
 1657TIP3    H226463   5.815   6.849   6.469 -0.5613  0.1291 -0.7926
 1658TIP3   OH226464   3.384   5.794  12.621 -0.0819 -0.3321 -0.1702
 1658TIP3    H126465   3.431   5.877  12.614  0.8699 -0.6770  1.5840
 1658TIP3    H226466   3.448   5.728  12.594 -0.4528 -0.5929 -0.4213
 1659TIP3   OH226467   1.234   1.792   3.747  0.1160 -0.4274 -0.1774
 1659TIP3    H126468   1.244   1.759   3.657  2.1078 -1.0859  0.2297
 1659TIP3    H226469   1.197   1.880   3.736  1.7975  0.1678 -1.7948
 1660TIP3   OH226470   0.800   5.528   2.191  0.0643 -0.2138 -0.2367
 1660TIP3    H126471   0.768   5.438   2.182  0.0322 -0.1914 -0.3426
 1660TIP3    H226472   0.883   5.519   2.239  1.9615 -0.6536 -3.3038
 1661TIP3   OH226473   4.027   0.388  12.503  0.3982 -0.2764 -0.2750
 1661TIP3    H126474   3.932   0.398  12.502  0.2316 -1.4051  1.0410
 1661TIP3    H226475   4.047   0.340  12.423  0.0690  1.2584 -1.3331
 1662TIP3   OH226476   0.396   5.106   1.760  0.2013 -0.0971 -0.0722
 1662TIP3    H126477   0.375   5.077   1.848 -0.9993  1.6930  0.2994
 1662TIP3    H226478   0.316   5.089   1.710  0.1096  0.8377 -0.2659
 1663TIP3   OH226479   5.379   2.471  11.653 -0.2743  0.0810  0.3147
 1663TIP3    H126480   5.316   2.539  11.677 -0.3393 -0.5865  2.2391
 1663TIP3    H226481   5.374   2.408  11.725  1.6878 -0.6293 -0.1081
 1664TIP3   OH226482   2.584   4.809  12.390 -0.1474  0.0131 -0.0531
 1664TIP3    H126483   2.634   4.809  12.472  1.0115  0.4051 -0.7290
 1664TIP3    H226484   2.583   4.900  12.362  0.7844 -0.3108 -1.2254
 1665TIP3   OH226485   6.081   2.302   5.407  0.1082 -0.0485  0.0324
 1665TIP3    H126486   6.064   2.364   5.478  1.4826 -0.3774  0.6803
 1665TIP3    H226487   5.997   2.257   5.394  0.2313 -1.3202  2.7736
 1666TIP3   OH226488   0.457   1.291  16.202 -0.1510 -0.2243  0.3532
 1666TIP3    H126489   0.476   1.329  16.288  0.0443  1.7089 -0.4787
 1666TIP3    H226490   0.507   1.345  16.141  0.0522 -1.8279 -0.9593
 1667TIP3   OH226491   5.363   5.383  16.396  0.3661  0.4118 -0.2859
 1667TIP3    H126492   5.443   5.369  16.345 -0.7275 -0.0098 -2.0131
 1667TIP3    H226493   5.318   5.298  16.392 -0.4283  0.8024  0.1271
 1668TIP3   OH226494   3.722   4.685  13.999  0.1204  0.1648  0.3237
 1668TIP3    H126495   3.669   4.747  13.948 -0.6982 -0.8764 -0.1500
 1668TIP3    H226496   3.666   4.608  14.008  0.4246  0.1381  2.4447
 1669TIP3   OH226497   1.470   3.795  13.168 -0.5526 -0.1114 -0.4658
 1669TIP3    H126498   1.537   3.850  13.126  0.5274  0.5926  2.0064
 1669TIP3    H226499   1.434   3.849  13.238 -0.7788 -1.8998  0.8771
 1670TIP3   OH226500   6.199   6.278  15.827 -0.0246  0.3281  0.3724
 1670TIP3    H126501   6.111   6.311  15.813  0.2127  0.7944 -0.0482
 1670TIP3    H226502   6.233   6.261  15.739 -0.6267 -2.3826  0.5822
 1671TIP3   OH226503   6.192   5.750  17.035 -0.2316 -0.1089 -0.7208
 1671TIP3    H126504   6.120   5.703  16.993 -0.7243  0.9433 -1.0898
 1671TIP3    H226505   6.182   5.840  17.006  1.0274  0.1270 -0.4723
 1672TIP3   OH226506   1.045   4.279  15.725 -0.0922 -0.0109 -0.0323
 1672TIP3    H126507   1.127   4.327  15.739  0.7508 -1.2841 -0.4824
 1672TIP3    H226508   1.032   4.229  15.805  0.8251 -1.6032 -0.8465
 1673TIP3   OH226509   4.361   0.243  12.564 -0.0235 -0.0594 -0.5749
 1673TIP3    H126510   4.424   0.189  12.611 -0.5749 -0.4942 -0.3209
 1673TIP3    H226511   4.413   0.290  12.499  0.6186 -0.1134 -0.1104
 1674TIP3   OH226512   6.654   0.180  11.474 -0.1153  0.2489 -0.2130
 1674TIP3    H126513   6.688   0.172  11.564  1.4558  0.1602 -0.7886
 1674TIP3    H226514   6.648   0.089  11.443 -2.2247  0.1575  0.3218
 1675TIP3   OH226515   0.871   2.669  11.472 -0.1240 -0.0927  0.0448
 1675TIP3    H126516   0.830   2.680  11.386 -1.0493  0.8149  0.5842
 1675TIP3    H226517   0.856   2.753  11.516  0.4245 -0.5184  1.0626
 1676TIP3   OH226518   1.705   5.239  14.376 -0.4810  0.4465 -0.4100
 1676TIP3    H126519   1.736   5.274  14.292  1.9619 -1.5257 -0.4656
 1676TIP3    H226520   1.693   5.145  14.359  1.0962 -0.2073  1.6345
 1677TIP3   OH226521   2.722   0.436  11.517 -0.1344 -0.2894 -0.4206
 1677TIP3    H126522   2.780   0.497  11.564 -0.5794 -0.0494 -0.1758
 1677TIP3    H226523   2.656   0.492  11.476 -0.4042 -0.5854 -0.3943
 1678TIP3   OH226524   4.110   6.248   0.963 -0.4603 -0.6849 -0.0355
 1678TIP3    H126525   4.081   6.230   1.052  1.3842 -1.4563  0.4539
 1678TIP3    H226526   4.130   6.341   0.961 -1.4742 -0.4627  0.0523
 1679TIP3   OH226527   0.912   4.501   3.349 -0.0439  0.0083 -0.8437
 1679TIP3    H126528   0.831   4.551   3.334  0.5838  1.1079 -0.6767
 1679TIP3    H226529   0.883   4.422   3.393 -0.9771  0.7025 -0.1679
 1680TIP3   OH226530   0.613   2.979  13.219  0.3500 -0.1586  0.6831
 1680TIP3    H126531   0.654   2.909  13.168  2.1298  1.2250  0.0874
 1680TIP3    H226532   0.621   2.951  13.310 -0.2519 -1.3555  0.3855
 1681TIP3   OH226533   3.072   3.739  16.691  0.0001 -0.0966 -0.4261
 1681TIP3    H126534   3.085   3.800  16.618  0.2528  1.1107  0.5852
 1681TIP3    H226535   3.157   3.737  16.736 -0.4614  0.0475  0.4690
 1682TIP3   OH226536   4.637   0.780  11.547  0.0522 -0.1991 -0.4865
 1682TIP3    H126537   4.660   0.858  11.496  3.8446  0.5286  1.9276
 1682TIP3    H226538   4.685   0.708  11.504  0.7502 -0.1599  0.1991
 1683TIP3   OH226539   3.347   0.462   1.642 -0.4006 -0.6785 -0.1885
 1683TIP3    H126540   3.289   0.442   1.569 -0.8714  0.0378 -0.0190
 1683TIP3    H226541   3.435   0.440   1.611 -0.5429  0.0573 -1.1344
 1684TIP3   OH226542   4.709   3.390   0.329 -0.2212 -0.3130  0.1467
 1684TIP3    H126543   4.778   3.337   0.370  1.5966  1.0138 -1.0491
 1684TIP3    H226544   4.672   3.333   0.262  0.3312 -0.7560  0.2077
 1685TIP3   OH226545   2.224   6.594  14.167  0.4296 -0.0752 -0.5671
 1685TIP3    H126546   2.152   6.556  14.216  1.1548 -1.0314 -0.2139
 1685TIP3    H226547   2.184   6.625  14.086 -0.5536  0.3594  0.0644
 1686TIP3   OH226548   0.831   4.463  14.978  0.0598  0.1974 -0.1050
 1686TIP3    H126549   0.851   4.407  14.903  0.6736 -1.9176  1.5426
 1686TIP3    H226550   0.898   4.531  14.975  1.4868 -1.1628 -0.2163
 1687TIP3   OH226551   6.501   1.995  15.264  0.0452 -0.1160  0.4626
 1687TIP3    H126552   6.536   2.083  15.252  1.4027 -0.6296  0.3952
 1687TIP3    H226553   6.447   2.000  15.343  2.3680  0.1881  2.1229
 1688TIP3   OH226554   6.428   6.809  17.011 -0.1500  0.3500 -0.2689
 1688TIP3    H126555   6.351   6.799  16.955  0.1425  0.0676 -0.6231
 1688TIP3    H226556   6.500   6.824  16.950  0.3586 -1.0159 -0.0299
 1689TIP3   OH226557   1.581   4.507  13.588 -0.5607  0.1280  0.4666
 1689TIP3    H126558   1.655   4.480  13.534 -1.2952  0.5656 -0.8068
 1689TIP3    H226559   1.618   4.571  13.649  0.0003  0.8407 -0.5922
 1690TIP3   OH226560   2.074   6.767  12.317  0.4787  0.0897  0.4839
 1690TIP3    H126561   2.111   6.690  12.361  0.9418  0.1714  0.2446
 1690TIP3    H226562   2.079   6.837  12.383 -0.6164 -0.2528  0.9505
 1691TIP3   OH226563   3.160   3.614  11.831  0.1253  0.5153  0.4366
 1691TIP3    H126564   3.191   3.690  11.880 -1.3690  0.9296  0.7947
 1691TIP3    H226565   3.081   3.585  11.878 -0.8036  0.3335 -1.1597
 1692TIP3   OH226566   0.098   6.195   0.215  0.0377  0.0465 -0.4252
 1692TIP3    H126567   0.117   6.195   0.309 -1.6797  0.4023 -0.0366
 1692TIP3    H226568   0.127   6.109   0.185  0.9849  0.0826  0.3417
 1693TIP3   OH226569   3.968   6.254   0.459  0.1835  0.0471  0.1318
 1693TIP3    H126570   3.984   6.292   0.545  0.8339 -1.8400  0.8839
 1693TIP3    H226571   3.991   6.324   0.398  0.2511  1.2325  1.4615
 1694TIP3   OH226572   3.975   2.498   6.469  0.1943  0.0256  0.9082
 1694TIP3    H126573   4.040   2.565   6.447 -0.8989  0.9591  0.4542
 1694TIP3    H226574   3.912   2.543   6.524 -0.7289 -0.5434  0.3404
 1695TIP3   OH226575   3.623   4.426  14.069 -0.2978  0.3624 -0.2671
 1695TIP3    H126576   3.546   4.405  14.016  0.0979 -2.8197  0.2698
 1695TIP3    H226577   3.697   4.391  14.021  0.7876  2.4386 -0.2452
 1696TIP3   OH226578   2.179   5.505  12.390 -0.7940  0.0601 -0.7770
 1696TIP3    H126579   2.107   5.553  12.349 -0.3554  0.1011 -1.5195
 1696TIP3    H226580   2.200   5.556  12.469 -1.3622  0.2171 -0.7241
 1697TIP3   OH226581   5.164   5.098  15.170 -0.0487  0.3665 -0.4655
 1697TIP3    H126582   5.084   5.048  15.154  0.9010 -1.7113  0.8098
 1697TIP3    H226583   5.150   5.182  15.125 -3.4178  0.5863  0.7248
 1698TIP3   OH226584   4.235   4.887   6.685  0.0526 -0.4319 -0.0797
 1698TIP3    H126585   4.265   4.892   6.776 -1.4295  1.3678  0.3521
 1698TIP3    H226586   4.157   4.832   6.688  0.8602 -1.6616 -0.5562
 1699TIP3   OH226587   0.062   4.829  15.541 -0.3740 -0.0571 -0.4815
 1699TIP3    H126588   0.047   4.737  15.561 -0.2347 -0.2623 -1.2809
 1699TIP3    H226589   0.119   4.860  15.611 -1.5596 -0.2022  0.5771
 1700TIP3   OH226590   5.089   2.802   5.590  0.2877  0.2343  0.2053
 1700TIP3    H126591   5.037   2.832   5.664  0.8980 -0.6482  1.0257
 1700TIP3    H226592   5.122   2.882   5.549 -1.5066  0.8081 -0.2178
 1701TIP3   OH226593   2.666   2.450   0.677 -0.1885 -0.6324 -0.1316
 1701TIP3    H126594   2.588   2.398   0.656  0.2226 -0.7335 -1.5327
 1701TIP3    H226595   2.661   2.525   0.618  0.7989 -0.6749 -0.2942
 1702TIP3   OH226596   2.168   2.799   3.631  0.9889 -0.1721 -0.2431
 1702TIP3    H126597   2.109   2.730   3.600  0.9832 -0.4155  0.3043
 1702TIP3    H226598   2.221   2.757   3.699  2.3813 -0.1869 -1.2971
 1703TIP3   OH226599   5.927   2.139   0.927  0.4354 -0.3095  0.1341
 1703TIP3    H126600   5.840   2.165   0.959  0.9693  0.0746  1.3269
 1703TIP3    H226601   5.910   2.101   0.841 -0.8255  0.5163 -0.0148
 1704TIP3   OH226602   5.050   3.337   5.921 -0.0693 -0.1946  0.6360
 1704TIP3    H126603   5.067   3.364   6.011 -0.0471 -0.5655  0.7417
 1704TIP3    H226604   4.979   3.274   5.927  0.8776 -1.2983  0.5446
 1705TIP3   OH226605   2.012   2.581  16.408 -0.1414 -0.0199 -0.2023
 1705TIP3    H126606   2.012   2.677  16.412 -1.2476 -0.0659  1.7400
 1705TIP3    H226607   2.091   2.555  16.455  0.9438 -0.0724 -1.9789
 1706TIP3   OH226608   1.311   4.597  14.749 -0.9103  0.0225 -0.5141
 1706TIP3    H126609   1.277   4.513  14.780 -1.2107  0.1626 -0.4565
 1706TIP3    H226610   1.374   4.573  14.681  1.8929 -0.4279  2.0716
 1707TIP3   OH226611   5.223   3.254  15.945  0.4393 -0.4920 -0.0872
 1707TIP3    H126612   5.306   3.249  15.898 -0.2815  2.2443 -1.8413
 1707TIP3    H226613   5.162   3.294  15.884 -0.8456  2.4116  2.7748
 1708TIP3   OH226614   4.142   5.662   4.014  0.2433 -0.0695 -0.7281
 1708TIP3    H126615   4.114   5.745   3.975 -1.1541 -0.0135  0.2989
 1708TIP3    H226616   4.169   5.608   3.939 -0.9185  0.5568 -1.6341
 1709TIP3   OH226617   1.853   4.858  12.073  0.0603  0.3022  0.0416
 1709TIP3    H126618   1.791   4.851  12.145 -2.0014 -1.3124 -1.7583
 1709TIP3    H226619   1.908   4.780  12.081  0.3583  0.5394  0.3173
 1710TIP3   OH226620   0.569   6.685   6.181  0.0414 -0.0208 -0.2423
 1710TIP3    H126621   0.541   6.688   6.273  1.3554 -2.6868  0.3385
 1710TIP3    H226622   0.496   6.643   6.135 -1.0042  2.1159 -0.6813
 1711TIP3   OH226623   5.316   1.517   2.635  0.4658  0.0660  0.2097
 1711TIP3    H126624   5.257   1.500   2.562 -0.6050  2.0089  0.5442
 1711TIP3    H226625   5.276   1.473   2.710  1.1871 -1.3329 -0.2123
 1712TIP3   OH226626   1.339   4.055  12.047 -0.2643  0.0281 -0.2808
 1712TIP3    H126627   1.391   4.135  12.047  0.1703 -0.2260 -1.8572
 1712TIP3    H226628   1.256   4.080  12.086  0.0221  1.1385 -0.3578
 1713TIP3   OH226629   4.758   5.693  12.305 -0.2089  0.0396 -0.4112
 1713TIP3    H126630   4.719   5.624  12.358 -0.1928  1.3902  1.4313
 1713TIP3    H226631   4.683   5.736  12.263 -0.2415 -0.8580 -1.3085
 1714TIP3   OH226632   2.994   2.252  11.165  0.2961 -0.3706 -0.2844
 1714TIP3    H126633   3.000   2.244  11.070  1.3743 -0.6548 -0.2101
 1714TIP3    H226634   2.946   2.174  11.193  0.0718 -0.3424 -0.5901
 1715TIP3   OH226635   3.881   6.333  12.792  0.2449 -0.1391 -0.2172
 1715TIP3    H126636   3.804   6.277  12.801 -0.5387  0.7531 -1.0776
 1715TIP3    H226637   3.898   6.335  12.697  1.1322 -0.0792 -0.0584
 1716TIP3   OH226638   2.637   6.033   1.259  0.2318 -0.7212 -0.0837
 1716TIP3    H126639   2.592   6.081   1.190 -1.7439 -2.6622 -0.2581
 1716TIP3    H226640   2.646   5.944   1.225  0.7934 -1.3074  1.4843
 1717TIP3   OH226641   0.952   6.674  12.461  0.3127  0.6235  0.1544
 1717TIP3    H126642   1.015   6.734  12.421  0.3777  1.0957  0.9337
 1717TIP3    H226643   0.926   6.615  12.390  1.5371  0.4945 -0.1999
 1718TIP3   OH226644   2.608   2.091   0.337  0.4717  0.5058  0.4118
 1718TIP3    H126645   2.538   2.025   0.335 -0.3847  1.3499  1.3881
 1718TIP3    H226646   2.668   2.060   0.404  0.4216  0.3776  0.3986
 1719TIP3   OH226647   1.175   3.666   3.428  0.9505 -0.3209 -0.1144
 1719TIP3    H126648   1.189   3.758   3.407 -1.4713  0.0224 -0.4510
 1719TIP3    H226649   1.214   3.619   3.354 -0.7862  0.6050 -1.6843
 1720TIP3   OH226650   5.263   3.544   3.234 -0.0584  0.5264  0.3209
 1720TIP3    H126651   5.309   3.495   3.302 -0.2522  0.9328  0.7499
 1720TIP3    H226652   5.202   3.481   3.197  0.2165  0.2344  0.3595
 1721TIP3   OH226653   3.704   4.157   0.103 -0.4252  0.2211 -0.3315
 1721TIP3    H126654   3.752   4.085   0.063  0.1954  2.0324 -3.1869
 1721TIP3    H226655   3.641   4.115   0.161 -0.0832 -2.6098 -1.8378
 1722TIP3   OH226656   2.812   2.138   2.863  0.2785 -0.1741 -0.6358
 1722TIP3    H126657   2.892   2.086   2.858  1.0120  0.9095 -0.6414
 1722TIP3    H226658   2.784   2.132   2.955  0.8594  0.1341 -0.4339
 1723TIP3   OH226659   5.698   0.428   3.913 -0.2120  0.0671  0.5597
 1723TIP3    H126660   5.632   0.459   3.851  0.8538  2.8223  0.6703
 1723TIP3    H226661   5.778   0.423   3.862  0.1485 -0.1223  1.1335
 1724TIP3   OH226662   2.773   0.315  16.880 -0.5441 -0.8449  0.4554
 1724TIP3    H126663   2.811   0.308  16.968  0.0353 -1.4298  0.1688
 1724TIP3    H226664   2.825   0.383  16.837 -0.8296 -0.5568  0.5570
 1725TIP3   OH226665   0.807   6.548   0.320  0.2299  0.5830  0.1264
 1725TIP3    H126666   0.765   6.475   0.274  0.6754  0.3830  0.0259
 1725TIP3    H226667   0.742   6.618   0.320  0.3456  0.7158 -1.1378
 1726TIP3   OH226668   6.521   1.327  11.086  0.2538  0.0731 -0.3409
 1726TIP3    H126669   6.596   1.373  11.047  0.1521  0.1740 -0.4179
 1726TIP3    H226670   6.527   1.238  11.049 -1.3892  0.8649 -2.7873
 1727TIP3   OH226671   1.371   2.088   1.098 -0.7696 -0.7006  0.3182
 1727TIP3    H126672   1.345   2.015   1.154 -1.7757 -0.2828  0.4174
 1727TIP3    H226673   1.334   2.067   1.013  0.6483 -1.2712 -0.1855
 1728TIP3   OH226674   4.986   3.666  15.764 -0.4296 -0.0511  0.6469
 1728TIP3    H126675   4.941   3.664  15.848 -0.4800  1.5629  0.6955
 1728TIP3    H226676   4.929   3.719  15.708 -0.3762 -1.0660 -0.4049
 1729TIP3   OH226677   6.519   3.258  14.927 -0.0975 -0.0887 -0.0723
 1729TIP3    H126678   6.452   3.196  14.956 -0.0129 -0.3071 -0.3400
 1729TIP3    H226679   6.560   3.290  15.008 -0.0334 -0.5025  0.0596
 1730TIP3   OH226680   4.239   6.352   4.059 -0.6866 -0.7173  0.6048
 1730TIP3    H126681   4.288   6.291   4.005 -0.1647  0.6092 -0.4743
 1730TIP3    H226682   4.293   6.363   4.138 -0.2487 -0.8046  0.3177
 1731TIP3   OH226683   2.221   0.414   1.837 -0.4977 -0.2966  0.0004
 1731TIP3    H126684   2.174   0.441   1.915 -1.6319 -0.2681 -0.6753
 1731TIP3    H226685   2.256   0.327   1.858 -0.9071 -0.3449  0.4826
 1732TIP3   OH226686   2.220   5.417   1.075  0.3471 -0.3814 -0.0136
 1732TIP3    H126687   2.160   5.482   1.113  0.3750 -0.8618  0.8796
 1732TIP3    H226688   2.225   5.440   0.982 -1.3470 -0.4301 -0.1416
 1733TIP3   OH226689   2.567   2.909   5.307 -0.0992  0.5147 -0.3985
 1733TIP3    H126690   2.644   2.856   5.285  0.1830  0.0984  1.4216
 1733TIP3    H226691   2.501   2.883   5.242  0.2313 -1.6540  0.0549
 1734TIP3   OH226692   1.895   4.591  12.977 -0.6060 -0.3743 -0.6796
 1734TIP3    H126693   1.821   4.572  12.919 -1.0698 -0.1005 -0.1823
 1734TIP3    H226694   1.919   4.507  13.014 -1.7201 -0.2383  0.3994
 1735TIP3   OH226695   1.194   3.372  10.766  0.2999  0.3029  0.2274
 1735TIP3    H126696   1.204   3.281  10.736 -0.7565  0.3701 -0.3471
 1735TIP3    H226697   1.271   3.417  10.732 -0.9367  0.4271 -2.6576
 1736TIP3   OH226698   4.909   2.246   2.204 -0.6315 -0.1312  0.3900
 1736TIP3    H126699   4.957   2.181   2.153 -3.0298  0.6808 -3.2745
 1736TIP3    H226700   4.958   2.327   2.193 -1.8032  0.3318 -1.9365
 1737TIP3   OH226701   0.139   2.940  15.659  0.3418 -0.2956  0.5982
 1737TIP3    H126702   0.092   2.902  15.734  0.2231  1.0733  1.2459
 1737TIP3    H226703   0.195   3.007  15.697 -0.9589  1.6173 -0.6618
 1738TIP3   OH226704   0.854   4.094   2.021 -0.2829  0.4630 -0.2693
 1738TIP3    H126705   0.816   4.040   2.090  0.1139  0.4941 -0.0225
 1738TIP3    H226706   0.837   4.184   2.050  1.7960  0.5383  0.9244
 1739TIP3   OH226707   5.444   1.205  12.169  0.0238  0.2461  0.2226
 1739TIP3    H126708   5.394   1.202  12.087  2.7241  0.7510 -1.5616
 1739TIP3    H226709   5.509   1.135  12.160  0.0480 -0.0389  2.2121
 1740TIP3   OH226710   1.271   1.791   1.071  0.0393  0.2446  0.1289
 1740TIP3    H126711   1.200   1.854   1.058  0.7328  1.0845  0.3039
 1740TIP3    H226712   1.296   1.764   0.983  1.6568  2.4372 -0.1766
 1741TIP3   OH226713   5.010   6.395   3.180 -0.2162 -0.2915 -0.6768
 1741TIP3    H126714   4.981   6.393   3.089 -1.1910 -0.8948 -0.3613
 1741TIP3    H226715   4.967   6.472   3.218 -1.0371 -0.9060 -0.3376
 1742TIP3   OH226716   5.948   3.548   5.794 -0.6467 -0.0862 -0.2650
 1742TIP3    H126717   5.903   3.476   5.837  0.7225 -1.5522 -1.1596
 1742TIP3    H226718   5.925   3.538   5.701 -0.0134  0.2887 -0.4673
 1743TIP3   OH226719   4.025   3.961   4.626 -0.4698  0.0977  0.0568
 1743TIP3    H126720   4.116   3.960   4.597 -0.5735 -1.7208 -0.2969
 1743TIP3    H226721   4.026   4.014   4.706  0.8793  0.1179  0.0518
 1744TIP3   OH226722   0.968   5.162  11.135 -0.5571  0.2153 -0.0974
 1744TIP3    H126723   1.049   5.112  11.143 -1.4851 -1.5540 -1.3393
 1744TIP3    H226724   0.996   5.246  11.097  0.6366 -0.5337 -0.9402
 1745TIP3   OH226725   2.765   3.239  10.743  0.1723  0.1971 -0.0359
 1745TIP3    H126726   2.725   3.157  10.771 -0.2074  1.0228  1.9749
 1745TIP3    H226727   2.776   3.229  10.648  0.6335 -2.3644  0.2344
 1746TIP3   OH226728   4.048   5.186  11.397 -0.5576 -0.2604 -0.1844
 1746TIP3    H126729   4.110   5.233  11.341 -0.9218  0.5532  0.0759
 1746TIP3    H226730   3.971   5.174  11.341 -0.1310 -1.4203 -0.5622
 1747TIP3   OH226731   0.228   1.431  16.625  0.2238  0.0013 -0.6221
 1747TIP3    H126732   0.275   1.455  16.706 -0.9047 -1.7117  0.6156
 1747TIP3    H226733   0.139   1.412  16.654 -0.7895  1.3104 -2.6294
 1748TIP3   OH226734   2.125   4.974   4.880  0.5042 -0.1371  0.0168
 1748TIP3    H126735   2.175   4.895   4.900  0.3927 -0.5196 -1.1247
 1748TIP3    H226736   2.188   5.034   4.840  0.1124 -0.5589 -1.2767
 1749TIP3   OH226737   1.533   1.953   4.701 -0.0909  0.4892 -0.3393
 1749TIP3    H126738   1.445   1.918   4.690 -0.6004  1.9679 -1.3695
 1749TIP3    H226739   1.575   1.940   4.616  0.9295 -0.7661  0.3271
 1750TIP3   OH226740   5.799   1.233  13.187  0.5207  0.2284 -0.6731
 1750TIP3    H126741   5.728   1.280  13.231  2.0581  2.9091 -0.8054
 1750TIP3    H226742   5.833   1.173  13.253 -1.0237 -0.2065 -0.2252
 1751TIP3   OH226743   0.363   0.808  13.448  0.7511 -0.1317 -0.4223
 1751TIP3    H126744   0.323   0.813  13.535  1.3715 -1.1040 -0.0611
 1751TIP3    H226745   0.298   0.763  13.394  0.1485  0.9375 -0.6088
 1752TIP3   OH226746   2.155   3.145   4.997 -0.1446 -0.2603 -0.1766
 1752TIP3    H126747   2.204   3.120   4.918  0.0254 -2.4554  0.5461
 1752TIP3    H226748   2.080   3.086   4.998  0.3774 -0.9654  1.7707
 1753TIP3   OH226749   2.420   2.221  15.884  0.6858 -0.4471 -0.4999
 1753TIP3    H126750   2.384   2.150  15.831 -0.2470 -0.5408  0.2332
 1753TIP3    H226751   2.364   2.224  15.962  1.2119  0.5539 -0.1376
 1754TIP3   OH226752   2.256   4.199  13.003 -0.3439 -0.7191 -0.2333
 1754TIP3    H126753   2.250   4.216  12.909 -0.6184  0.9368  0.0521
 1754TIP3    H226754   2.335   4.247  13.031  0.7413 -2.6092  0.1138
 1755TIP3   OH226755   5.921   4.147  11.423  0.1979  0.2108  0.0703
 1755TIP3    H126756   5.909   4.061  11.384  0.6427 -0.4677  1.4036
 1755TIP3    H226757   5.845   4.159  11.479  0.4390  0.4311  0.3529
 1756TIP3   OH226758   5.688   5.565  13.839  0.6800  0.0626  0.1909
 1756TIP3    H126759   5.727   5.575  13.752 -0.9747  2.1780 -0.4137
 1756TIP3    H226760   5.753   5.599  13.899  0.6560  1.5529 -0.5830
 1757TIP3   OH226761   0.301   3.730   2.366 -0.5408  0.1801  0.4275
 1757TIP3    H126762   0.345   3.811   2.390  0.7205  0.0026 -1.1030
 1757TIP3    H226763   0.372   3.671   2.339 -1.6026 -0.5411 -0.9608
 1758TIP3   OH226764   3.210   5.690   5.093  0.3893 -0.1164  0.5581
 1758TIP3    H126765   3.159   5.625   5.046  1.6905 -1.6559  1.1800
 1758TIP3    H226766   3.269   5.727   5.027 -1.2049  1.4367 -0.0883
 1759TIP3   OH226767   2.891   1.954   0.756 -0.7101  0.0744  0.6243
 1759TIP3    H126768   2.921   1.870   0.791  2.0956  0.7711  0.1642
 1759TIP3    H226769   2.920   2.018   0.821  0.3694  0.9557 -0.6599
 1760TIP3   OH226770   1.661   0.823  11.178  0.3434 -0.2539  0.0390
 1760TIP3    H126771   1.640   0.820  11.271  3.0694 -2.0057  0.7143
 1760TIP3    H226772   1.651   0.732  11.148 -1.3986  0.4311 -1.6599
 1761TIP3   OH226773   1.022   3.519  15.970  0.6145 -0.5675  0.1449
 1761TIP3    H126774   0.985   3.490  15.887 -0.2379  0.9215 -0.0293
 1761TIP3    H226775   0.985   3.458  16.035 -1.7038  0.4373 -0.1163
 1762TIP3   OH226776   2.391   0.093   0.248 -0.2790 -0.6936  0.3801
 1762TIP3    H126777   2.372   0.169   0.193 -0.7169 -1.2882 -0.3041
 1762TIP3    H226778   2.470   0.118   0.297  0.9018 -0.6196 -1.4571
 1763TIP3   OH226779   1.198   5.238   1.449  0.9321 -0.0933  0.4989
 1763TIP3    H126780   1.204   5.200   1.536  1.9106 -0.3286  0.3423
 1763TIP3    H226781   1.182   5.163   1.391 -2.4335  0.3188  0.7014
 1764TIP3   OH226782   5.405   1.721   6.105 -0.0193  0.1062  0.0313
 1764TIP3    H126783   5.408   1.804   6.057  0.2283 -0.4909 -1.0349
 1764TIP3    H226784   5.337   1.733   6.171  0.1141  1.1995 -0.0157
 1765TIP3   OH226785   5.931   4.496  13.116  0.0300 -0.3217 -0.5196
 1765TIP3    H126786   6.022   4.485  13.089  0.3129 -1.2721  0.7268
 1765TIP3    H226787   5.888   4.535  13.040  1.3568 -0.3285 -1.3086
 1766TIP3   OH226788   1.953   5.276   5.309 -0.0357  0.4178 -0.0469
 1766TIP3    H126789   1.870   5.322   5.297 -0.9248 -0.9385  0.6804
 1766TIP3    H226790   1.978   5.246   5.222 -0.0874  1.1605 -0.3265
 1767TIP3   OH226791   1.407   2.334   1.398  0.1216 -0.3658 -0.0849
 1767TIP3    H126792   1.413   2.363   1.307 -2.3425  1.1196  0.1383
 1767TIP3    H226793   1.498   2.316   1.423  1.0571  0.8214 -2.3090
 1768TIP3   OH226794   4.178   6.666  14.259 -0.7887 -0.1925 -0.4945
 1768TIP3    H126795   4.254   6.677  14.203 -0.2203 -1.0586  0.0696
 1768TIP3    H226796   4.207   6.694  14.346 -0.8245 -1.3373 -0.0935
 1769TIP3   OH226797   1.434   6.668   5.933  0.0283  0.3705 -0.2104
 1769TIP3    H126798   1.474   6.755   5.940 -1.7906  1.2896 -0.4351
 1769TIP3    H226799   1.405   6.649   6.022  2.4036 -1.0795  0.3235
 1770TIP3   OH226800   6.497   0.677  11.566 -0.1123 -0.5454  0.3292
 1770TIP3    H126801   6.507   0.748  11.630  0.3022 -1.3338  1.1712
 1770TIP3    H226802   6.583   0.637  11.561 -0.5966 -1.6745  0.7016
 1771TIP3   OH226803   5.684   0.179   5.262 -0.6055 -0.4962 -0.1254
 1771TIP3    H126804   5.699   0.136   5.347 -1.1126 -1.5519 -0.5517
 1771TIP3    H226805   5.768   0.171   5.217  0.3496  1.9730  1.0523
 1772TIP3   OH226806   6.502   3.888  13.652 -0.0595  0.4699 -0.2316
 1772TIP3    H126807   6.423   3.886  13.707 -0.9090 -3.1256 -1.2848
 1772TIP3    H226808   6.574   3.883  13.715 -0.8117  0.6175  0.6717
 1773TIP3   OH226809   1.409   3.083  12.666  0.0437  0.3567  0.4491
 1773TIP3    H126810   1.370   3.171  12.669  0.3624  0.5161 -0.0976
 1773TIP3    H226811   1.388   3.050  12.579  2.0649  0.8793 -0.2848
 1774TIP3   OH226812   2.626   6.488   0.403  0.5538  0.0560  0.0227
 1774TIP3    H126813   2.681   6.566   0.404  0.1744  0.3438 -0.6819
 1774TIP3    H226814   2.581   6.492   0.319 -0.0964 -0.4876  0.3356
 1775TIP3   OH226815   4.366   3.261  14.047 -0.5587  0.2067  0.8055
 1775TIP3    H126816   4.359   3.296  14.136 -1.4521  0.8030  0.5114
 1775TIP3    H226817   4.278   3.233  14.025 -0.7959  1.8823 -0.6120
 1776TIP3   OH226818   4.228   6.012  14.571 -0.0517 -0.4868  0.6157
 1776TIP3    H126819   4.195   6.093  14.533 -0.7576 -0.5729  1.0251
 1776TIP3    H226820   4.182   5.942  14.525  1.1221 -0.7064 -0.2848
 1777TIP3   OH226821   5.287   1.356  13.584  0.9042 -0.3710 -0.6015
 1777TIP3    H126822   5.267   1.325  13.496  1.3481  0.4889 -1.0199
 1777TIP3    H226823   5.275   1.280  13.640 -2.7297 -0.1899 -0.8880
 1778TIP3   OH226824   5.931   2.029   5.977 -0.0406  0.3164  0.3110
 1778TIP3    H126825   5.855   2.006   5.923  0.6365  1.3060 -1.1546
 1778TIP3    H226826   5.960   1.946   6.014 -2.1327 -0.0013  1.3489
 1779TIP3   OH226827   0.206   2.054  16.596  0.0304 -0.2335 -0.2063
 1779TIP3    H126828   0.119   2.029  16.628 -0.7444  0.8938 -1.3229
 1779TIP3    H226829   0.214   2.009  16.512  0.6145 -0.4929 -0.0106
 1780TIP3   OH226830   1.132   4.584   4.194  0.0816  0.3299  0.3473
 1780TIP3    H126831   1.140   4.600   4.288 -0.8237 -0.4813  0.5760
 1780TIP3    H226832   1.222   4.586   4.161  0.6535 -1.8424  1.6379
 1781TIP3   OH226833   6.028   6.025   3.234  0.0853  0.2740 -0.4647
 1781TIP3    H126834   6.049   6.087   3.164 -1.8410  0.7271 -0.6781
 1781TIP3    H226835   5.989   6.077   3.303  1.1254 -0.3134  0.6183
 1782TIP3   OH226836   3.030   1.131   2.267 -0.3533 -0.2105 -0.4384
 1782TIP3    H126837   3.050   1.213   2.222  0.5000  0.3881  0.9703
 1782TIP3    H226838   3.007   1.158   2.356 -1.0153 -1.4385 -0.2208
 1783TIP3   OH226839   4.056   5.656  14.754 -0.2791 -0.1657  0.0791
 1783TIP3    H126840   4.043   5.699  14.670 -2.2246  0.4931  0.6562
 1783TIP3    H226841   4.042   5.563  14.735 -0.3117 -0.0650 -0.3996
 1784TIP3   OH226842   0.318   4.106  16.500  0.5207  0.5816  0.2186
 1784TIP3    H126843   0.260   4.060  16.440  1.1991 -1.0037  0.7247
 1784TIP3    H226844   0.404   4.104  16.458  0.5034  1.7490  0.0786
 1785TIP3   OH226845   5.909   6.628  16.740 -0.2550 -0.3274 -0.3862
 1785TIP3    H126846   5.972   6.556  16.744  0.8712  0.6257 -0.7579
 1785TIP3    H226847   5.865   6.624  16.825  1.7491  0.2667  0.7346
 1786TIP3   OH226848   3.822   2.794   5.390 -0.3672  0.4471 -0.3348
 1786TIP3    H126849   3.809   2.772   5.482  0.4212  2.1082  0.2198
 1786TIP3    H226850   3.916   2.806   5.381 -0.3986 -0.0713 -1.4626
 1787TIP3   OH226851   5.823   5.595   6.262 -0.1770 -0.0958 -0.6237
 1787TIP3    H126852   5.784   5.667   6.313 -0.4402 -0.3239 -0.5015
 1787TIP3    H226853   5.760   5.579   6.192  1.0018  1.4123 -2.1091
 1788TIP3   OH226854   0.903   0.126   3.775 -0.1836 -0.4345  0.3470
 1788TIP3    H126855   0.869   0.044   3.740  0.9266 -1.0176  0.5923
 1788TIP3    H226856   0.921   0.107   3.867 -0.1342  0.1546  0.4637
 1789TIP3   OH226857   4.144   0.859   2.777  0.2785  0.2234 -0.6810
 1789TIP3    H126858   4.097   0.799   2.836  2.3489 -1.3598 -0.5388
 1789TIP3    H226859   4.171   0.931   2.834 -2.9378  1.8651 -1.0139
 1790TIP3   OH226860   1.899   5.031   5.059 -0.5131 -0.5595  0.3892
 1790TIP3    H126861   1.965   4.985   5.007 -3.2160 -2.6798 -1.4491
 1790TIP3    H226862   1.906   5.122   5.030  1.7789 -0.6004  0.5641
 1791TIP3   OH226863   0.701   5.450  16.723  0.0494 -0.0836  0.5971
 1791TIP3    H126864   0.629   5.479  16.666  0.9129  3.7009  1.1852
 1791TIP3    H226865   0.664   5.453  16.811  0.6889  1.2279  0.8393
 1792TIP3   OH226866   6.830   1.966  16.720 -0.5030  0.0745  1.0950
 1792TIP3    H126867   6.749   1.980  16.670  0.6115  1.5634 -0.4408
 1792TIP3    H226868   6.819   2.019  16.799 -1.7595 -1.2681  1.8793
 1793TIP3   OH226869   3.604   5.454   2.030 -0.0201  0.1917 -0.2503
 1793TIP3    H126870   3.601   5.420   1.940  1.8316  0.0384 -0.3008
 1793TIP3    H226871   3.587   5.379   2.085  2.3847 -0.5522 -0.4127
 1794TIP3   OH226872   4.172   5.017   1.274  0.2428 -0.4909  0.1913
 1794TIP3    H126873   4.091   4.976   1.304  0.9929 -1.7243  0.5681
 1794TIP3    H226874   4.217   4.950   1.223 -0.2034  1.0054 -2.3864
 1795TIP3   OH226875   0.048   6.341   4.610 -0.7191  0.0453  1.0311
 1795TIP3    H126876   0.104   6.265   4.594 -1.0472 -0.2956  1.4890
 1795TIP3    H226877   0.021   6.333   4.701  0.6680  1.6816  1.6345
 1796TIP3   OH226878   2.733   3.068  10.386  0.2738  0.3400  0.2836
 1796TIP3    H126879   2.659   3.120  10.352 -0.8611  0.3278  2.5337
 1796TIP3    H226880   2.779   3.129  10.444  0.7084 -0.2998  0.6101
 1797TIP3   OH226881   4.767   5.705   3.792  0.1753  0.0859  0.2232
 1797TIP3    H126882   4.828   5.677   3.724  0.5401  2.7668 -0.6865
 1797TIP3    H226883   4.745   5.795   3.769 -0.9665  0.5689  2.7929
 1798TIP3   OH226884   1.148   4.751  11.264 -0.4272  0.4561 -0.0757
 1798TIP3    H126885   1.127   4.842  11.285  1.3979  0.8635  0.1317
 1798TIP3    H226886   1.134   4.704  11.346 -1.8673  0.4196 -0.3084
 1799TIP3   OH226887   5.955   3.314   0.462 -0.0886  0.1425  0.5137
 1799TIP3    H126888   6.026   3.335   0.401 -0.5605 -0.4480 -0.2593
 1799TIP3    H226889   5.882   3.368   0.433 -0.8821 -1.4736 -0.6286
 1800TIP3   OH226890   0.839   3.878  15.520 -0.2936 -0.1527 -0.1759
 1800TIP3    H126891   0.777   3.809  15.544  1.1269 -1.3459  0.2242
 1800TIP3    H226892   0.834   3.884  15.425 -0.9143 -0.3462 -0.1572
 1801TIP3   OH226893   6.389   1.025  10.825  0.6432  0.0329  0.2328
 1801TIP3    H126894   6.358   0.941  10.858  0.9691 -0.1002  0.1989
 1801TIP3    H226895   6.462   1.048  10.882  0.1540  0.6013  0.6460
 1802TIP3   OH226896   1.813   1.647  10.645 -0.1644 -0.1982 -0.6461
 1802TIP3    H126897   1.806   1.698  10.725  1.6326  0.5587 -0.9221
 1802TIP3    H226898   1.723   1.619  10.626 -1.0085  1.7672  0.2135
 1803TIP3   OH226899   3.182   2.476  16.336  0.1799  0.3226 -0.0427
 1803TIP3    H126900   3.152   2.404  16.280  0.5811 -0.8477  1.2005
 1803TIP3    H226901   3.136   2.553  16.302 -0.5968 -0.5884 -1.1352
 1804TIP3   OH226902   5.437   4.790   1.310 -0.1531  0.1653 -0.3817
 1804TIP3    H126903   5.504   4.815   1.246  2.2029 -1.1408  1.4031
 1804TIP3    H226904   5.391   4.717   1.268  2.8738 -2.2313  0.0943
 1805TIP3   OH226905   1.550   3.873   2.963 -0.2050 -0.0770 -0.4105
 1805TIP3    H126906   1.642   3.859   2.985  0.6207 -1.4077 -4.0348
 1805TIP3    H226907   1.552   3.923   2.882 -2.6588 -0.7808 -0.9888
 1806TIP3   OH226908   1.258   2.210  11.457 -0.3229  0.7158 -0.0716
 1806TIP3    H126909   1.179   2.252  11.489 -0.7193  0.7894 -1.1207
 1806TIP3    H226910   1.323   2.280  11.452  0.2187  0.4443  1.9529
 1807TIP3   OH226911   6.055   1.000   4.675  0.1766 -0.0639  0.0359
 1807TIP3    H126912   6.075   1.001   4.769  1.8065 -2.0188 -0.2412
 1807TIP3    H226913   5.960   1.011   4.671  0.2043  1.2415  1.8364
 1808TIP3   OH226914   5.196   0.342   3.075 -0.2128  0.0993  0.5233
 1808TIP3    H126915   5.170   0.432   3.097 -0.1022  0.3590 -0.3430
 1808TIP3    H226916   5.291   0.347   3.063  0.0164 -0.4659  1.9444
 1809TIP3   OH226917   5.619   0.958  12.195  0.4552  0.2060 -0.1545
 1809TIP3    H126918   5.708   0.922  12.198  0.5548  0.5194  1.1966
 1809TIP3    H226919   5.564   0.892  12.237  0.2440  0.5170  0.0697
 1810TIP3   OH226920   1.814   0.643   2.165  0.7585  0.9366  0.3364
 1810TIP3    H126921   1.743   0.620   2.106 -1.1636 -0.9246  3.1594
 1810TIP3    H226922   1.816   0.739   2.164 -0.4651  0.9856 -1.2200
 1811TIP3   OH226923   6.014   3.067   5.092  0.2969  0.1956 -0.6066
 1811TIP3    H126924   6.040   2.980   5.063  1.1157 -0.1011  0.9147
 1811TIP3    H226925   5.922   3.075   5.066  0.0871 -1.2814 -0.3914
 1812TIP3   OH226926   0.358   6.367   2.418 -0.0442  0.3625  0.1097
 1812TIP3    H126927   0.286   6.352   2.357  0.7257 -2.1201 -0.2886
 1812TIP3    H226928   0.357   6.291   2.476  0.8271  1.4378  1.6111
 1813TIP3   OH226929   1.051   0.159  16.675  0.2061 -1.1110 -0.7564
 1813TIP3    H126930   1.007   0.224  16.621 -0.4476  0.1317  1.1870
 1813TIP3    H226931   1.124   0.207  16.716 -0.0466 -1.6808  0.3978
 1814TIP3   OH226932   5.446   3.536  15.292 -0.0408 -0.0940  0.1060
 1814TIP3    H126933   5.405   3.618  15.320 -1.2003 -0.9179  0.9579
 1814TIP3    H226934   5.425   3.529  15.199  1.4191  1.3047 -0.3677
 1815TIP3   OH226935   5.852   2.402  16.632  0.2031 -0.1070 -0.4044
 1815TIP3    H126936   5.887   2.482  16.673  1.7172 -0.7097 -0.4346
 1815TIP3    H226937   5.828   2.346  16.706 -2.1650  0.8455 -0.3631
 1816TIP3   OH226938   0.317   4.701  16.079 -0.2943 -0.7334  0.3582
 1816TIP3    H126939   0.267   4.621  16.062 -3.9586  1.9619 -3.5827
 1816TIP3    H226940   0.388   4.698  16.016 -2.3677  0.3649 -2.2187
 1817TIP3   OH226941   0.844   3.565  11.057  0.5328 -0.3593  0.0383
 1817TIP3    H126942   0.783   3.638  11.057  1.1946  0.2044  0.1016
 1817TIP3    H226943   0.792   3.490  11.029  0.1053  0.3556 -1.1430
 1818TIP3   OH226944   1.782   2.029   1.939  0.2704 -0.6227 -0.0189
 1818TIP3    H126945   1.839   2.093   1.897 -0.7268 -1.5924 -3.0661
 1818TIP3    H226946   1.739   1.983   1.867 -2.1185 -1.9655  2.0897
 1819TIP3   OH226947   4.456   4.616  14.711 -0.0454 -0.1833 -0.2357
 1819TIP3    H126948   4.503   4.541  14.673  0.4040 -0.0011 -0.0556
 1819TIP3    H226949   4.395   4.643  14.643  1.6542  0.9736 -1.3955
 1820TIP3   OH226950   3.200   5.619  14.798  0.2916  0.3162  0.0325
 1820TIP3    H126951   3.275   5.677  14.786 -0.8168  1.6919 -0.5521
 1820TIP3    H226952   3.231   5.533  14.771  1.3139  1.0861 -1.3795
 1821TIP3   OH226953   4.048   1.192  11.487 -0.3502 -0.1621  0.5950
 1821TIP3    H126954   4.048   1.104  11.451 -1.5381  0.5509 -1.3005
 1821TIP3    H226955   3.956   1.219  11.487  0.1417  1.7650 -0.7646
 1822TIP3   OH226956   0.506   1.781   1.582  0.0620 -0.7717 -0.2288
 1822TIP3    H126957   0.568   1.787   1.510 -0.4530 -0.8461 -0.6931
 1822TIP3    H226958   0.428   1.740   1.542 -0.9307  0.8988 -0.1053
 1823TIP3   OH226959   2.058   4.170  12.356  0.5504 -0.0385  0.6636
 1823TIP3    H126960   2.076   4.140  12.267  0.1877  0.5887  0.3732
 1823TIP3    H226961   2.054   4.090  12.408 -1.3656 -0.5815 -0.2663
 1824TIP3   OH226962   0.426   1.781   4.986  0.0939 -0.7083 -0.1050
 1824TIP3    H126963   0.477   1.709   5.023 -1.5691 -2.3772 -0.8726
 1824TIP3    H226964   0.342   1.775   5.030 -0.3302  0.2690 -0.7677
 1825TIP3   OH226965   0.576   4.712   3.139 -0.0958  0.0478 -0.1233
 1825TIP3    H126966   0.535   4.765   3.071  0.5720 -0.0806 -0.6349
 1825TIP3    H226967   0.628   4.647   3.092  2.1247  1.2906  0.4476
 1826TIP3   OH226968   5.337   0.467   4.402 -0.1476 -0.0120  0.4524
 1826TIP3    H126969   5.295   0.547   4.432 -0.9874 -0.1857 -0.2126
 1826TIP3    H226970   5.288   0.442   4.324 -1.8567 -2.7789  2.2377
 1827TIP3   OH226971   2.159   3.904  16.215  0.0589  0.3783  0.2032
 1827TIP3    H126972   2.207   3.913  16.298  2.2080  0.6347 -1.0077
 1827TIP3    H226973   2.109   3.823  16.226 -0.0372  0.6215  1.8896
 1828TIP3   OH226974   3.924   1.397  14.725 -0.0343  0.2023 -0.0714
 1828TIP3    H126975   3.938   1.322  14.783  2.3064 -0.0804 -0.9134
 1828TIP3    H226976   3.985   1.384  14.652  1.1601  3.3667  0.1932
 1829TIP3   OH226977   0.500   4.013   3.277  0.2318 -0.0683 -0.0833
 1829TIP3    H126978   0.437   3.945   3.301  1.3283 -1.1703 -0.2528
 1829TIP3    H226979   0.445   4.087   3.250 -0.9889 -0.7628  0.3789
 1830TIP3   OH226980   0.633   5.082  14.803 -0.1911 -0.3602  0.1071
 1830TIP3    H126981   0.607   5.054  14.890  0.3249  0.3338  0.5019
 1830TIP3    H226982   0.692   5.014  14.772 -0.7983 -0.8768  0.0754
 1831TIP3   OH226983   1.416   5.432   3.949 -0.1348 -0.7498  0.5537
 1831TIP3    H126984   1.323   5.448   3.929 -0.1444 -0.8260  0.5368
 1831TIP3    H226985   1.414   5.390   4.036 -0.0366  0.4153  1.1332
 1832TIP3   OH226986   4.974   5.500   1.441 -0.0088 -0.3987 -0.4787
 1832TIP3    H126987   4.900   5.440   1.449 -1.2430  0.9179 -1.3712
 1832TIP3    H226988   4.966   5.558   1.517  0.1590 -0.3093 -0.5292
 1833TIP3   OH226989   5.277   1.218   6.079 -0.2572  0.2296 -0.1534
 1833TIP3    H126990   5.205   1.228   6.142  0.0862  0.5742  0.1832
 1833TIP3    H226991   5.353   1.197   6.132 -0.1769 -0.4902 -0.5418
 1834TIP3   OH226992   1.070   0.916   5.274  0.0107 -0.2056 -0.0749
 1834TIP3    H126993   1.008   0.885   5.340  0.0210 -1.6378 -0.6953
 1834TIP3    H226994   1.135   0.966   5.323 -0.4112 -0.5756  0.8843
 1835TIP3   OH226995   4.166   5.887  11.835  0.3426  0.1051  0.0729
 1835TIP3    H126996   4.165   5.977  11.800  0.8226  1.0141  2.2441
 1835TIP3    H226997   4.252   5.853  11.810  0.5025  0.5658 -0.0145
 1836TIP3   OH226998   3.115   6.409  16.486  0.5400 -0.7056  0.4084
 1836TIP3    H126999   3.112   6.313  16.484 -1.6253 -0.6756 -1.3307
 1836TIP3    H227000   3.023   6.436  16.486  1.0377  1.3488 -2.0558
 1837TIP3   OH227001   1.824   3.531   3.841  0.6189 -0.4099  0.5023
 1837TIP3    H127002   1.831   3.441   3.870  1.2390  0.0174  1.7319
 1837TIP3    H227003   1.910   3.569   3.858 -0.0372  0.7776  1.3048
 1838TIP3   OH227004   0.141   1.431   0.457 -0.0280  0.4708  0.1772
 1838TIP3    H127005   0.068   1.494   0.456 -1.0585 -0.6999 -0.1477
 1838TIP3    H227006   0.197   1.462   0.528 -0.5562  1.7013  0.0959
 1839TIP3   OH227007   2.696   2.969  10.780 -0.7559  0.9655 -0.0148
 1839TIP3    H127008   2.757   2.935  10.845 -0.9009 -0.1268 -0.4358
 1839TIP3    H227009   2.666   2.892  10.732 -1.5906  1.6182 -0.5715
 1840TIP3   OH227010   0.469   5.032   3.379 -0.5534 -0.5152  0.1881
 1840TIP3    H127011   0.477   5.111   3.433  2.1313  0.5796 -1.6072
 1840TIP3    H227012   0.421   5.061   3.301 -1.8345 -1.3630  0.6247
 1841TIP3   OH227013   1.014   1.403  13.616 -0.1202 -0.1951  0.3017
 1841TIP3    H127014   1.084   1.427  13.677 -0.0946  1.5576 -0.3508
 1841TIP3    H227015   0.937   1.449  13.651 -0.4458 -0.3789 -0.1738
 1842TIP3   OH227016   5.034   1.909  14.282 -0.2992 -0.1696  0.1694
 1842TIP3    H127017   5.028   1.965  14.205 -0.5453  0.3599  0.5587
 1842TIP3    H227018   5.078   1.964  14.347  0.7948 -0.9415  0.1104
 1843TIP3   OH227019   4.413   1.493   2.406 -0.5963 -0.3112 -0.3403
 1843TIP3    H127020   4.416   1.406   2.367 -0.1411 -0.0130 -0.9792
 1843TIP3    H227021   4.483   1.493   2.471 -0.4879 -0.3593 -0.4593
 1844TIP3   OH227022   6.526   3.643  14.445 -0.0902 -0.4516  0.2128
 1844TIP3    H127023   6.460   3.713  14.444  0.5438  0.2296  1.9977
 1844TIP3    H227024   6.586   3.665  14.374  0.3542  1.0988  1.0347
 1845TIP3   OH227025   1.163   0.076  12.549  0.4048  0.2596  0.1475
 1845TIP3    H127026   1.109   0.034  12.616  0.3445 -1.0784 -0.7191
 1845TIP3    H227027   1.253   0.062  12.578  0.3546  1.2334  0.8405
 1846TIP3   OH227028   0.314   4.407  17.041  0.0188 -0.0438  0.6376
 1846TIP3    H127029   0.256   4.333  17.058 -2.9469  1.8536 -0.4514
 1846TIP3    H227030   0.272   4.481  17.085  2.2698  1.2851  0.7401
 1847TIP3   OH227031   0.284   5.039   4.816  0.1316 -0.5868  0.9079
 1847TIP3    H127032   0.324   5.007   4.896  2.6073 -0.5477 -0.2151
 1847TIP3    H227033   0.283   5.134   4.825  0.8148 -0.5591  0.7369
 1848TIP3   OH227034   0.061   1.717   2.307 -0.6237 -0.8115  0.4071
 1848TIP3    H127035   0.120   1.707   2.232 -0.9540 -2.1355  0.3044
 1848TIP3    H227036   0.082   1.803   2.343 -1.1051  0.2584 -1.7538
 1849TIP3   OH227037   4.802   1.796  14.535 -0.4189  0.0517 -0.1175
 1849TIP3    H127038   4.868   1.860  14.562  0.7116 -1.0587 -0.1290
 1849TIP3    H227039   4.779   1.821  14.446 -0.3720  0.7328  0.0574
 1850TIP3   OH227040   3.425   3.114  14.203 -0.3964  0.0150 -0.1954
 1850TIP3    H127041   3.416   3.019  14.208 -0.9060  0.0045 -1.1066
 1850TIP3    H227042   3.516   3.131  14.227 -0.5706 -0.5998  0.9848
 1851TIP3   OH227043   6.723   4.181  10.820  1.3662 -0.0427 -0.0225
 1851TIP3    H127044   6.770   4.175  10.737  1.7835  0.9698  0.1281
 1851TIP3    H227045   6.759   4.110  10.873  1.0943 -0.6982 -0.6978
 1852TIP3   OH227046   4.565   5.859   5.757  0.3698  0.0734 -0.2003
 1852TIP3    H127047   4.504   5.806   5.808  3.0151 -2.4034  0.6438
 1852TIP3    H227048   4.602   5.920   5.820  0.6019 -0.1442 -0.1256
 1853TIP3   OH227049   1.114   4.723  12.691 -0.1827  0.2519  0.0901
 1853TIP3    H127050   1.205   4.738  12.667  0.3245 -0.4984  1.4042
 1853TIP3    H227051   1.117   4.698  12.783 -1.6447 -0.5212 -0.0312
 1854TIP3   OH227052   1.253   0.071   5.557  0.1069  0.3552 -0.1465
 1854TIP3    H127053   1.188   0.112   5.499 -0.4736 -0.4921 -0.1215
 1854TIP3    H227054   1.200   0.031   5.626  0.8624  3.0930  2.2028
 1855TIP3   OH227055   6.259   3.854  13.816  0.0592  0.4217 -0.4779
 1855TIP3    H127056   6.268   3.761  13.798  0.1103  0.7161 -2.0693
 1855TIP3    H227057   6.210   3.858  13.898  0.9595 -1.0058  0.1735
 1856TIP3   OH227058   6.671   5.678   5.003  0.0302 -0.3484 -0.0227
 1856TIP3    H127059   6.613   5.652   5.074  0.9693 -0.0977  0.8448
 1856TIP3    H227060   6.655   5.771   4.991 -1.9614 -0.8390 -1.8738
 1857TIP3   OH227061   3.708   5.056   5.338 -0.5457 -0.0799  0.2407
 1857TIP3    H127062   3.774   5.122   5.359 -0.7825  0.8188 -1.5748
 1857TIP3    H227063   3.692   5.068   5.244 -1.8102 -1.6377  0.2136
 1858TIP3   OH227064   2.708   5.986  12.188 -0.0201 -0.2190 -0.0378
 1858TIP3    H127065   2.800   5.964  12.177  0.2670  1.2262 -0.8814
 1858TIP3    H227066   2.667   5.906  12.218  1.7513 -0.5183  1.7446
 1859TIP3   OH227067   3.246   5.443   3.999  0.5936 -0.1988  0.1353
 1859TIP3    H127068   3.177   5.429   4.064  0.6729 -1.6116 -0.0494
 1859TIP3    H227069   3.263   5.356   3.963 -0.0709  0.6484 -2.4357
 1860TIP3   OH227070   0.264   3.736  13.527 -0.4594  0.0905 -0.5883
 1860TIP3    H127071   0.198   3.669  13.513 -1.0839  0.4019  0.7101
 1860TIP3    H227072   0.340   3.706  13.477 -1.4271 -0.4895 -1.7475
 1861TIP3   OH227073   5.898   4.681   4.243  0.5796 -0.1502  0.0423
 1861TIP3    H127074   5.847   4.601   4.229 -2.0734  1.6555 -1.6856
 1861TIP3    H227075   5.929   4.705   4.156 -2.8049  3.0718 -0.5207
 1862TIP3   OH227076   6.227   3.768   2.789 -0.7656 -0.4069 -0.2193
 1862TIP3    H127077   6.321   3.781   2.775 -1.0370  0.7586 -1.0993
 1862TIP3    H227078   6.222   3.707   2.863  0.6631  1.5022  1.5814
 1863TIP3   OH227079   2.089   2.737  11.457  0.2242  0.3856 -0.2390
 1863TIP3    H127080   2.121   2.694  11.378 -0.3085  0.6626 -0.6141
 1863TIP3    H227081   2.169   2.762  11.505  0.5530  0.4692 -0.8240
 1864TIP3   OH227082   3.903   1.780  10.996  0.1886 -0.1455  0.4106
 1864TIP3    H127083   3.939   1.819  10.916  0.8400 -1.4987  0.0042
 1864TIP3    H227084   3.915   1.847  11.063  1.4872  0.2707 -0.2024
 1865TIP3   OH227085   2.655   1.761   5.232  0.1866  0.2545  0.5047
 1865TIP3    H127086   2.683   1.799   5.315 -2.7892 -0.2925  1.9170
 1865TIP3    H227087   2.592   1.824   5.196  2.6181  1.3045 -2.3218
 1866TIP3   OH227088   3.428   0.828   3.252  0.2294 -0.3312  0.4606
 1866TIP3    H127089   3.438   0.890   3.180  0.0492 -2.3208 -1.4030
 1866TIP3    H227090   3.517   0.801   3.273  0.1952 -0.9641 -0.1781
 1867TIP3   OH227091   2.401   2.926   3.502 -0.1605  0.1661  0.4453
 1867TIP3    H127092   2.308   2.904   3.497 -0.0681 -0.2906  0.6990
 1867TIP3    H227093   2.419   2.971   3.419 -0.6871  0.5859  0.5493
 1868TIP3   OH227094   5.767   3.099  15.457 -0.5325 -0.3616 -0.0800
 1868TIP3    H127095   5.718   3.018  15.464 -0.2534 -0.6598 -1.4044
 1868TIP3    H227096   5.704   3.167  15.482 -0.3730 -1.0448  2.4467
 1869TIP3   OH227097   6.337   3.788  16.848 -0.4330  0.4167 -0.1976
 1869TIP3    H127098   6.401   3.855  16.871  0.6490 -0.2908 -1.0222
 1869TIP3    H227099   6.381   3.705  16.864 -0.7794 -0.0934 -1.6432
 1870TIP3   OH227100   1.091   5.143  12.331 -0.1691 -0.4118 -0.5523
 1870TIP3    H127101   1.013   5.155  12.386 -0.6392 -1.0102 -1.0732
 1870TIP3    H227102   1.074   5.198  12.255 -0.2760 -0.8768 -0.8632
 1871TIP3   OH227103   3.006   2.730  16.986 -0.0999 -0.2082  0.1742
 1871TIP3    H127104   2.936   2.682  16.940  0.9241 -3.3086  1.5477
 1871TIP3    H227105   3.077   2.735  16.922 -0.5075  0.2036 -0.2485
 1872TIP3   OH227106   4.240   5.844  13.230  0.2918 -0.7438 -0.2246
 1872TIP3    H127107   4.241   5.905  13.304 -0.5806  2.6479 -2.7571
 1872TIP3    H227108   4.158   5.863  13.185  1.1597 -2.0492 -2.5002
 1873TIP3   OH227109   3.166   1.115   5.014  0.8525  0.0578  0.3163
 1873TIP3    H127110   3.080   1.115   4.972  1.3645 -1.2219 -0.7974
 1873TIP3    H227111   3.147   1.124   5.107 -0.7083 -3.0368  0.4209
 1874TIP3   OH227112   5.233   1.165  13.862 -0.2618 -0.1580 -0.0387
 1874TIP3    H127113   5.315   1.207  13.890  1.0159 -2.8263  0.5348
 1874TIP3    H227114   5.171   1.184  13.932  0.3166  0.6074  0.2804
 1875TIP3   OH227115   2.481   1.978   5.081  0.0557 -0.0413  0.3925
 1875TIP3    H127116   2.420   2.015   5.018 -0.4675 -0.4319  0.6612
 1875TIP3    H227117   2.567   2.011   5.054 -0.2449  0.3284 -0.1221
 1876TIP3   OH227118   5.444   2.849  12.350 -0.2724  0.1411  0.0320
 1876TIP3    H127119   5.417   2.785  12.415 -1.7458  1.0955  0.4122
 1876TIP3    H227120   5.408   2.816  12.267  0.5415 -0.4403 -0.0976
 1877TIP3   OH227121   6.166   2.663   1.078 -0.2970 -0.2840  0.0332
 1877TIP3    H127122   6.236   2.711   1.034  0.4642 -0.7782  0.6648
 1877TIP3    H227123   6.192   2.571   1.069 -1.8600 -0.6223 -1.3847
 1878TIP3   OH227124   2.644   6.623  13.571 -0.8549 -0.0862 -0.1334
 1878TIP3    H127125   2.617   6.712  13.550 -0.9084 -0.0682  0.0076
 1878TIP3    H227126   2.640   6.619  13.667 -0.1946 -0.0351 -0.0984
 1879TIP3   OH227127   1.853   3.872  11.951 -0.1067  0.4847  0.5623
 1879TIP3    H127128   1.904   3.953  11.949  0.5372  0.2147  3.1145
 1879TIP3    H227129   1.915   3.804  11.927 -1.0639  0.7412 -3.5293
 1880TIP3   OH227130   1.604   1.088   3.717 -0.0241  0.2103  0.9297
 1880TIP3    H127131   1.648   1.097   3.801 -0.1523  2.2803  0.8183
 1880TIP3    H227132   1.612   0.995   3.695  1.5125 -0.0368  2.3961
 1881TIP3   OH227133   2.099   2.676   1.495 -0.1797 -0.2662 -0.1599
 1881TIP3    H127134   2.131   2.653   1.408 -1.3518 -0.8824 -0.4495
 1881TIP3    H227135   2.144   2.615   1.554  0.5645  0.1083 -0.3281
 1882TIP3   OH227136   5.899   6.099  14.161 -0.3155  0.8235  0.2717
 1882TIP3    H127137   5.865   6.123  14.248 -0.0253  0.1796  0.5695
 1882TIP3    H227138   5.985   6.061  14.179 -0.0319  1.1592 -0.3532
 1883TIP3   OH227139   1.572   5.754  15.080 -0.5129 -0.6408 -0.3168
 1883TIP3    H127140   1.494   5.807  15.094 -0.5686 -0.3864 -1.4694
 1883TIP3    H227141   1.562   5.679  15.138 -0.8371  0.1853  0.7212
 1884TIP3   OH227142   6.722   1.958  15.546  0.0200 -0.1911  0.5058
 1884TIP3    H127143   6.816   1.949  15.528  0.1281 -0.2794  1.0953
 1884TIP3    H227144   6.716   1.957  15.641 -0.1935  3.2980  0.6614
 1885TIP3   OH227145   0.484   5.446   1.787  0.0233  0.4923  0.7511
 1885TIP3    H127146   0.562   5.475   1.739  0.0843  0.0726  0.5903
 1885TIP3    H227147   0.518   5.414   1.871  0.2831 -1.4875 -0.0373
 1886TIP3   OH227148   1.910   6.602   2.787 -0.7576  0.3991  0.4935
 1886TIP3    H127149   1.864   6.600   2.870 -0.6796 -2.6358  0.5691
 1886TIP3    H227150   1.856   6.550   2.728  0.1920  0.8239 -0.8111
 1887TIP3   OH227151   0.003   3.641   5.483 -0.3774 -0.2515 -0.3592
 1887TIP3    H127152  -0.036   3.559   5.513 -0.3942  0.0855  0.5755
 1887TIP3    H227153  -0.071   3.694   5.453 -0.6032  0.1551  0.8516
 1888TIP3   OH227154   5.843   4.049   5.798 -0.3711 -0.7259 -0.8344
 1888TIP3    H127155   5.886   3.976   5.841 -0.7261 -1.0828 -1.0838
 1888TIP3    H227156   5.809   4.013   5.716  0.2968 -0.0553 -1.4160
 1889TIP3   OH227157   4.504   4.971   0.867 -0.8098 -0.1935  0.1682
 1889TIP3    H127158   4.483   4.972   0.960 -0.2999  1.2516  0.2978
 1889TIP3    H227159   4.530   5.062   0.847  1.5194 -0.9841 -0.7870
 1890TIP3   OH227160   0.598   5.131   4.971 -0.4628 -0.7287 -0.6231
 1890TIP3    H127161   0.585   5.036   4.976  1.8053 -1.0880 -0.4705
 1890TIP3    H227162   0.599   5.160   5.063 -1.0227 -0.5805 -0.6641
 1891TIP3   OH227163   4.995   3.887  12.103  0.4872 -0.5996  0.3607
 1891TIP3    H127164   5.085   3.917  12.117  0.8487 -1.4970  0.0255
 1891TIP3    H227165   4.955   3.893  12.190  0.8819 -0.2233  0.5217
 1892TIP3   OH227166   2.488   0.636   1.011 -0.0144 -0.0581 -0.4875
 1892TIP3    H127167   2.438   0.703   1.059  0.0789 -0.6505  0.4584
 1892TIP3    H227168   2.480   0.662   0.920  1.0795  2.0022 -0.0888
 1893TIP3   OH227169   4.891   3.578  11.760  0.3538 -0.2962 -0.0482
 1893TIP3    H127170   4.890   3.483  11.772  0.5294 -0.4604 -1.1981
 1893TIP3    H227171   4.852   3.613  11.840  3.2023 -1.1482  1.8681
 1894TIP3   OH227172   6.776   4.515   0.271  0.0959  0.8717 -0.2263
 1894TIP3    H127173   6.775   4.422   0.295  1.2720  0.3218 -2.0425
 1894TIP3    H227174   6.716   4.556   0.332  1.6662 -0.5946  2.5128
 1895TIP3   OH227175   1.634   0.759  15.067 -0.4741  0.4639 -0.3484
 1895TIP3    H127176   1.688   0.682  15.083 -0.3436  0.7832  0.8649
 1895TIP3    H227177   1.546   0.724  15.051 -0.3049  0.0422 -0.3630
 1896TIP3   OH227178   1.395   5.832  12.886 -0.1152  0.1385 -0.8207
 1896TIP3    H127179   1.353   5.900  12.938 -1.7862 -0.9555 -0.6650
 1896TIP3    H227180   1.488   5.839  12.908 -0.5369  0.9058  0.9014
 1897TIP3   OH227181   0.115   3.010  16.846 -0.2462 -0.5037  0.0477
 1897TIP3    H127182   0.146   2.932  16.799 -0.0286 -0.6566  0.4439
 1897TIP3    H227183   0.098   2.980  16.935 -0.1726 -0.1012  0.2023
 1898TIP3   OH227184   1.399   1.103  16.467 -0.0730 -0.2407  0.0710
 1898TIP3    H127185   1.340   1.091  16.542 -1.1666 -3.0890 -1.1178
 1898TIP3    H227186   1.485   1.116  16.507 -0.6978 -1.1406  1.8357
 1899TIP3   OH227187   5.724   2.463  14.454  0.2920  0.2687  0.0826
 1899TIP3    H127188   5.773   2.500  14.381  0.3668 -0.2587 -0.1361
 1899TIP3    H227189   5.668   2.535  14.484  1.6813  1.1040  0.7904
 1900TIP3   OH227190   0.014   4.214  13.643  0.6854 -0.2691 -0.4643
 1900TIP3    H127191   0.063   4.151  13.591  0.7917 -0.1694 -0.4852
 1900TIP3    H227192   0.003   4.171  13.728  0.1579 -0.5995 -0.6967
 1901TIP3   OH227193   1.513   1.002  11.646  0.1739  0.4017 -0.1867
 1901TIP3    H127194   1.436   0.992  11.702  0.8432 -0.1436  0.6560
 1901TIP3    H227195   1.534   1.095  11.649 -0.7641  0.6458 -0.8568
 1902TIP3   OH227196   3.102   3.425   5.484  0.2075 -0.6507  0.4330
 1902TIP3    H127197   3.160   3.499   5.497 -0.4634 -0.2866  1.4832
 1902TIP3    H227198   3.154   3.363   5.432  1.5085 -0.3255  1.2947
 1903TIP3   OH227199   4.719   3.547  15.385 -0.0052 -0.1943  0.1970
 1903TIP3    H127200   4.698   3.602  15.310 -2.4019 -0.0432  0.9059
 1903TIP3    H227201   4.642   3.552  15.442  0.8574 -2.0053  1.6536
 1904TIP3   OH227202   5.174   5.261  15.406 -0.0670  0.5330  0.3824
 1904TIP3    H127203   5.128   5.335  15.366 -1.8015 -0.0706  1.2004
 1904TIP3    H227204   5.140   5.185  15.360  0.3671  0.0932  0.7836
 1905TIP3   OH227205   3.022   6.099  13.270 -0.3730 -0.0245 -0.0208
 1905TIP3    H127206   3.003   6.167  13.206  0.1422  0.5336  0.4115
 1905TIP3    H227207   2.936   6.065  13.295 -0.7498  1.4741  0.8394
 1906TIP3   OH227208   6.091   1.517   5.808  0.5716  0.1291  0.0574
 1906TIP3    H127209   6.035   1.538   5.883 -1.5477 -2.7599 -0.5414
 1906TIP3    H227210   6.055   1.569   5.736 -0.3326 -0.4968  0.0465
 1907TIP3   OH227211   6.779   3.458   1.402 -0.8875  0.3328 -0.2199
 1907TIP3    H127212   6.754   3.461   1.494 -0.6874 -0.9244 -0.1150
 1907TIP3    H227213   6.698   3.433   1.356 -0.5525 -0.8829 -0.1783
 1908TIP3   OH227214   6.716   6.164  11.357  0.3751 -0.4150  0.1298
 1908TIP3    H127215   6.763   6.138  11.278  2.1619 -2.4656  1.7182
 1908TIP3    H227216   6.709   6.083  11.408 -3.2087  0.2327  0.9131
 1909TIP3   OH227217   1.907   1.235   0.652  0.4213 -0.4854 -0.2280
 1909TIP3    H127218   1.964   1.194   0.718  0.8505  0.7158  0.1665
 1909TIP3    H227219   1.868   1.309   0.697 -0.1605 -0.3071 -1.0097
 1910TIP3   OH227220   2.379   5.499   4.809 -0.1369 -0.0354  0.2767
 1910TIP3    H127221   2.366   5.555   4.733  0.8854 -0.1526  0.0004
 1910TIP3    H227222   2.340   5.415   4.783  2.7906 -1.0500 -1.3774
 1911TIP3   OH227223   2.248   3.412   0.496  0.1546  0.1236 -0.1100
 1911TIP3    H127224   2.337   3.407   0.531  0.5685  0.0276 -1.1371
 1911TIP3    H227225   2.200   3.462   0.562  0.3933 -1.7059  1.5697
 1912TIP3   OH227226   3.287   1.214   1.291 -0.3056  0.1750  0.3250
 1912TIP3    H127227   3.238   1.222   1.209  0.3661  0.9196 -0.0279
 1912TIP3    H227228   3.222   1.226   1.360 -0.6502  1.0466 -0.1338
 1913TIP3   OH227229   4.742   1.764  16.190 -0.3826  0.3268 -0.3786
 1913TIP3    H127230   4.703   1.809  16.265  0.3687  1.4758 -0.6515
 1913TIP3    H227231   4.709   1.674  16.196 -1.4900  0.7726  0.4877
 1914TIP3   OH227232   2.528   3.112   3.003 -0.8614  0.4248 -0.0986
 1914TIP3    H127233   2.445   3.156   2.981 -1.7908 -1.0942  0.2161
 1914TIP3    H227234   2.549   3.062   2.924 -1.3357 -0.7692  0.5033
 1915TIP3   OH227235   1.401   4.783  11.718  0.1482 -0.1410  0.2660
 1915TIP3    H127236   1.409   4.720  11.646  0.2404  1.0600 -0.8166
 1915TIP3    H227237   1.313   4.819  11.708  0.5325  0.7795  0.0990
 1916TIP3   OH227238   5.322   0.825   1.665 -0.0340 -0.3313  0.4432
 1916TIP3    H127239   5.415   0.805   1.678 -0.2145  0.0432  2.6113
 1916TIP3    H227240   5.278   0.741   1.678 -0.1186 -0.2162  0.8938
 1917TIP3   OH227241   3.914   4.080  10.322 -0.5649 -0.1170 -0.1905
 1917TIP3    H127242   3.917   4.061  10.416  2.2219 -1.8452 -0.4963
 1917TIP3    H227243   3.861   4.010  10.285  1.4058 -1.7193 -0.2025
 1918TIP3   OH227244   6.468   5.252  11.547  0.2799  0.3306 -0.2979
 1918TIP3    H127245   6.401   5.239  11.479 -1.9135  1.9267  1.3904
 1918TIP3    H227246   6.546   5.279  11.499 -0.7238 -0.0990 -2.2758
 1919TIP3   OH227247   5.601   3.978  15.232  0.6685 -0.2016  0.3239
 1919TIP3    H127248   5.655   4.031  15.173  0.3727  1.0724  1.1661
 1919TIP3    H227249   5.661   3.912  15.266  0.9826 -0.5998 -0.9471
 1920TIP3   OH227250   4.723   1.870   2.064 -0.5479 -0.5015  0.2858
 1920TIP3    H127251   4.794   1.809   2.084  0.3652  0.6789  0.7766
 1920TIP3    H227252   4.656   1.816   2.022  0.3238 -1.7845  0.4815
 1921TIP3   OH227253   6.264   3.291  15.709 -0.2012  0.4268 -0.2218
 1921TIP3    H127254   6.282   3.248  15.792 -0.7333 -2.1088 -1.3166
 1921TIP3    H227255   6.174   3.322  15.717 -0.7390 -1.0385 -0.2907
 1922TIP3   OH227256   2.570   1.520  14.261  0.4348 -0.1990 -0.4244
 1922TIP3    H127257   2.478   1.534  14.236 -0.6296 -1.3757  2.4288
 1922TIP3    H227258   2.600   1.605  14.291  0.0682  0.0626 -0.7904
 1923TIP3   OH227259   2.802   2.163  13.685  0.3478  0.7810 -0.9896
 1923TIP3    H127260   2.765   2.075  13.697 -0.3507  1.0683 -1.0146
 1923TIP3    H227261   2.838   2.162  13.597  0.2303  0.5616 -1.0362
 1924TIP3   OH227262   4.808   5.858  13.151  0.2660  0.0620 -0.3528
 1924TIP3    H127263   4.736   5.921  13.156  0.6913  0.5449 -0.1422
 1924TIP3    H227264   4.884   5.911  13.125  0.4379 -0.5268 -1.0692
 1925TIP3   OH227265   0.217   6.219   0.460 -0.3791  0.2351  0.0739
 1925TIP3    H127266   0.235   6.293   0.519  0.7691  0.2189 -0.2382
 1925TIP3    H227267   0.278   6.151   0.488 -1.4944 -0.6630  0.4275
 1926TIP3   OH227268   1.278   6.532  16.207  0.2830 -1.2419 -0.1236
 1926TIP3    H127269   1.206   6.474  16.232 -1.8325  1.0808 -0.2817
 1926TIP3    H227270   1.354   6.500  16.255 -1.7254 -1.6651  3.0427
 1927TIP3   OH227271   5.710   5.947  14.405  0.2040 -0.2034  0.2785
 1927TIP3    H127272   5.780   6.013  14.405 -0.4346  0.4904  0.8180
 1927TIP3    H227273   5.630   5.997  14.415 -0.2893 -1.0763  0.8153
 1928TIP3   OH227274   5.548   2.827  14.911  0.3505  0.2435 -0.0467
 1928TIP3    H127275   5.619   2.889  14.901 -0.5556  1.4037  0.4632
 1928TIP3    H227276   5.483   2.854  14.847  0.1568 -0.4998 -0.1730
 1929TIP3   OH227277   2.658   0.020   1.111 -0.1664 -0.7217 -0.1533
 1929TIP3    H127278   2.655   0.072   1.031 -1.2783 -4.0916 -2.5419
 1929TIP3    H227279   2.568   0.018   1.144 -0.2093 -1.3706 -0.2892
 1930TIP3   OH227280   3.432   6.825  13.337 -0.1614  0.1342  0.6568
 1930TIP3    H127281   3.467   6.835  13.426 -0.4910  2.8264  0.5888
 1930TIP3    H227282   3.366   6.895  13.330  0.0223  0.1389 -1.7719
 1931TIP3   OH227283   6.377   2.959  14.875  0.5810  0.7879 -0.2546
 1931TIP3    H127284   6.464   2.920  14.879  0.1924 -0.2126 -1.0652
 1931TIP3    H227285   6.340   2.942  14.962  0.5766 -0.3480 -0.4524
 1932TIP3   OH227286   3.720   6.401   1.653 -0.1938 -0.1135  0.3398
 1932TIP3    H127287   3.652   6.453   1.696  0.2517  1.5216 -0.8470
 1932TIP3    H227288   3.801   6.424   1.699  0.1175  0.8284 -0.6476
 1933TIP3   OH227289   6.686   5.010  13.550 -0.4881 -0.0169 -0.0480
 1933TIP3    H127290   6.683   5.104  13.568  0.3725  0.3040 -1.4598
 1933TIP3    H227291   6.779   4.989  13.544 -0.5461 -1.4810  2.6030
 1934TIP3   OH227292   4.297   2.562  10.883 -0.4228  0.2959 -0.1651
 1934TIP3    H127293   4.262   2.481  10.845  0.0208  0.8347 -1.8276
 1934TIP3    H227294   4.247   2.631  10.840  1.3299  0.9995 -1.1856
 1935TIP3   OH227295   0.050   5.533   0.413  0.0493 -0.0544  0.4883
 1935TIP3    H127296   0.051   5.466   0.482 -0.1480  1.2768  1.8505
 1935TIP3    H227297   0.139   5.532   0.378 -0.6185 -2.9142 -1.5394
 1936TIP3   OH227298   3.923   0.575  10.953 -0.0166 -0.2121  0.4626
 1936TIP3    H127299   3.899   0.550  11.042 -2.6995  0.2175 -0.0239
 1936TIP3    H227300   3.877   0.512  10.898  2.4250 -1.1078 -0.6697
 1937TIP3   OH227301   2.835   5.082  14.811 -0.6047  0.4157 -0.1082
 1937TIP3    H127302   2.746   5.071  14.845 -1.1734  2.8632 -0.5602
 1937TIP3    H227303   2.878   5.137  14.877  0.7796 -1.1380  0.3437
 1938TIP3   OH227304   6.547   5.472   5.818  0.0888  0.1098 -0.2823
 1938TIP3    H127305   6.569   5.464   5.725  0.9673 -0.4912 -0.0325
 1938TIP3    H227306   6.580   5.559   5.843 -2.5843  1.4866 -1.1491
 1939TIP3   OH227307   4.261   3.437   1.208 -0.3433 -0.5464 -0.6574
 1939TIP3    H127308   4.171   3.444   1.176 -0.7172 -1.7048  0.0554
 1939TIP3    H227309   4.284   3.346   1.194  0.7980 -0.2102 -1.0013
 1940TIP3   OH227310   4.192   5.573  13.256 -0.0417 -0.1164 -0.3211
 1940TIP3    H127311   4.245   5.566  13.335  0.5214  1.2793 -0.5413
 1940TIP3    H227312   4.192   5.667  13.236 -2.3385 -0.1215 -0.5222
 1941TIP3   OH227313   5.663   1.057  10.553 -0.5943  0.3649  0.3338
 1941TIP3    H127314   5.605   1.101  10.616 -3.1146  1.2814 -2.3872
 1941TIP3    H227315   5.676   1.122  10.484  1.5608 -0.7878 -0.4260
 1942TIP3   OH227316   1.550   2.207  16.564 -0.1293  0.1894 -1.0762
 1942TIP3    H127317   1.457   2.231  16.569 -0.2678 -0.5015 -0.2100
 1942TIP3    H227318   1.581   2.249  16.483 -0.5748  2.5076 -0.1185
 1943TIP3   OH227319   4.770   5.555  14.195  0.6087 -0.0860 -0.2678
 1943TIP3    H127320   4.851   5.605  14.190  0.4451  0.4382  1.5247
 1943TIP3    H227321   4.703   5.621  14.215 -0.1712 -0.6059 -1.0792
 1944TIP3   OH227322   4.295   3.578   2.108  0.1437  0.0654 -0.1866
 1944TIP3    H127323   4.234   3.555   2.178 -1.3657 -0.0461 -1.4867
 1944TIP3    H227324   4.268   3.666   2.081  1.0337  0.3093 -0.3100
 1945TIP3   OH227325   0.474   5.490  16.507  1.2910 -0.7830 -0.4174
 1945TIP3    H127326   0.425   5.450  16.578  0.4221  0.8183 -0.0852
 1945TIP3    H227327   0.426   5.465  16.428  1.5390 -1.5187 -0.3411
 1946TIP3   OH227328   1.660   3.914   6.129  0.3075  0.1095  0.0015
 1946TIP3    H127329   1.580   3.963   6.108 -0.5665 -1.2945 -0.0285
 1946TIP3    H227330   1.637   3.863   6.207  1.3209  0.0055  0.2424
 1947TIP3   OH227331   3.956   5.733  11.639 -0.0424 -0.2557  0.1520
 1947TIP3    H127332   4.037   5.726  11.690 -1.0215 -0.9403  1.6697
 1947TIP3    H227333   3.896   5.670  11.679 -1.5207  0.6315 -0.5644
 1948TIP3   OH227334   5.519   3.322   3.658  0.6109 -0.2643  0.0293
 1948TIP3    H127335   5.553   3.370   3.734  0.0681  0.9372 -0.4638
 1948TIP3    H227336   5.534   3.230   3.680  1.5401  0.1053  1.0719
 1949TIP3   OH227337   2.214   2.835   1.016 -0.3610 -0.2365 -0.3339
 1949TIP3    H127338   2.182   2.886   0.942  0.7140  1.1878  0.1413
 1949TIP3    H227339   2.296   2.877   1.041 -0.2702 -1.1959  1.1388
 1950TIP3   OH227340   6.282   0.043  16.268 -0.1693 -0.4386 -0.5207
 1950TIP3    H127341   6.303  -0.050  16.262 -0.2902 -0.5272  0.2783
 1950TIP3    H227342   6.203   0.046  16.322  0.0286  0.1444 -0.2523
 1951TIP3   OH227343   5.163   2.852   1.882 -0.6676 -0.3392  0.0883
 1951TIP3    H127344   5.090   2.903   1.847 -0.4550  0.4127  0.6963
 1951TIP3    H227345   5.145   2.762   1.856 -0.9865  0.0626 -1.1250
 1952TIP3   OH227346   3.483   1.649   0.149  0.4331  0.1027  0.1217
 1952TIP3    H127347   3.520   1.627   0.064 -1.1568 -0.3262 -0.5014
 1952TIP3    H227348   3.410   1.588   0.160  0.3983  0.3740  1.6436
 1953TIP3   OH227349   1.043   5.153   3.722 -0.2781  0.5255  0.3725
 1953TIP3    H127350   1.128   5.128   3.685 -0.5480  0.9134 -0.5345
 1953TIP3    H227351   0.990   5.074   3.716  0.1955  0.0948  1.5260
 1954TIP3   OH227352   5.704   3.953   1.612 -0.0116  0.0428  0.1145
 1954TIP3    H127353   5.669   3.879   1.660 -1.6155  1.6157  1.5240
 1954TIP3    H227354   5.758   4.000   1.675  1.0149  0.0902 -0.7658
 1955TIP3   OH227355   0.521   4.554   1.789 -0.0264 -0.5027  0.4254
 1955TIP3    H127356   0.559   4.641   1.773  0.3913 -0.9092 -0.9457
 1955TIP3    H227357   0.513   4.515   1.702  0.0967 -1.9700  1.0457
 1956TIP3   OH227358   3.937   3.861   4.151  0.0762  0.3277  1.5268
 1956TIP3    H127359   3.901   3.912   4.078 -0.0020 -2.1149 -0.2811
 1956TIP3    H227360   3.933   3.920   4.226 -1.4465  2.4001 -0.0621
 1957TIP3   OH227361   1.251   6.507  14.469 -0.1830 -0.1059 -0.0842
 1957TIP3    H127362   1.293   6.527  14.553  0.3730 -1.1659 -0.0907
 1957TIP3    H227363   1.314   6.450  14.424 -0.7971 -0.1465 -0.9145
 1958TIP3   OH227364   4.196   6.734  13.548 -0.4066  0.5552 -0.0081
 1958TIP3    H127365   4.165   6.647  13.524 -4.0669  1.2124  1.6729
 1958TIP3    H227366   4.230   6.724  13.637  0.3617  0.6686 -0.2746
 1959TIP3   OH227367   4.835   2.624   5.965 -0.2322 -0.1912  0.4783
 1959TIP3    H127368   4.777   2.700   5.965 -0.3767 -0.2948 -0.2789
 1959TIP3    H227369   4.906   2.647   6.025 -0.8800  0.0708  1.1521
 1960TIP3   OH227370   2.055   2.352   4.764  0.0168  0.2311  0.5122
 1960TIP3    H127371   2.120   2.286   4.739  0.1277 -0.6484  2.8257
 1960TIP3    H227372   2.106   2.433   4.773 -0.1276  0.7547 -2.3837
 1961TIP3   OH227373   0.759   2.796  12.075  0.5298  0.3055 -0.0158
 1961TIP3    H127374   0.830   2.733  12.067  0.5158  0.1435  0.9708
 1961TIP3    H227375   0.688   2.747  12.117  0.3127  0.8251  0.2363
 1962TIP3   OH227376   6.070   1.313  14.160  0.6027  0.4956  0.6285
 1962TIP3    H127377   6.015   1.325  14.082 -1.2872 -0.0652  1.8225
 1962TIP3    H227378   6.039   1.232  14.200  1.1056  1.0822  2.3017
 1963TIP3   OH227379   6.278   3.248   1.899  0.1601 -0.2783 -0.7553
 1963TIP3    H127380   6.186   3.222   1.906 -0.7919  3.0424  1.9005
 1963TIP3    H227381   6.316   3.224   1.983  0.9028  0.9876 -0.7079
 1964TIP3   OH227382   2.777   3.489  12.317 -0.2471  0.5614  0.2637
 1964TIP3    H127383   2.713   3.517  12.252  0.7367  2.3023 -0.0250
 1964TIP3    H227384   2.847   3.449  12.266  0.1547  1.1942  0.3063
 1965TIP3   OH227385   4.139   6.163  11.684  0.5390 -0.5861 -0.4413
 1965TIP3    H127386   4.069   6.203  11.632 -0.1477 -1.2999 -0.0897
 1965TIP3    H227387   4.197   6.123  11.620  1.8939  1.8926 -0.8956
 1966TIP3   OH227388   1.379   1.259   3.778 -0.1722  0.1286 -0.4926
 1966TIP3    H127389   1.471   1.233   3.767  0.1707  0.9423  0.3610
 1966TIP3    H227390   1.339   1.240   3.693  0.3825 -1.7803 -0.3780
 1967TIP3   OH227391   4.984   0.274   2.053 -0.0573 -0.0923 -0.4629
 1967TIP3    H127392   5.057   0.271   1.992  1.5451 -0.6605  1.3534
 1967TIP3    H227393   4.958   0.366   2.055  0.4303  0.0783 -1.3331
 1968TIP3   OH227394   5.748   1.149  11.259  0.4755 -0.5622 -0.0233
 1968TIP3    H127395   5.825   1.187  11.216 -0.5740 -0.7531 -2.1804
 1968TIP3    H227396   5.750   1.186  11.347  0.5899  3.0499 -1.3842
 1969TIP3   OH227397   3.566   1.548   2.281 -0.0239 -0.6693 -0.0828
 1969TIP3    H127398   3.536   1.619   2.339  2.0834 -0.4575  0.8468
 1969TIP3    H227399   3.607   1.593   2.207  1.9786 -0.8413  0.8636
 1970TIP3   OH227400   5.557   3.248   1.110  0.1306 -0.1741 -0.4765
 1970TIP3    H127401   5.478   3.201   1.085 -0.3582  1.2042 -1.6598
 1970TIP3    H227402   5.569   3.229   1.203 -1.0055 -1.2180 -0.5308
 1971TIP3   OH227403   4.091   6.677   2.530  0.7267 -0.3437 -0.2183
 1971TIP3    H127404   4.163   6.728   2.567  0.1957  1.1196 -1.1489
 1971TIP3    H227405   4.012   6.712   2.572  0.3429 -0.3245 -0.9469
 1972TIP3   OH227406   0.771   0.374   4.385  0.1524  0.0006  0.3277
 1972TIP3    H127407   0.704   0.429   4.344  0.7648  1.3144  1.0314
 1972TIP3    H227408   0.726   0.332   4.458  0.3190  1.8698  1.6027
 1973TIP3   OH227409   0.543   2.813   1.491  0.2539  0.8123 -0.1261
 1973TIP3    H127410   0.598   2.736   1.475 -1.6099 -1.6532  3.8321
 1973TIP3    H227411   0.490   2.822   1.412  1.5664 -1.0014 -1.2905
 1974TIP3   OH227412   5.855   3.992   3.272 -0.1542 -0.4548  0.3265
 1974TIP3    H127413   5.892   3.931   3.209 -1.9391 -0.5306 -0.7094
 1974TIP3    H227414   5.813   4.060   3.218 -1.7076 -0.5034  1.4052
 1975TIP3   OH227415   4.480   5.334   5.720  0.7193 -0.1540  0.2641
 1975TIP3    H127416   4.520   5.420   5.731  0.9840 -0.1738 -0.4837
 1975TIP3    H227417   4.550   5.273   5.745  0.4398 -0.1551  1.0701
 1976TIP3   OH227418   1.844   4.420  13.469  0.6201 -0.8487 -0.2287
 1976TIP3    H127419   1.903   4.348  13.448  1.1153 -0.3271 -0.6952
 1976TIP3    H227420   1.809   4.448  13.384 -0.2535 -1.1029  0.0351
 1977TIP3   OH227421   1.883   1.962  16.575 -0.0091  0.1980  0.4159
 1977TIP3    H127422   1.787   1.961  16.574 -0.0070 -0.0259  0.4351
 1977TIP3    H227423   1.907   2.015  16.499 -0.1257 -0.9484 -0.4409
 1978TIP3   OH227424   2.835   0.724  14.576 -0.1973  0.1324  0.0447
 1978TIP3    H127425   2.807   0.637  14.604  0.2358 -0.3742 -1.0802
 1978TIP3    H227426   2.763   0.781  14.602 -0.3253 -0.4932  1.1227
 1979TIP3   OH227427   2.842   2.461   3.573  0.2705 -0.6769  0.0199
 1979TIP3    H127428   2.799   2.534   3.618  1.4469 -0.1345  0.3069
 1979TIP3    H227429   2.773   2.395   3.562 -0.4232 -0.1656  1.1708
 1980TIP3   OH227430   2.971   2.511   1.678  0.0893 -0.0072 -0.3640
 1980TIP3    H127431   2.954   2.469   1.594  2.1178  0.8649 -1.2788
 1980TIP3    H227432   2.986   2.603   1.656 -2.3266  0.8903  1.3509
 1981TIP3   OH227433   5.094   2.883  14.914 -0.6643 -0.7023 -0.5334
 1981TIP3    H127434   5.157   2.836  14.969 -2.2695  0.1482  2.2226
 1981TIP3    H227435   5.026   2.818  14.894 -2.3620 -0.0005  2.4218
 1982TIP3   OH227436   6.593   3.754   2.412 -0.3786 -0.7040 -0.0131
 1982TIP3    H127437   6.652   3.714   2.349 -0.9514 -0.6799 -0.5753
 1982TIP3    H227438   6.558   3.831   2.367 -0.3742 -0.3784  0.5357
 1983TIP3   OH227439   1.452   0.468  11.048  0.3698 -0.6960  0.3744
 1983TIP3    H127440   1.392   0.481  11.121 -0.7395 -1.0499 -0.4481
 1983TIP3    H227441   1.439   0.377  11.022  0.2236 -0.3857 -0.7000
 1984TIP3   OH227442   0.175   1.429   4.804 -0.0633  0.2649 -0.3920
 1984TIP3    H127443   0.254   1.442   4.752  0.0316 -2.3469 -1.0444
 1984TIP3    H227444   0.149   1.339   4.786 -1.6924  0.1896  1.8703
 1985TIP3   OH227445   5.581   0.712  11.590 -0.1712 -0.0084  0.4211
 1985TIP3    H127446   5.600   0.693  11.498 -1.0905  0.1444  0.1920
 1985TIP3    H227447   5.524   0.789  11.587 -3.4922 -2.2588  0.8581
 1986TIP3   OH227448   4.409   5.209   3.563 -0.1211 -0.4208  0.0804
 1986TIP3    H127449   4.397   5.136   3.501  0.1531 -0.5804  0.2151
 1986TIP3    H227450   4.418   5.286   3.507 -1.6723 -0.2979 -0.0392
 1987TIP3   OH227451   2.233   1.036   0.662  0.1315  0.0611  0.0290
 1987TIP3    H127452   2.241   1.057   0.755 -3.5786  0.7619  0.3482
 1987TIP3    H227453   2.221   1.121   0.620 -0.0849 -0.3821 -0.8274
 1988TIP3   OH227454   3.135   5.259  14.408  0.5687 -0.1924  0.6133
 1988TIP3    H127455   3.106   5.210  14.331  1.7375  0.0957 -0.0419
 1988TIP3    H227456   3.070   5.239  14.475  1.1876 -2.9735  0.5241
 1989TIP3   OH227457   5.005   5.626   4.191  0.6253  0.3952 -0.0504
 1989TIP3    H127458   4.910   5.610   4.189  0.9565 -1.8469 -0.1493
 1989TIP3    H227459   5.038   5.569   4.260  2.0814  0.0420 -0.9931
 1990TIP3   OH227460   3.265   2.951   4.390  0.8743 -0.3398 -0.2335
 1990TIP3    H127461   3.241   2.865   4.357 -0.1446  0.4815 -1.7437
 1990TIP3    H227462   3.318   2.933   4.468  0.5780 -2.3073 -0.4407
 1991TIP3   OH227463   1.624   5.773   4.670  0.1348 -0.0179 -0.4004
 1991TIP3    H127464   1.576   5.847   4.633 -1.9336 -0.3042  1.5210
 1991TIP3    H227465   1.678   5.811   4.739 -0.6916 -0.2618  0.3803
 1992TIP3   OH227466   4.365   3.053   0.837 -0.6673 -0.0908  0.1159
 1992TIP3    H127467   4.373   2.993   0.764 -2.5476 -1.4736  0.9604
 1992TIP3    H227468   4.445   3.105   0.835 -0.3687 -0.5347 -2.4858
 1993TIP3   OH227469   2.142   1.119  12.951 -0.2645  0.2615 -0.1601
 1993TIP3    H127470   2.161   1.192  13.010  2.0664  0.1177 -0.6402
 1993TIP3    H227471   2.075   1.068  12.997  0.6224  0.7850  1.8215
 1994TIP3   OH227472   1.842   2.463   4.409  0.3220  0.2199 -0.0340
 1994TIP3    H127473   1.809   2.422   4.329 -0.4102  0.1917  0.2747
 1994TIP3    H227474   1.931   2.428   4.419 -0.0416 -0.7662 -0.1441
 1995TIP3   OH227475   5.760   6.820   4.674 -0.1618 -0.6053  0.3573
 1995TIP3    H127476   5.712   6.770   4.740  0.5913  0.1113  1.4755
 1995TIP3    H227477   5.699   6.889   4.648  0.2368  0.3176  1.7916
 1996TIP3   OH227478   1.454   6.158   5.422 -0.1204  0.2816 -0.0991
 1996TIP3    H127479   1.405   6.239   5.412 -0.3325  0.1487 -0.1331
 1996TIP3    H227480   1.466   6.149   5.517  0.1010  0.4696 -0.1083
 1997TIP3   OH227481   5.094   4.365  13.608 -0.0568  0.2409  0.1996
 1997TIP3    H127482   5.063   4.275  13.601 -0.8744  0.6316 -1.9081
 1997TIP3    H227483   5.035   4.406  13.671 -2.6339  0.4109 -2.1384
 1998TIP3   OH227484   5.295   2.288   4.508 -0.3876 -0.7075  0.8152
 1998TIP3    H127485   5.370   2.340   4.537 -0.0851 -0.3326 -0.5922
 1998TIP3    H227486   5.222   2.318   4.562 -0.2932  1.4162 -0.1480
 1999TIP3   OH227487   6.581   0.851   2.565  0.4544 -0.1017 -0.2361
 1999TIP3    H127488   6.650   0.817   2.621 -0.2991 -0.5374  0.4603
 1999TIP3    H227489   6.585   0.797   2.486 -0.7665 -1.9509  0.8854
 2000TIP3   OH227490   5.689   1.361  15.575 -0.6010 -0.0101  0.1946
 2000TIP3    H127491   5.596   1.373  15.592 -0.8091 -1.6609  0.3739
 2000TIP3    H227492   5.710   1.275  15.612  0.7019 -0.2257 -0.9463
 2001TIP3   OH227493   5.839   1.133  12.925  0.4073  0.2464 -0.2794
 2001TIP3    H127494   5.794   1.159  13.006  1.4708 -1.1455  0.8023
 2001TIP3    H227495   5.866   1.216  12.886  0.3923  0.9281  1.0967
 2002TIP3   OH227496   1.729   5.414  10.882 -0.2625 -0.1331 -0.1507
 2002TIP3    H127497   1.752   5.475  10.952  0.7940 -0.6068 -0.0634
 2002TIP3    H227498   1.733   5.328  10.924 -1.8240 -0.2851 -0.2487
 2003TIP3   OH227499   1.387   3.374  15.950  0.4479  0.0124 -0.2870
 2003TIP3    H127500   1.386   3.420  16.034  4.4764 -0.1722  0.0565
 2003TIP3    H227501   1.340   3.433  15.890  1.8477  2.6737  1.0362
 2004TIP3   OH227502   6.385   4.831  15.267  0.3301  0.2128 -0.0159
 2004TIP3    H127503   6.317   4.867  15.211  0.7076  1.9572  0.5882
 2004TIP3    H227504   6.467   4.852  15.222  0.6168  1.2554  0.9308
 2005TIP3   OH227505   4.838   1.880   0.214 -0.3055  0.9580 -0.7452
 2005TIP3    H127506   4.778   1.920   0.278  0.9030 -1.7519  2.3558
 2005TIP3    H227507   4.909   1.944   0.205 -1.2390  2.0494 -0.5885
 2006TIP3   OH227508   5.421   3.110  15.781  0.4702  0.1211 -0.2485
 2006TIP3    H127509   5.442   3.067  15.699 -2.1710  0.4638 -1.1909
 2006TIP3    H227510   5.380   3.042  15.835 -1.7624  0.8379 -0.9356
 2007TIP3   OH227511   4.839   2.604   4.986 -0.5347  0.2646  0.7145
 2007TIP3    H127512   4.823   2.643   5.071 -0.4975  1.8701  0.0195
 2007TIP3    H227513   4.812   2.671   4.923 -1.5433 -1.2496 -0.5604
 2008TIP3   OH227514   6.555   6.562   4.683 -0.2947 -0.2510  0.4076
 2008TIP3    H127515   6.480   6.613   4.715 -1.4389 -1.2560 -0.5804
 2008TIP3    H227516   6.620   6.570   4.752 -1.9528 -0.7721  2.1271
 2009TIP3   OH227517   4.909   2.881  13.007  0.0798 -0.4458 -0.2080
 2009TIP3    H127518   4.835   2.916  12.957  0.7745 -0.0083 -0.9504
 2009TIP3    H227519   4.982   2.883  12.945  0.7140 -0.8639  0.5222
 2010TIP3   OH227520   6.336   2.674  15.967  0.1867 -0.3333  0.4093
 2010TIP3    H127521   6.277   2.630  16.028  0.7147 -0.0527  1.1424
 2010TIP3    H227522   6.424   2.653  16.000  0.6802 -2.9232 -2.0740
 2011TIP3   OH227523   5.636   1.706   3.388 -0.6296  0.5632 -0.4535
 2011TIP3    H127524   5.722   1.734   3.357 -0.5193  0.3286 -0.3594
 2011TIP3    H227525   5.649   1.617   3.420 -0.1420  1.7229  2.8708
 2012TIP3   OH227526   2.025   5.871  12.732  0.4317 -0.3199 -0.0066
 2012TIP3    H127527   2.037   5.931  12.658 -2.8203 -0.9990 -1.2404
 2012TIP3    H227528   1.944   5.825  12.713  0.5750 -2.0820  3.0028
 2013TIP3   OH227529   3.857   4.406   1.245  1.2757 -0.1539 -0.9850
 2013TIP3    H127530   3.880   4.493   1.210  0.0441  0.2481 -0.8432
 2013TIP3    H227531   3.761   4.406   1.248  1.2826 -0.2774  2.1190
 2014TIP3   OH227532   5.728   2.194   1.851 -0.1973  0.5189  0.4507
 2014TIP3    H127533   5.701   2.105   1.872 -2.0243  0.4776 -1.7489
 2014TIP3    H227534   5.752   2.232   1.936  1.1505 -2.1510  1.3909
 2015TIP3   OH227535   1.467   0.539  12.748  0.4946  0.1261  0.0906
 2015TIP3    H127536   1.494   0.611  12.691  1.5832 -0.1299  0.2607
 2015TIP3    H227537   1.497   0.460  12.703 -0.2495 -0.1942  0.1475
 2016TIP3   OH227538   2.692   4.870  11.402  0.2832  0.2320  0.1111
 2016TIP3    H127539   2.680   4.934  11.473 -1.8866 -0.2516  0.2539
 2016TIP3    H227540   2.610   4.819  11.402  1.4167 -1.6930 -0.8523
 2017TIP3   OH227541   2.996   5.018  13.913  0.0573  0.1179 -0.4025
 2017TIP3    H127542   3.032   5.075  13.982  0.8883 -0.3719 -0.4229
 2017TIP3    H227543   2.902   5.018  13.929  0.2397 -0.0035  0.7511
 2018TIP3   OH227544   0.486   1.814   5.523 -0.1401  0.2457  0.8963
 2018TIP3    H127545   0.426   1.805   5.597 -0.8519  0.6926  0.3816
 2018TIP3    H227546   0.572   1.822   5.563 -0.2931 -1.2924  1.6253
 2019TIP3   OH227547   4.165   3.153   4.077 -0.3974 -0.0359 -0.2305
 2019TIP3    H127548   4.077   3.191   4.080  0.0494  0.9395  1.3583
 2019TIP3    H227549   4.172   3.116   3.988 -1.9922  0.8485 -0.7576
 2020TIP3   OH227550   4.150   0.236  15.632  0.4161  0.5190  0.0599
 2020TIP3    H127551   4.055   0.242  15.637  0.1761 -0.0388 -2.3863
 2020TIP3    H227552   4.180   0.327  15.638 -0.2405  0.6778  1.0749
 2021TIP3   OH227553   2.346   4.982   4.718 -0.3737  0.2674  0.1749
 2021TIP3    H127554   2.378   5.013   4.634  0.9093 -1.8203 -0.1848
 2021TIP3    H227555   2.289   4.908   4.697  0.1456 -0.4368  1.1081
 2022TIP3   OH227556   5.224   2.318   0.696 -0.4240 -0.1023 -0.3623
 2022TIP3    H127557   5.247   2.285   0.609 -0.2355  1.8910 -1.1212
 2022TIP3    H227558   5.248   2.411   0.693  1.5604 -0.3978  2.5086
 2023TIP3   OH227559   5.745   6.586  13.124 -0.0821  0.2838 -0.4734
 2023TIP3    H127560   5.823   6.621  13.166  0.9787 -1.8496 -0.5319
 2023TIP3    H227561   5.692   6.550  13.195  0.9126 -1.8046 -0.7174
 2024TIP3   OH227562   3.429   0.477  16.791 -0.3595 -0.2857 -0.0992
 2024TIP3    H127563   3.461   0.534  16.721 -0.6499  0.3692  0.2978
 2024TIP3    H227564   3.358   0.427  16.750  0.3544 -0.8873 -0.6414
 2025TIP3   OH227565   3.652   4.806  10.789  0.0572  0.3445  0.4848
 2025TIP3    H127566   3.723   4.778  10.732 -1.4316  0.6955 -1.6914
 2025TIP3    H227567   3.683   4.888  10.827  1.3804 -0.2731  0.7905
 2026TIP3   OH227568   4.684   1.553  15.733  0.1909  0.4824 -0.6644
 2026TIP3    H127569   4.637   1.568  15.815  1.3525  2.4338 -0.2915
 2026TIP3    H227570   4.775   1.576  15.753  0.9018 -1.0253 -1.9629
 2027TIP3   OH227571   6.188   5.769  12.411  0.5878  0.3049  0.4244
 2027TIP3    H127572   6.234   5.850  12.433  1.2618  0.0924 -0.1691
 2027TIP3    H227573   6.183   5.720  12.493 -2.0699  2.0053  1.4172
 2028TIP3   OH227574   2.159   3.080   4.393 -0.5736  0.7278  0.0529
 2028TIP3    H127575   2.066   3.068   4.412 -0.7644  0.2085 -1.1138
 2028TIP3    H227576   2.205   3.023   4.455 -1.1495 -0.6556 -0.7556
 2029TIP3   OH227577   3.031   6.142  11.168 -0.5376  0.1103 -0.1212
 2029TIP3    H127578   3.007   6.057  11.204 -0.4829  0.4123  0.6513
 2029TIP3    H227579   2.952   6.172  11.122 -0.5546 -0.3557 -0.3986
 2030TIP3   OH227580   4.164   1.630   1.246 -0.3210 -0.4098  0.6435
 2030TIP3    H127581   4.218   1.708   1.244  0.0781 -0.6499  1.6062
 2030TIP3    H227582   4.093   1.648   1.185 -1.0456  1.2981  1.9174
 2031TIP3   OH227583   6.667   2.835   0.541 -0.2013  0.1424 -0.3018
 2031TIP3    H127584   6.702   2.880   0.464  1.1550 -1.4851 -0.7034
 2031TIP3    H227585   6.735   2.847   0.608 -0.8138  0.5079  0.2609
 2032TIP3   OH227586   3.825   6.603  15.273  0.4695  0.0311 -0.3665
 2032TIP3    H127587   3.811   6.511  15.296  2.6576  0.4194  3.2578
 2032TIP3    H227588   3.903   6.602  15.218 -0.8393 -0.3693 -2.3126
 2033TIP3   OH227589   6.369   6.602  11.440  0.3650  0.0923 -0.4023
 2033TIP3    H127590   6.274   6.613  11.444  0.5978  2.5531  3.4196
 2033TIP3    H227591   6.387   6.526  11.495  0.6403  0.0081 -0.6081
 2034TIP3   OH227592   5.403   1.714   1.248 -0.3557  0.1468 -0.2931
 2034TIP3    H127593   5.333   1.724   1.313  0.3034 -1.5246  0.7430
 2034TIP3    H227594   5.363   1.744   1.166 -1.9704  0.1528  0.4464
 2035TIP3   OH227595   4.961   5.030   1.618  0.0742  0.1027 -0.4463
 2035TIP3    H127596   5.056   5.023   1.603  0.1735 -1.6895  0.7086
 2035TIP3    H227597   4.940   4.954   1.672 -1.5835  1.9173  1.6080
 2036TIP3   OH227598   1.582   2.883   0.738 -0.0120  0.2658  0.2865
 2036TIP3    H127599   1.610   2.941   0.667  0.4578 -0.5702 -0.2237
 2036TIP3    H227600   1.661   2.870   0.790 -0.4326  1.1589  1.1940
 2037TIP3   OH227601   4.756   4.640  11.335  0.2497 -0.5509  0.1273
 2037TIP3    H127602   4.803   4.654  11.253  1.2350 -1.6956  0.4763
 2037TIP3    H227603   4.741   4.546  11.340  0.6037 -0.5659  1.4537
 2038TIP3   OH227604   2.307   6.822   1.551  0.5803  0.0195 -1.0555
 2038TIP3    H127605   2.214   6.834   1.573  0.9962  0.3619  0.6102
 2038TIP3    H227606   2.335   6.907   1.517  0.7972  0.5967  0.4884
 2039TIP3   OH227607   4.610   5.993   0.990 -0.0749  0.4077 -0.3356
 2039TIP3    H127608   4.550   6.063   0.964 -0.4131  0.1990 -0.1213
 2039TIP3    H227609   4.566   5.912   0.964 -0.6397  0.1628  1.2925
 2040TIP3   OH227610   3.867   1.188   2.765  0.4333  0.6505  0.0860
 2040TIP3    H127611   3.793   1.131   2.746  1.0470  0.1000 -0.7723
 2040TIP3    H227612   3.878   1.184   2.860 -1.4926  1.8715  0.4048
 2041TIP3   OH227613   2.071   1.486   3.587  0.6908 -0.1596  0.0007
 2041TIP3    H127614   1.983   1.505   3.620  0.9841 -1.0796  1.4379
 2041TIP3    H227615   2.057   1.436   3.507 -0.0576  2.5310 -1.6926
 2042TIP3   OH227616   4.597   5.702   0.536  0.0279  0.1131 -0.4274
 2042TIP3    H127617   4.581   5.689   0.442 -1.5884 -1.3889  0.0041
 2042TIP3    H227618   4.579   5.794   0.551  2.4185  0.9182 -1.9461
 2043TIP3   OH227619   1.382   1.252  11.007  0.2825 -0.6482  0.0549
 2043TIP3    H127620   1.325   1.211  10.942 -1.4116 -0.2190  1.2039
 2043TIP3    H227621   1.440   1.181  11.035  2.0606 -0.5322 -2.8491
 2044TIP3   OH227622   4.546   0.434   0.673  0.3335  0.0563 -0.0298
 2044TIP3    H127623   4.561   0.341   0.656  1.3836 -0.3115  2.5131
 2044TIP3    H227624   4.451   0.440   0.686  0.0504 -0.3389 -1.7125
 2045TIP3   OH227625   1.910   3.362   0.343  1.0902 -0.2409 -0.2467
 2045TIP3    H127626   1.874   3.451   0.350  0.4101 -0.5966  1.4113
 2045TIP3    H227627   1.877   3.329   0.260 -0.1405  0.4494 -0.0664
 2046TIP3   OH227628   0.569   5.101   0.281 -0.5438  0.0017  0.2448
 2046TIP3    H127629   0.567   5.170   0.348  0.0652 -1.2813  1.6438
 2046TIP3    H227630   0.586   5.021   0.330 -3.3222 -1.5221 -1.0509
 2047TIP3   OH227631   0.658   1.302   4.536  0.8825 -0.4421  0.5075
 2047TIP3    H127632   0.570   1.304   4.499  1.8986 -0.7193 -2.1631
 2047TIP3    H227633   0.650   1.346   4.620 -1.9862 -1.4067  0.8379
 2048TIP3   OH227634   4.235   6.513  10.701  0.0595 -0.5127  0.4636
 2048TIP3    H127635   4.198   6.594  10.736  0.2184  0.1442 -0.8259
 2048TIP3    H227636   4.185   6.496  10.622  0.8447 -0.9902  0.0558
 2049TIP3   OH227637   1.538   1.222   3.296 -0.3875  0.0755 -0.3389
 2049TIP3    H127638   1.552   1.255   3.385  0.4308 -1.0395 -0.0223
 2049TIP3    H227639   1.608   1.262   3.245 -0.3490  0.0666 -0.2937
 2050TIP3   OH227640   5.098   4.232  12.747  0.0040 -0.3883  0.2945
 2050TIP3    H127641   5.131   4.321  12.754  0.5644 -0.6453  1.0538
 2050TIP3    H227642   5.161   4.178  12.795 -2.1630 -0.7110  3.0898
 2051TIP3   OH227643   1.904   0.797   0.757  0.2299 -0.4818 -0.4118
 2051TIP3    H127644   1.902   0.886   0.793  0.0756 -1.1108  1.2471
 2051TIP3    H227645   1.852   0.802   0.677 -0.6349  0.6997  0.1911
 2052TIP3   OH227646   1.486   2.382  11.371 -0.1294 -0.6585 -0.4433
 2052TIP3    H127647   1.549   2.344  11.310  0.5892 -0.7701  0.3575
 2052TIP3    H227648   1.539   2.434  11.431 -0.8835 -0.1268 -0.2182
 2053TIP3   OH227649   3.023   2.865   4.956 -0.1513  0.0898 -0.4060
 2053TIP3    H127650   2.936   2.825   4.956 -0.0383 -0.2022 -1.8858
 2053TIP3    H227651   3.007   2.959   4.953 -0.4046  0.0473 -0.3874
 2054TIP3   OH227652   6.519   2.031  14.002  0.6284  0.0335 -0.2281
 2054TIP3    H127653   6.568   1.949  14.002 -0.2675 -0.5080 -0.2708
 2054TIP3    H227654   6.490   2.041  13.911 -0.7792 -0.5335  0.1347
 2055TIP3   OH227655   6.422   4.597   5.331  0.1376  0.1658 -0.1260
 2055TIP3    H127656   6.473   4.652   5.390 -0.0117  0.9251 -0.6923
 2055TIP3    H227657   6.417   4.647   5.249  1.3298 -1.3621 -1.1930
 2056TIP3   OH227658   1.097   2.667   2.988  0.6629 -0.6917  0.6978
 2056TIP3    H127659   1.037   2.734   2.954  0.5511 -1.4710 -0.6790
 2056TIP3    H227660   1.039   2.594   3.012  0.8420 -0.5339  1.6499
 2057TIP3   OH227661   5.777   1.881   3.973  0.0344 -0.3295 -0.0813
 2057TIP3    H127662   5.839   1.840   3.912  0.4405  0.1156  0.0192
 2057TIP3    H227663   5.729   1.944   3.920 -1.4040 -1.7295 -0.4922
 2058TIP3   OH227664   6.508   5.620  16.054 -0.1207 -0.0805  0.0674
 2058TIP3    H127665   6.582   5.568  16.086 -0.5414 -0.4337  0.4710
 2058TIP3    H227666   6.432   5.584  16.099 -0.3907  1.0624  0.5710
 2059TIP3   OH227667   6.112   1.531   1.291  0.2680  0.3298  0.1539
 2059TIP3    H127668   6.188   1.550   1.346 -0.3213  0.7732  0.8333
 2059TIP3    H227669   6.119   1.438   1.271  2.5866  0.8884 -2.2539
 2060TIP3   OH227670   4.358   4.351  15.456  0.3163  0.0212 -1.1477
 2060TIP3    H127671   4.441   4.332  15.412  0.7837  0.2807 -0.3937
 2060TIP3    H227672   4.314   4.267  15.461  0.5268 -0.1185 -1.5547
 2061TIP3   OH227673   6.044   0.736   5.297 -0.4892  0.0215 -0.0470
 2061TIP3    H127674   6.091   0.764   5.219  1.3581 -0.7788  0.7254
 2061TIP3    H227675   6.024   0.644   5.281  0.4436 -0.3212  0.6319
 2062TIP3   OH227676   1.762   2.588   5.581  0.3850  0.1527 -0.0133
 2062TIP3    H127677   1.740   2.606   5.490 -0.1686 -1.1508 -0.1651
 2062TIP3    H227678   1.852   2.620   5.591  0.6002 -0.0566 -1.1345
 2063TIP3   OH227679   4.590   3.264   0.908 -0.2723 -0.0955  0.3223
 2063TIP3    H127680   4.588   3.233   0.817  1.7098  0.2083  0.1265
 2063TIP3    H227681   4.572   3.358   0.901  0.3072  0.0096  0.1818
 2064TIP3   OH227682   1.833   3.031  16.797  0.5560 -0.3472  0.2778
 2064TIP3    H127683   1.849   2.966  16.728 -0.7322 -1.1880  0.7152
 2064TIP3    H227684   1.845   2.982  16.879 -0.2814 -0.0128  0.6142
 2065TIP3   OH227685   4.798   5.188   2.594 -0.4462 -0.4955 -0.2759
 2065TIP3    H127686   4.839   5.273   2.612 -0.6059 -0.6475  0.9088
 2065TIP3    H227687   4.810   5.139   2.675  2.2483 -2.7269 -1.8458
 2066TIP3   OH227688   3.552   0.482   2.950 -0.9423 -0.1161  0.2682
 2066TIP3    H127689   3.612   0.554   2.966  0.1443 -0.6626 -1.0936
 2066TIP3    H227690   3.547   0.475   2.855 -0.0525 -2.5670  0.3158
 2067TIP3   OH227691   4.024   2.473  12.323  0.0136  0.6793 -0.4774
 2067TIP3    H127692   3.995   2.449  12.410  2.7198  0.2890  0.4265
 2067TIP3    H227693   4.001   2.566  12.314 -0.0065  0.8042  0.7814
 2068TIP3   OH227694   6.525   6.167   3.621 -0.2854  0.9927 -0.0409
 2068TIP3    H127695   6.487   6.160   3.708 -1.7467  1.0703 -0.6514
 2068TIP3    H227696   6.492   6.091   3.573  0.5131  0.9410 -0.5367
 2069TIP3   OH227697   5.564   0.292   0.659 -0.3879  0.2465  0.2868
 2069TIP3    H127698   5.532   0.266   0.573 -0.2152 -0.2694  0.3735
 2069TIP3    H227699   5.540   0.384   0.667 -0.3847  0.3052 -0.3230
 2070TIP3   OH227700   5.182   3.348   3.931  0.2187 -0.1724  0.0305
 2070TIP3    H127701   5.196   3.263   3.891 -1.3293  0.3753 -1.8182
 2070TIP3    H227702   5.100   3.338   3.980  1.3079 -0.3951  1.9188
 2071TIP3   OH227703   2.444   0.343   4.375 -0.6657  0.2548  0.1513
 2071TIP3    H127704   2.368   0.285   4.369 -1.2854  1.1188 -0.9308
 2071TIP3    H227705   2.512   0.299   4.323 -0.3739 -0.5695  1.2064
 2072TIP3   OH227706   4.277   0.657   5.658  0.1947 -0.2228 -0.5526
 2072TIP3    H127707   4.216   0.720   5.619  0.0061  0.0422  0.1578
 2072TIP3    H227708   4.262   0.665   5.753  0.5137 -0.9884 -0.4339
 2073TIP3   OH227709   3.878   6.729  13.052  0.5816  0.1231  0.0936
 2073TIP3    H127710   3.877   6.640  13.086 -0.7543 -0.1128 -0.4913
 2073TIP3    H227711   3.882   6.718  12.957 -2.8526  0.5222 -0.2186
 2074TIP3   OH227712   3.242   2.429  13.982  0.2084 -0.1871  0.8081
 2074TIP3    H127713   3.197   2.495  14.034 -2.7407 -1.2056 -0.2270
 2074TIP3    H227714   3.214   2.345  14.018 -0.4396 -0.8941 -1.1834
 2075TIP3   OH227715   5.726   0.903  15.854 -0.4302 -0.2618  1.0194
 2075TIP3    H127716   5.688   0.918  15.941 -3.9205  0.5513 -0.4819
 2075TIP3    H227717   5.684   0.823  15.823  0.3626 -0.2443 -0.1698
 2076TIP3   OH227718   5.531   1.281  15.987 -0.4901 -0.1621  0.0156
 2076TIP3    H127719   5.574   1.253  16.067 -0.0424  0.1313 -0.1171
 2076TIP3    H227720   5.438   1.266  16.002 -0.3599 -0.5826  0.3969
 2077TIP3   OH227721   1.408   0.586   3.292  0.6824  0.0412 -0.1074
 2077TIP3    H127722   1.322   0.543   3.298  0.7114 -0.0230 -0.1430
 2077TIP3    H227723   1.470   0.513   3.291  0.7575  0.0975  0.2595
 2078TIP3   OH227724   4.905   3.777  10.549  0.3076 -0.1596 -0.4778
 2078TIP3    H127725   4.925   3.746  10.461 -0.5161  0.8445 -1.0360
 2078TIP3    H227726   4.960   3.724  10.606  5.5321  2.9545 -1.9109
 2079TIP3   OH227727   5.144   6.338  16.518  0.4549 -0.7919  0.1226
 2079TIP3    H127728   5.200   6.415  16.510  1.7451 -1.8192 -1.0764
 2079TIP3    H227729   5.187   6.284  16.583 -1.1485  0.0123  1.9633
 2080TIP3   OH227730   3.924   6.146  13.828 -0.4112 -0.1801 -0.6603
 2080TIP3    H127731   3.855   6.085  13.855  0.8634 -1.9035 -1.0866
 2080TIP3    H227732   3.904   6.227  13.874 -2.3919 -0.7924 -0.3368
 2081TIP3   OH227733   5.226   3.135  11.413 -0.4778 -0.4688  0.0155
 2081TIP3    H127734   5.236   3.230  11.424 -1.0473 -0.3966 -0.0695
 2081TIP3    H227735   5.220   3.123  11.318  1.2560 -0.7696 -0.0864
 2082TIP3   OH227736   2.767   1.842  12.522 -0.1472  0.1828  0.4567
 2082TIP3    H127737   2.824   1.890  12.462 -0.4939 -1.9534 -1.7598
 2082TIP3    H227738   2.793   1.750  12.511 -2.2522 -0.5801  1.3769
 2083TIP3   OH227739   1.392   1.307   6.597  0.0013 -0.1797 -0.0974
 2083TIP3    H127740   1.400   1.212   6.590 -0.1459 -0.0662 -3.4661
 2083TIP3    H227741   1.479   1.337   6.625  0.1176 -1.2444  0.7493
 2084TIP3   OH227742   2.058   1.379   3.094 -0.1238  0.0405 -0.4733
 2084TIP3    H127743   2.041   1.403   3.002  0.6733  0.9934 -0.3944
 2084TIP3    H227744   2.105   1.296   3.089  1.8160  1.1092 -1.0744
 2085TIP3   OH227745   3.995   0.797  15.853  0.4217  0.2467  0.3738
 2085TIP3    H127746   4.019   0.713  15.812 -1.8199  1.1902 -3.3678
 2085TIP3    H227747   4.071   0.820  15.906  2.5179 -2.5744 -1.0936
 2086TIP3   OH227748   3.711   0.219   1.538  0.3254  0.1514 -0.2161
 2086TIP3    H127749   3.638   0.168   1.502  1.9849 -1.6602 -1.2384
 2086TIP3    H227750   3.706   0.204   1.633  0.4729 -1.5867 -0.4454
 2087TIP3   OH227751   6.624   0.135  16.131  0.5488  0.7932 -0.3338
 2087TIP3    H127752   6.679   0.166  16.059  0.3546  1.5657 -0.1608
 2087TIP3    H227753   6.592   0.049  16.102  1.2340  0.6773 -0.7564
 2088TIP3   OH227754   5.068   6.303   0.955  0.0352 -0.0937 -0.1835
 2088TIP3    H127755   5.047   6.396   0.957  0.0354 -0.0648 -0.9999
 2088TIP3    H227756   5.160   6.298   0.978  0.3685  0.2418 -1.3551
 2089TIP3   OH227757   4.694   1.086   2.185 -0.2937  0.2365  0.0847
 2089TIP3    H127758   4.606   1.087   2.148 -1.4187  0.1554  2.5352
 2089TIP3    H227759   4.734   1.168   2.155 -1.4001  0.5338 -0.6359
 2090TIP3   OH227760   0.864   4.993  13.777  0.2291 -0.2174  0.0083
 2090TIP3    H127761   0.928   4.939  13.732  1.6790  1.0650  0.4690
 2090TIP3    H227762   0.912   5.072  13.804 -1.7506  1.2496 -0.5012
 2091TIP3   OH227763   4.354   0.431  13.947 -0.1292  0.1587  0.3942
 2091TIP3    H127764   4.288   0.361  13.946 -0.1058  0.1128 -1.4221
 2091TIP3    H227765   4.437   0.384  13.952 -0.1397  0.0749 -0.1472
 2092TIP3   OH227766   6.710   2.980   4.173 -0.6113 -0.3177  0.3301
 2092TIP3    H127767   6.755   3.024   4.245 -0.1228 -1.5861  0.8293
 2092TIP3    H227768   6.617   2.987   4.195 -0.4504 -1.0701  1.3342
 2093TIP3   OH227769   3.387   2.331  13.761 -0.3080 -0.7354  0.0826
 2093TIP3    H127770   3.361   2.375  13.842 -0.5174 -1.0384  0.1812
 2093TIP3    H227771   3.322   2.358  13.697  0.6991  0.7063 -0.3823
 2094TIP3   OH227772   3.781   4.902  10.419  0.2350  0.3438 -0.1853
 2094TIP3    H127773   3.758   4.893  10.327 -0.6760 -0.4579  0.1102
 2094TIP3    H227774   3.869   4.865  10.426 -0.3257 -1.0667 -0.4463
 2095TIP3   OH227775   6.305   5.283   1.415 -0.3312  0.0314 -0.1421
 2095TIP3    H127776   6.238   5.348   1.395 -1.3434 -1.1271 -0.6598
 2095TIP3    H227777   6.256   5.203   1.435  0.8924 -0.8913 -0.6789
 2096TIP3   OH227778   5.304   6.590  16.499  0.2393 -0.0885  0.0999
 2096TIP3    H127779   5.396   6.578  16.476  0.3338 -0.5679  0.6843
 2096TIP3    H227780   5.306   6.616  16.591 -0.2463 -0.9621  0.3641
 2097TIP3   OH227781   2.864   1.498   0.705 -0.1996  0.2306 -0.1534
 2097TIP3    H127782   2.869   1.419   0.651  2.9049  1.3126 -1.7160
 2097TIP3    H227783   2.798   1.478   0.771 -2.1747 -2.2656 -2.6300
 2098TIP3   OH227784   3.509   3.961   0.992 -0.2058  0.1727 -0.7539
 2098TIP3    H127785   3.587   3.998   0.950 -0.9872  0.4675 -1.9885
 2098TIP3    H227786   3.496   4.016   1.070 -0.5989  1.7086 -1.8633
 2099TIP3   OH227787   3.568   6.007  13.017  0.1843 -0.0139 -0.2322
 2099TIP3    H127788   3.485   5.974  12.982 -0.8102  2.4802 -0.4341
 2099TIP3    H227789   3.625   5.930  13.021 -1.7006 -1.5536 -1.3410
 2100TIP3   OH227790   2.086   4.860   0.730  0.1311 -0.6665  0.7001
 2100TIP3    H127791   2.047   4.812   0.657 -0.4027 -0.0718  0.5831
 2100TIP3    H227792   2.176   4.828   0.734  0.3164 -0.3464 -0.5289
 2101TIP3   OH227793   3.242   4.406  11.065  0.0890  0.4037 -0.2444
 2101TIP3    H127794   3.171   4.408  11.129  0.1653  2.8628 -0.1298
 2101TIP3    H227795   3.218   4.337  11.004 -0.3675 -1.5182  1.9626
 2102TIP3   OH227796   1.481   3.022   0.154  0.3129  0.1666  0.0102
 2102TIP3    H127797   1.437   2.951   0.107 -1.5990  1.9038 -1.0040
 2102TIP3    H227798   1.468   3.002   0.246 -1.1639 -0.2855 -0.2630
 2103TIP3   OH227799   0.669   4.080  13.551  0.3715 -0.5537  0.0873
 2103TIP3    H127800   0.582   4.119  13.552  0.6808  0.1498  0.0060
 2103TIP3    H227801   0.713   4.120  13.476  0.8955 -0.5949  0.3637
 2104TIP3   OH227802   1.322   5.792  12.324 -0.4034 -0.8062  0.5415
 2104TIP3    H127803   1.394   5.795  12.387  2.1694 -1.9449 -2.0910
 2104TIP3    H227804   1.318   5.701  12.297 -1.6208 -0.4090 -0.7333
 2105TIP3   OH227805   2.409   6.238   3.222  0.0745 -0.0447  0.1453
 2105TIP3    H127806   2.386   6.271   3.135 -0.9209 -0.1273  0.3601
 2105TIP3    H227807   2.338   6.178   3.244  1.2087 -1.3743  0.2944
 2106TIP3   OH227808   0.221   6.515  14.006 -0.2932 -0.1512  0.4951
 2106TIP3    H127809   0.208   6.427  13.970 -2.1364  0.3935 -0.3305
 2106TIP3    H227810   0.167   6.571  13.950  0.3678  1.4158  1.3782
 2107TIP3   OH227811   4.181   5.111   5.983  0.2128 -0.3838 -0.0337
 2107TIP3    H127812   4.162   5.182   6.043 -0.4785 -0.2935 -0.3558
 2107TIP3    H227813   4.199   5.154   5.899  0.2016 -0.5648 -0.1300
 2108TIP3   OH227814   0.582   5.524  16.189  0.2927  0.3409  0.3326
 2108TIP3    H127815   0.575   5.610  16.229  0.1901  0.3390  0.3184
 2108TIP3    H227816   0.493   5.488  16.192 -0.0912  1.0515 -1.4803
 2109TIP3   OH227817   5.138   4.593   2.979  0.5080 -0.2712  0.0152
 2109TIP3    H127818   5.147   4.540   2.899 -0.4411  0.1988 -0.4218
 2109TIP3    H227819   5.147   4.530   3.050 -0.5861 -1.0439 -0.4968
 2110TIP3   OH227820   6.387   2.002  16.454  0.3332 -0.0255 -0.3591
 2110TIP3    H127821   6.325   1.931  16.473 -0.1114  0.7320  1.1343
 2110TIP3    H227822   6.332   2.074  16.422  0.5121  0.3969  0.2711
 2111TIP3   OH227823   1.003   5.022  13.160  0.2005  0.2339 -0.2150
 2111TIP3    H127824   0.929   5.038  13.100  0.2427 -1.3669 -0.7205
 2111TIP3    H227825   1.034   5.110  13.182 -2.5299  1.0317  0.8882
 2112TIP3   OH227826   2.120   6.369   2.162 -0.2559  0.2991  0.0227
 2112TIP3    H127827   2.210   6.351   2.134 -0.6666 -0.0503 -1.1357
 2112TIP3    H227828   2.124   6.367   2.258  1.4818  2.9368  0.0984
 2113TIP3   OH227829   5.049   2.667  14.604  0.0800  0.0368  0.3518
 2113TIP3    H127830   4.976   2.712  14.646 -0.0210  1.2498 -1.0386
 2113TIP3    H227831   5.072   2.596  14.665 -2.4746 -0.6305  0.6776
 2114TIP3   OH227832   3.129   2.256  13.278  0.3038  0.7218 -0.0485
 2114TIP3    H127833   3.094   2.230  13.192 -0.3505  1.1153  0.0874
 2114TIP3    H227834   3.217   2.289  13.259  0.1284  0.8988 -0.5840
 2115TIP3   OH227835   3.862   1.904   0.326 -0.2503 -0.4111 -0.1101
 2115TIP3    H127836   3.912   1.948   0.258  0.9796  1.3474  1.8000
 2115TIP3    H227837   3.928   1.868   0.385 -1.2394 -0.7246  0.8464
 2116TIP3   OH227838   2.871   0.341  13.688 -0.2678 -0.0999  0.3459
 2116TIP3    H127839   2.878   0.344  13.593 -1.5084  1.3009  0.2729
 2116TIP3    H227840   2.945   0.394  13.719 -0.0046 -0.3587  0.1692
 2117TIP3   OH227841   6.122   4.032  11.603  0.1443  0.1897  0.5024
 2117TIP3    H127842   6.052   4.083  11.643 -0.3827  0.4672 -0.7475
 2117TIP3    H227843   6.128   4.065  11.513  1.2481 -0.4752  0.3128
 2118TIP3   OH227844   3.352   3.955   1.590 -0.4762  0.8279 -0.2463
 2118TIP3    H127845   3.334   4.049   1.587 -1.9135  0.6651  1.4876
 2118TIP3    H227846   3.335   3.931   1.681  3.4024 -0.4715  0.3161
 2119TIP3   OH227847   1.497   2.974   3.575 -0.0374 -0.1608 -0.0047
 2119TIP3    H127848   1.452   3.046   3.619  1.8120  0.3807  1.1466
 2119TIP3    H227849   1.469   2.896   3.622 -1.6777 -0.1711 -0.9409
 2120TIP3   OH227850   5.094   2.354   5.659  0.3823 -0.2424  0.0664
 2120TIP3    H127851   5.143   2.424   5.616  1.2012  0.3750  1.8725
 2120TIP3    H227852   5.159   2.309   5.713 -0.5056 -1.2149  0.3610
 2121TIP3   OH227853   5.052   0.811  12.541  0.3222 -1.1567  0.0399
 2121TIP3    H127854   5.108   0.842  12.613 -0.7428 -0.2189  0.4925
 2121TIP3    H227855   4.979   0.768  12.584 -0.3220 -0.6014 -0.4642
 2122TIP3   OH227856   5.683   4.908   1.690  0.3639 -0.0889  0.3109
 2122TIP3    H127857   5.744   4.938   1.622  1.7407 -1.5787  0.8189
 2122TIP3    H227858   5.677   4.981   1.752  0.0355  0.8241 -0.7713
 2123TIP3   OH227859   4.641   1.061   2.456  0.1756 -0.1818 -0.0036
 2123TIP3    H127860   4.654   1.095   2.367  0.5076 -0.2312  0.0217
 2123TIP3    H227861   4.604   0.974   2.444  0.1056 -0.1403 -0.0908
 2124TIP3   OH227862   3.811   3.816  14.367 -0.2266 -0.2146 -0.6143
 2124TIP3    H127863   3.771   3.773  14.291 -1.1334  0.9267 -0.8171
 2124TIP3    H227864   3.736   3.843  14.421  0.3082  0.8616 -0.3846
 2125TIP3   OH227865   0.713   1.884   5.192 -0.1128  0.3704 -0.4031
 2125TIP3    H127866   0.669   1.968   5.179  0.2218  0.6290  0.0999
 2125TIP3    H227867   0.648   1.829   5.236  0.6153  1.3248  1.9986
 2126TIP3   OH227868   1.765   1.231  15.366 -0.6175  0.0139  0.0250
 2126TIP3    H127869   1.704   1.262  15.433 -0.7428 -1.5343  0.6696
 2126TIP3    H227870   1.825   1.173  15.412  0.7682  0.7421 -0.7862
 2127TIP3   OH227871   4.789   0.938  16.370  0.6063  0.1438 -0.5037
 2127TIP3    H127872   4.870   0.887  16.373 -0.5527 -1.7282  0.6500
 2127TIP3    H227873   4.775   0.967  16.460 -0.2179  0.0947 -0.6060
 2128TIP3   OH227874   1.548   4.630   3.661  0.8178 -0.2201 -0.6642
 2128TIP3    H127875   1.626   4.576   3.650  0.0676 -1.1738 -1.4624
 2128TIP3    H227876   1.565   4.708   3.608  1.3213 -0.3075 -0.6355
 2129TIP3   OH227877   2.362   6.674  14.499  0.4729  0.1679 -0.2992
 2129TIP3    H127878   2.404   6.669  14.413  1.2140 -0.0824  0.0658
 2129TIP3    H227879   2.291   6.738  14.488  0.6774  0.2761 -1.0421
 2130TIP3   OH227880   0.399   3.410   1.421 -0.4408 -0.0303  0.0768
 2130TIP3    H127881   0.403   3.458   1.338 -0.0557 -0.6110 -0.2526
 2130TIP3    H227882   0.474   3.441   1.471  0.7801 -1.4448 -0.7996
 2131TIP3   OH227883   0.741   0.491   5.206  0.2589 -0.1171 -0.2588
 2131TIP3    H127884   0.736   0.398   5.227 -1.4597 -0.5910 -2.4142
 2131TIP3    H227885   0.675   0.504   5.138  0.2186  2.7666  0.2007
 2132TIP3   OH227886   6.111   5.567  13.308 -0.4164 -0.2189 -0.6180
 2132TIP3    H127887   6.174   5.609  13.367 -0.9322 -0.6596  0.2678
 2132TIP3    H227888   6.160   5.498  13.264 -0.3343 -0.7401  0.2745
 2133TIP3   OH227889   5.464   5.705   4.417  0.3407  0.5032 -0.8653
 2133TIP3    H127890   5.540   5.685   4.363 -0.1935 -1.2442 -1.0485
 2133TIP3    H227891   5.398   5.735   4.355 -0.3408 -1.6992 -1.3068
 2134TIP3   OH227892   5.867   1.692  11.621 -0.2846  0.2532  0.9142
 2134TIP3    H127893   5.843   1.625  11.684  1.7155 -1.6804 -0.2245
 2134TIP3    H227894   5.954   1.722  11.650 -0.4888  1.2373  0.5443
 2135TIP3   OH227895   1.120   6.744   2.539  0.0860  0.2285  0.0931
 2135TIP3    H127896   1.087   6.830   2.512 -0.6932 -0.2969 -0.6968
 2135TIP3    H227897   1.213   6.757   2.553  0.0914  1.0662 -0.6135
 2136TIP3   OH227898   6.039   4.392  13.603  0.4325  0.4394 -0.1610
 2136TIP3    H127899   5.993   4.344  13.534 -0.5154  0.7234  0.2666
 2136TIP3    H227900   6.048   4.328  13.674  0.1556  0.5679 -0.0113
 2137TIP3   OH227901   3.486   5.484   0.195  0.0303 -0.1823  0.3682
 2137TIP3    H127902   3.464   5.391   0.183  0.0914 -0.4642  2.2365
 2137TIP3    H227903   3.564   5.484   0.251  1.1113  0.9845 -1.0568
 2138TIP3   OH227904   2.863   5.690  11.275  0.1090  0.0269 -0.1773
 2138TIP3    H127905   2.894   5.658  11.359  0.6477 -1.3104 -0.8563
 2138TIP3    H227906   2.821   5.615  11.234  0.9481  0.2866 -1.6132
 2139TIP3   OH227907   3.978   6.819  12.526  0.1062  0.1540 -0.3949
 2139TIP3    H127908   4.000   6.905  12.490 -0.7911 -0.0787 -1.5696
 2139TIP3    H227909   3.898   6.793  12.480  0.4783 -1.4086 -0.2309
 2140TIP3   OH227910   3.798   0.474  14.669 -0.2770 -0.0341 -0.0936
 2140TIP3    H127911   3.826   0.403  14.727  0.1911 -1.7015 -2.2069
 2140TIP3    H227912   3.705   0.456  14.653 -0.7022  1.0741  0.9404
 2141TIP3   OH227913   6.506   4.004   4.430  0.1833  0.2106 -0.2641
 2141TIP3    H127914   6.457   4.073   4.475  1.4696  0.8170  0.2749
 2141TIP3    H227915   6.500   4.027   4.338 -2.9841 -1.3727 -0.5610
 2142TIP3   OH227916   1.931   1.273   4.833  0.0459  0.1670 -0.2176
 2142TIP3    H127917   1.909   1.335   4.903  0.1076  0.5182 -0.5081
 2142TIP3    H227918   1.867   1.203   4.842 -0.7267  0.8203 -0.5941
 2143TIP3   OH227919   6.005   1.079   5.975 -0.0765 -0.1518  0.4922
 2143TIP3    H127920   5.976   1.091   5.884  0.4188 -2.5622 -0.0823
 2143TIP3    H227921   6.041   1.163   6.000  0.4428  0.4020 -1.8373
 2144TIP3   OH227922   2.798   2.906   1.560 -0.6975  0.1428  0.4567
 2144TIP3    H127923   2.871   2.889   1.619 -0.4141 -1.3423 -0.2687
 2144TIP3    H227924   2.761   2.820   1.542  0.6077  0.1733 -3.2281
 2145TIP3   OH227925   6.301   2.930  13.834  0.0609  0.3799 -0.5983
 2145TIP3    H127926   6.360   2.855  13.836  0.0886  0.3080 -2.2491
 2145TIP3    H227927   6.222   2.897  13.791 -0.1418  1.1390 -0.8308
 2146TIP3   OH227928   1.312   4.648   0.868 -0.6893  0.3906  0.5104
 2146TIP3    H127929   1.275   4.728   0.907 -1.8761 -0.5870  1.4552
 2146TIP3    H227930   1.253   4.628   0.795 -0.6113  0.1724  0.5083
 2147TIP3   OH227931   2.878   4.363   4.305  0.1885 -0.1989  0.4082
 2147TIP3    H127932   2.885   4.432   4.372  0.3491  0.3735 -0.1838
 2147TIP3    H227933   2.878   4.281   4.354 -0.9354  0.2587  1.1909
 2148TIP3   OH227934   3.307   6.266  15.254  0.1390 -0.4851  0.1005
 2148TIP3    H127935   3.251   6.289  15.328  0.5656 -0.6531  0.4828
 2148TIP3    H227936   3.305   6.170  15.251  0.3576 -0.4909  0.0826
 2149TIP3   OH227937   6.254   0.965  12.302 -0.6344  0.3205  0.5039
 2149TIP3    H127938   6.221   1.049  12.270  0.0386  0.8172  1.0721
 2149TIP3    H227939   6.179   0.906  12.296 -0.6780  0.5067 -1.4607
 2150TIP3   OH227940   0.043   4.361  13.290  0.0995  0.2501 -0.4653
 2150TIP3    H127941   0.106   4.295  13.264 -1.4694 -0.9563 -1.3459
 2150TIP3    H227942   0.013   4.399  13.207 -0.0490  1.0929 -0.0343
 2151TIP3   OH227943   5.373   4.474  10.388 -0.5600 -0.5483  0.0719
 2151TIP3    H127944   5.466   4.473  10.408 -0.9234  0.5445  2.0885
 2151TIP3    H227945   5.339   4.392  10.426 -1.0326  0.9404  3.1793
 2152TIP3   OH227946   4.376   2.994   3.157 -0.3758  0.1959  0.1275
 2152TIP3    H127947   4.386   3.003   3.062  0.9401 -0.3104  0.1876
 2152TIP3    H227948   4.427   3.067   3.193 -0.8058  0.3399  0.4499
 2153TIP3   OH227949   4.295   6.638   4.292 -0.4605 -0.0338 -0.4230
 2153TIP3    H127950   4.353   6.567   4.265  1.8700  1.4517  0.4498
 2153TIP3    H227951   4.260   6.609   4.377 -1.7214 -1.2987 -1.3324
 2154TIP3   OH227952   5.581   0.033  12.861 -0.4921  0.3009  0.0584
 2154TIP3    H127953   5.598   0.066  12.950  0.8371  0.2109 -0.1455
 2154TIP3    H227954   5.500  -0.017  12.869 -0.9706  1.1965  0.9931
 2155TIP3   OH227955   5.494   0.820   2.557  0.3558  0.2602  0.1888
 2155TIP3    H127956   5.510   0.911   2.581 -1.6344  0.3266  1.5857
 2155TIP3    H227957   5.484   0.821   2.462 -1.8711  1.9572  0.3545
 2156TIP3   OH227958   6.516   2.492   0.262  0.0306 -0.2336 -0.1046
 2156TIP3    H127959   6.509   2.433   0.187 -1.8049 -0.2461  0.0312
 2156TIP3    H227960   6.574   2.562   0.233 -1.5839  0.3978 -2.0022
 2157TIP3   OH227961   3.364   3.015   2.610  0.0439  0.3976  0.1212
 2157TIP3    H127962   3.396   2.989   2.524 -0.0977  1.0682 -0.1396
 2157TIP3    H227963   3.405   2.953   2.671  0.0309 -0.1693 -0.4361
 2158TIP3   OH227964   5.496   0.826   3.057 -0.0318  0.1669 -0.4635
 2158TIP3    H127965   5.537   0.766   3.120  2.1570  1.3876 -0.6467
 2158TIP3    H227966   5.511   0.785   2.972  0.5971  0.5020 -0.5126
 2159TIP3   OH227967   4.484   2.182   2.024 -0.4638 -0.1100  0.4622
 2159TIP3    H127968   4.458   2.108   2.080  0.3954 -0.9958 -0.2793
 2159TIP3    H227969   4.532   2.142   1.952  0.9040  1.2483  0.5608
 2160TIP3   OH227970   0.803   0.042  11.396 -0.0008  0.0939  0.1296
 2160TIP3    H127971   0.725   0.091  11.372 -0.5139 -1.6489 -2.1423
 2160TIP3    H227972   0.875   0.094  11.360 -0.4291 -0.0807 -1.0453
 2161TIP3   OH227973   3.198   2.193  13.571 -0.1718  0.0555  0.5135
 2161TIP3    H127974   3.134   2.153  13.512  0.8113  0.2130 -0.7054
 2161TIP3    H227975   3.151   2.206  13.653 -1.4189 -0.6900 -0.0607
 2162TIP3   OH227976   0.069   6.446   0.118 -0.3941 -0.1514 -0.7517
 2162TIP3    H127977   0.159   6.478   0.114  0.0073 -1.2202 -0.4323
 2162TIP3    H227978   0.075   6.358   0.154 -1.4604 -0.6678 -1.7515
 2163TIP3   OH227979   3.567   0.346   1.145 -0.6233  0.3494 -0.0720
 2163TIP3    H127980   3.518   0.272   1.110 -0.7918  0.2358  0.3942
 2163TIP3    H227981   3.532   0.358   1.233 -2.1582  2.3628 -0.8795
 2164TIP3   OH227982   6.027   0.637  12.741 -0.2948  0.2692 -0.2101
 2164TIP3    H127983   6.005   0.607  12.829  0.5101 -1.7526 -0.6453
 2164TIP3    H227984   6.122   0.624  12.735 -0.5363 -1.0860 -1.8624
 2165TIP3   OH227985   0.082   6.291   3.272  0.0676 -0.1425  0.5854
 2165TIP3    H127986  -0.000   6.277   3.318 -0.9778 -0.3619 -1.2326
 2165TIP3    H227987   0.104   6.382   3.289 -0.6461 -0.0350  0.9753
 2166TIP3   OH227988   1.934   6.344  14.787  0.1471  0.0815  0.3317
 2166TIP3    H127989   1.977   6.416  14.740 -2.3825 -0.0269 -2.4342
 2166TIP3    H227990   1.887   6.387  14.859 -2.1347  1.4961 -1.8546
 2167TIP3   OH227991   6.534   5.549  16.494  0.1805  0.3492 -0.2524
 2167TIP3    H127992   6.460   5.609  16.492  0.0491  0.1908 -1.7973
 2167TIP3    H227993   6.497   5.465  16.466  0.7701  0.0681 -0.2020
 2168TIP3   OH227994   5.672   6.379  14.901  0.1699 -0.1051  0.5475
 2168TIP3    H127995   5.736   6.308  14.903  0.5253  0.2230  1.1903
 2168TIP3    H227996   5.699   6.434  14.828  1.4674  0.7812  1.6473
 2169TIP3   OH227997   1.611   1.829  14.571  0.1363 -0.0047 -0.0128
 2169TIP3    H127998   1.550   1.830  14.645 -0.1788  0.2641 -0.2755
 2169TIP3    H227999   1.676   1.762  14.595 -2.1936 -2.9712 -1.2850
 2170TIP3   OH228000   1.962   5.975   0.789 -0.6746 -0.8395 -0.0518
 2170TIP3    H128001   1.998   6.024   0.715 -1.4484 -2.2162 -1.3905
 2170TIP3    H228002   1.872   6.006   0.796 -0.9538 -1.5599 -0.4468
 2171TIP3   OH228003   1.107   1.372   3.091 -0.5106 -0.1738 -0.4806
 2171TIP3    H128004   1.169   1.393   3.160 -1.1229 -1.9893  0.6858
 2171TIP3    H228005   1.154   1.310   3.034  0.4621  2.2886 -2.5469
 2172TIP3   OH228006   1.190   0.694  13.372  0.3394 -0.4585  0.0203
 2172TIP3    H128007   1.144   0.761  13.322 -0.4815 -1.0930 -0.1105
 2172TIP3    H228008   1.124   0.625  13.385  0.3683 -0.1216  2.3864
 2173TIP3   OH228009   0.527   4.177   0.900  0.2524  0.1556  0.0818
 2173TIP3    H128010   0.610   4.214   0.930  0.2469 -0.2138  0.5512
 2173TIP3    H228011   0.550   4.127   0.821  0.5632 -0.3832  0.5088
 2174TIP3   OH228012   1.118   4.037  12.253  0.0975 -0.5001 -0.4790
 2174TIP3    H128013   1.059   3.977  12.207 -1.1492  0.2071  0.1621
 2174TIP3    H228014   1.061   4.105  12.288  1.1501 -0.3643  1.0854
 2175TIP3   OH228015   1.802   6.060  10.620 -1.0433  0.7583 -0.1763
 2175TIP3    H128016   1.852   6.127  10.573 -1.4548  1.7813  0.7896
 2175TIP3    H228017   1.711   6.078  10.598 -1.0560 -0.9871 -1.7907
 2176TIP3   OH228018   1.370   0.291   0.775  1.3059  0.2371  0.3332
 2176TIP3    H128019   1.277   0.283   0.795  0.9907  1.9606 -0.2630
 2176TIP3    H228020   1.402   0.200   0.774  0.3138 -0.2606  3.4047
 2177TIP3   OH228021   3.256   1.493   4.440  0.4243 -0.0032  0.0875
 2177TIP3    H128022   3.292   1.508   4.527 -0.0898 -0.2140  0.3396
 2177TIP3    H228023   3.178   1.547   4.436  0.9268  0.6971 -0.5737
 2178TIP3   OH228024   1.002   5.661  13.364 -0.8399 -0.1768  0.5841
 2178TIP3    H128025   1.067   5.724  13.333 -2.3745 -0.0237 -2.7248
 2178TIP3    H228026   1.053   5.583  13.385  0.7004  0.9120  1.0818
 2179TIP3   OH228027   5.151   2.676   2.599 -0.1431 -0.1392 -0.2375
 2179TIP3    H128028   5.146   2.687   2.504 -1.3292 -2.2921 -0.4833
 2179TIP3    H228029   5.060   2.661   2.626  0.5312 -3.9414  0.5276
 2180TIP3   OH228030   6.037   4.756  16.587 -0.1103  0.6330 -0.2028
 2180TIP3    H128031   6.106   4.748  16.652 -2.0244  0.8886  1.9710
 2180TIP3    H228032   6.000   4.669  16.580  0.0230  0.6270 -0.9146
 2181TIP3   OH228033   2.201   2.123  16.096 -0.3284  0.3238  0.1934
 2181TIP3    H128034   2.174   2.047  16.148 -3.0363  0.8549 -0.2679
 2181TIP3    H228035   2.180   2.099  16.006  0.2914  1.0251 -0.1442
 2182TIP3   OH228036   4.935   5.015   5.795  0.5410  0.2167  0.4462
 2182TIP3    H128037   4.917   4.990   5.704  0.3473  2.6625 -0.2593
 2182TIP3    H228038   5.022   5.056   5.791  0.3066  0.8140  1.2359
 2183TIP3   OH228039   0.054   1.134   4.623 -0.3432  0.0325 -0.1380
 2183TIP3    H128040   0.131   1.082   4.647 -1.6614 -1.8218  0.2903
 2183TIP3    H228041   0.077   1.173   4.539  1.2138 -0.1280  0.1871
 2184TIP3   OH228042   2.525   6.297   0.128  0.6276 -0.3891  0.1435
 2184TIP3    H128043   2.522   6.383   0.170  0.3366  0.4723 -1.5184
 2184TIP3    H228044   2.482   6.311   0.043  1.2634 -1.9855 -0.4828
 2185TIP3   OH228045   3.586   6.560  15.581 -0.0765 -0.3155 -0.8261
 2185TIP3    H128046   3.556   6.644  15.613  0.0326 -0.5410 -0.1205
 2185TIP3    H228047   3.546   6.551  15.494 -0.9996 -0.0445 -0.4328
 2186TIP3   OH228048   4.224   6.745   3.534 -0.5736 -0.0338 -0.3614
 2186TIP3    H128049   4.256   6.775   3.619 -0.6553  1.2392 -0.7593
 2186TIP3    H228050   4.264   6.805   3.471 -0.9001 -0.6638 -1.1810
 2187TIP3   OH228051   6.094   2.252  11.542  0.4709 -0.6174 -0.6390
 2187TIP3    H128052   6.122   2.292  11.460  1.2579  0.5113  0.1586
 2187TIP3    H228053   6.063   2.325  11.596 -0.4123 -1.3875 -0.0756
 2188TIP3   OH228054   4.817   0.083  13.678 -0.1552  0.3078  0.1161
 2188TIP3    H128055   4.780   0.082  13.591 -1.1705 -0.5551  0.5415
 2188TIP3    H228056   4.763   0.146  13.727 -0.1395  0.1379  0.3530
 2189TIP3   OH228057   4.688   1.278  16.518 -0.3817 -0.2093 -0.9727
 2189TIP3    H128058   4.634   1.299  16.442 -0.4496  0.8016 -0.6502
 2189TIP3    H228059   4.630   1.290  16.593 -0.1348 -0.6033 -0.7148
 2190TIP3   OH228060   3.880   0.942   3.675 -0.5905  0.0938 -0.0009
 2190TIP3    H128061   3.860   0.958   3.767 -1.5138  1.4431 -0.4015
 2190TIP3    H228062   3.909   1.027   3.641 -1.5426 -0.0403 -1.2440
 2191TIP3   OH228063   3.263   2.367   0.573 -0.4034 -0.1398 -0.0640
 2191TIP3    H128064   3.304   2.413   0.501  0.7680  0.8513  1.1827
 2191TIP3    H228065   3.202   2.430   0.611  0.0661 -0.1274  0.6930
 2192TIP3   OH228066   5.003   0.270  13.136 -0.0258 -0.2326  0.5443
 2192TIP3    H128067   4.993   0.305  13.047 -0.9848  1.1329  1.1498
 2192TIP3    H228068   4.969   0.180  13.130 -0.1982 -0.1181 -0.4350
 2193TIP3   OH228069   4.714   0.586  10.436  0.2423  0.2929  0.2555
 2193TIP3    H128070   4.689   0.661  10.382  0.8061  0.6837  0.5231
 2193TIP3    H228071   4.663   0.597  10.517 -0.2018 -0.0017  0.0203
 2194TIP3   OH228072   0.727   0.431   2.495 -0.4386 -0.1371 -0.4448
 2194TIP3    H128073   0.668   0.507   2.488 -1.8861 -1.3345 -3.5445
 2194TIP3    H228074   0.768   0.426   2.408  1.9119 -1.1960  0.6597
 2195TIP3   OH228075   3.957   1.333  16.331  0.2730 -0.2349  0.1239
 2195TIP3    H128076   3.889   1.267  16.342 -0.1074 -0.0603 -0.9799
 2195TIP3    H228077   3.916   1.400  16.275  1.0411  0.3401  0.2305
 2196TIP3   OH228078   0.627   1.076  13.374  0.2328  0.5263 -0.4925
 2196TIP3    H128079   0.603   1.142  13.309 -0.1616  0.3033 -0.5761
 2196TIP3    H228080   0.584   0.996  13.345  1.1229  0.0981 -0.6677
 2197TIP3   OH228081   4.897   3.747  15.140 -0.0984  0.1086  0.6224
 2197TIP3    H128082   4.804   3.748  15.116  0.4420 -1.3229 -1.9263
 2197TIP3    H228083   4.929   3.834  15.115 -0.5687  0.2746  0.5804
 2198TIP3   OH228084   6.589   6.465   5.907  0.1273  0.0088  0.6087
 2198TIP3    H128085   6.657   6.529   5.887  0.0775  0.0118  0.4493
 2198TIP3    H228086   6.530   6.511   5.967  0.0557  0.1345  0.4424
 2199TIP3   OH228087   2.980   0.000   0.740  0.1445  0.1868  0.0692
 2199TIP3    H128088   2.911   0.061   0.713 -1.0720 -0.3457  1.8317
 2199TIP3    H228089   3.050   0.056   0.773  0.0125  0.6972 -0.5027
 2200TIP3   OH228090   0.701   6.459  16.564 -0.5363  0.7196 -0.3451
 2200TIP3    H128091   0.655   6.459  16.480 -0.3077 -0.0303 -0.4813
 2200TIP3    H228092   0.785   6.418  16.545 -0.8609 -0.3734  0.4275
 2201TIP3   OH228093   4.743   3.206  14.486 -0.1802  0.1269  0.9966
 2201TIP3    H128094   4.657   3.165  14.476  0.4530 -1.1348  0.5127
 2201TIP3    H228095   4.805   3.133  14.479  1.0257  1.2302 -0.3752
 2202TIP3   OH228096   1.729   4.231   4.516 -0.3759 -0.3386 -0.0024
 2202TIP3    H128097   1.640   4.262   4.529 -0.1520 -0.2466  1.4676
 2202TIP3    H228098   1.723   4.136   4.522 -0.4790 -0.3674 -0.5841
 2203TIP3   OH228099   5.979   4.809   0.902  0.0126 -0.2818  0.6877
 2203TIP3    H128100   5.971   4.902   0.924  0.6623 -0.5170  2.0640
 2203TIP3    H228101   5.985   4.765   0.987 -0.2060 -1.5768  0.0560
 2204TIP3   OH228102   2.552   6.417   1.515  0.0754  0.1271  0.5754
 2204TIP3    H128103   2.520   6.472   1.444  0.9762 -0.5077 -0.3366
 2204TIP3    H228104   2.623   6.468   1.555 -0.1241  0.2817  0.7406
 2205TIP3   OH228105   2.899   2.607  15.280 -0.2840  0.1228 -0.1225
 2205TIP3    H128106   2.838   2.561  15.223 -0.5531  0.5116 -0.1524
 2205TIP3    H228107   2.966   2.640  15.221  0.8654 -1.6968  0.0915
 2206TIP3   OH228108   5.378   3.914  16.552 -0.4559 -0.3561 -1.0785
 2206TIP3    H128109   5.376   3.893  16.646 -1.3052 -2.4024 -1.5056
 2206TIP3    H228110   5.468   3.942  16.537 -0.2455 -0.1952  0.3102
 2207TIP3   OH228111   1.556   0.290  12.587  0.7411  0.2444 -0.0702
 2207TIP3    H128112   1.500   0.256  12.517  0.7822 -2.3164  1.0336
 2207TIP3    H228113   1.644   0.293  12.549  0.6192 -0.2934 -0.4019
 2208TIP3   OH228114   1.840   3.998   3.581  0.0571 -0.4568  0.5041
 2208TIP3    H128115   1.865   3.906   3.573  0.0119 -0.5632  1.5153
 2208TIP3    H228116   1.912   4.046   3.542  0.4967 -0.8783  0.7936
 2209TIP3   OH228117   3.038   2.521  11.702  0.0375 -0.1157  0.0357
 2209TIP3    H128118   3.131   2.530  11.722 -0.0965 -1.4120  1.3980
 2209TIP3    H228119   3.036   2.484  11.614  0.7839  0.7742 -0.3617
 2210TIP3   OH228120   5.224   5.771  12.419 -0.1506 -0.0599  0.4649
 2210TIP3    H128121   5.270   5.751  12.338 -1.3147 -2.0019  0.2380
 2210TIP3    H228122   5.145   5.717  12.417 -0.6019  0.4224  2.5378
 2211TIP3   OH228123   3.073   5.352   2.531  0.7253  0.6005  0.2347
 2211TIP3    H128124   3.030   5.267   2.520  0.9068  0.6456 -1.0407
 2211TIP3    H228125   3.103   5.375   2.443  0.0179  2.3403  0.3992
 2212TIP3   OH228126   0.355   0.924   2.698  0.2718 -0.3418  0.1189
 2212TIP3    H128127   0.379   0.883   2.781  2.0463  1.1115  0.4003
 2212TIP3    H228128   0.397   1.010   2.701 -1.2618  0.5164 -1.4692
 2213TIP3   OH228129   4.833   5.006   4.430  0.4986  0.6577 -0.4004
 2213TIP3    H128130   4.763   4.976   4.372  0.2705  0.1909  0.1090
 2213TIP3    H228131   4.854   5.094   4.398 -0.2848  0.7890 -0.5884
 2214TIP3   OH228132   6.071   3.055   3.905  0.2165  0.2162  0.7499
 2214TIP3    H128133   6.129   2.981   3.888  0.2486  0.3064  0.4563
 2214TIP3    H228134   6.129   3.131   3.911  0.5373 -0.1312  3.9639
 2215TIP3   OH228135   4.468   3.110  11.463 -0.1288  0.2288 -0.2926
 2215TIP3    H128136   4.449   3.021  11.495  0.2881  0.3558  0.3193
 2215TIP3    H228137   4.411   3.120  11.387 -1.4161  0.0537  0.6140
 2216TIP3   OH228138   6.030   1.871   1.454  0.4216 -0.1213  0.1583
 2216TIP3    H128139   6.025   1.865   1.549 -1.0906 -2.6580  0.0216
 2216TIP3    H228140   6.123   1.881   1.435  0.7768  0.1054  1.8836
 2217TIP3   OH228141   1.131   6.205  12.256 -0.1039  0.2394  0.4610
 2217TIP3    H128142   1.186   6.270  12.214 -0.0104 -0.1646 -0.0540
 2217TIP3    H228143   1.087   6.159  12.184 -0.3739 -0.0850  0.8225
 2218TIP3   OH228144   4.593   1.982  12.118 -0.1883  0.0742  0.0956
 2218TIP3    H128145   4.552   1.992  12.032 -0.1841 -2.0046 -0.1873
 2218TIP3    H228146   4.687   1.986  12.100 -0.1901  1.5470  0.2968
 2219TIP3   OH228147   1.530   5.199   1.487  0.1841  0.1224  0.0464
 2219TIP3    H128148   1.610   5.149   1.472 -0.5218 -1.2988  0.7685
 2219TIP3    H228149   1.463   5.151   1.437 -0.6449 -0.0745  1.2936
 2220TIP3   OH228150   1.594   2.639  12.860  0.5122 -0.5077 -0.4854
 2220TIP3    H128151   1.686   2.650  12.885  0.2091  1.0936  0.0713
 2220TIP3    H228152   1.597   2.626  12.765  1.3203 -0.4128 -0.4853
 2221TIP3   OH228153   3.563   6.594  12.548 -0.2808  0.2354  0.2564
 2221TIP3    H128154   3.501   6.664  12.569 -0.9591 -0.1730 -0.3283
 2221TIP3    H228155   3.519   6.514  12.576 -2.1154 -0.5916 -4.0857
 2222TIP3   OH228156   3.471   4.818  12.098  0.3181 -0.0115  0.5132
 2222TIP3    H128157   3.514   4.858  12.022  0.6374 -1.2952 -0.0206
 2222TIP3    H228158   3.526   4.843  12.173  0.0533  1.1861  0.3270
 2223TIP3   OH228159   0.919   0.065   3.303 -0.3060  0.0169 -0.2916
 2223TIP3    H128160   0.962   0.117   3.370 -0.4361 -0.7388  0.3849
 2223TIP3    H228161   0.837   0.111   3.286 -1.3497 -0.9796  1.7206
 2224TIP3   OH228162   0.860   0.998  13.790 -0.1948 -0.2252  0.0777
 2224TIP3    H128163   0.887   0.980  13.880  3.1112 -1.2946 -0.9795
 2224TIP3    H228164   0.830   1.089  13.792  1.1766  0.2449  2.0138
 2225TIP3   OH228165   6.415   3.056  13.630  0.3120  0.5928 -0.0464
 2225TIP3    H128166   6.380   3.013  13.708  0.9590  1.2379  0.6140
 2225TIP3    H228167   6.366   3.018  13.558  1.1093 -1.5542  0.4540
 2226TIP3   OH228168   0.931   2.904  14.853  0.5313 -0.0705 -0.0042
 2226TIP3    H128169   0.846   2.882  14.892  0.7751  0.3330  0.7749
 2226TIP3    H228170   0.915   2.902  14.758 -0.3869  0.1624  0.1328
 2227TIP3   OH228171   0.652   4.249   6.011  0.5088 -0.5193 -0.2210
 2227TIP3    H128172   0.557   4.257   6.012  0.5627  0.3174 -0.5897
 2227TIP3    H228173   0.675   4.225   6.100  0.0393  0.5721  0.2133
 2228TIP3   OH228174   2.301   3.857  13.310 -0.4865 -0.3806  0.5538
 2228TIP3    H128175   2.354   3.863  13.230 -1.6482  1.6589 -0.1536
 2228TIP3    H228176   2.344   3.791  13.363  2.6201  0.9944 -0.0652
 2229TIP3   OH228177   3.758   2.637  12.441 -0.0150  0.0542  0.1846
 2229TIP3    H128178   3.670   2.673  12.430 -0.5132 -1.6487 -2.2369
 2229TIP3    H228179   3.763   2.613  12.534 -2.4375 -0.5684  0.2157
 2230TIP3   OH228180   3.583   6.679  11.489 -0.5107  0.0328  0.6180
 2230TIP3    H128181   3.662   6.661  11.439  0.2043 -1.8622  2.2769
 2230TIP3    H228182   3.518   6.706  11.423  0.9809 -0.1594 -1.0035
 2231TIP3   OH228183   1.138   1.938  12.268 -0.6381  0.1839  0.0115
 2231TIP3    H128184   1.173   1.970  12.185 -0.4915  0.5747  0.2246
 2231TIP3    H228185   1.214   1.930  12.325 -0.6788 -0.4819 -0.0096
 2232TIP3   OH228186   4.060   4.212   4.058  0.3062 -0.1036  0.5183
 2232TIP3    H128187   3.966   4.207   4.046  0.0545  0.2202  2.1626
 2232TIP3    H228188   4.075   4.187   4.149  1.7467  0.4667  0.4770
 2233TIP3   OH228189   0.280   0.717   2.245 -0.2669  0.0638 -0.8720
 2233TIP3    H128190   0.202   0.667   2.270  0.3932  0.1824  1.6458
 2233TIP3    H228191   0.309   0.759   2.325  2.1335  0.4420 -1.8387
 2234TIP3   OH228192   3.059   6.732   0.492  0.0061 -0.2693  0.0368
 2234TIP3    H128193   3.022   6.781   0.566  2.5613  0.9461  0.6116
 2234TIP3    H228194   3.083   6.800   0.429 -0.1816 -1.1426 -0.9981
 2235TIP3   OH228195   1.332   0.600  15.187 -0.2440 -0.3772  1.0907
 2235TIP3    H128196   1.374   0.625  15.105 -2.4073  0.4909  0.1730
 2235TIP3    H228197   1.277   0.525  15.164  0.1082 -0.9648  2.0755
 2236TIP3   OH228198   3.820   4.541   1.938 -0.1207  0.2147 -0.0969
 2236TIP3    H128199   3.908   4.533   1.902 -0.0586  1.0091 -0.1324
 2236TIP3    H228200   3.795   4.632   1.922 -0.5801  0.2544  0.7456
 2237TIP3   OH228201   2.805   1.999   2.385 -0.7063 -0.1980  0.0882
 2237TIP3    H128202   2.759   2.076   2.419 -1.6908 -1.3613  1.5031
 2237TIP3    H228203   2.830   2.024   2.296 -0.8081  1.8281  0.5656
 2238TIP3   OH228204   2.523   3.863   1.647  0.4591  0.3296 -0.0189
 2238TIP3    H128205   2.571   3.803   1.590 -2.0294 -1.9541  0.0847
 2238TIP3    H228206   2.483   3.927   1.588 -0.7645 -1.0440 -0.7552
 2239TIP3   OH228207   6.124   5.953  14.214  0.3048 -0.2730 -0.0022
 2239TIP3    H128208   6.135   5.863  14.243 -1.0130  0.0939  1.7779
 2239TIP3    H228209   6.184   5.962  14.140 -0.1840 -2.8452 -0.7870
 2240TIP3   OH228210   1.661   2.026   4.463  0.6793  0.1704 -0.2619
 2240TIP3    H128211   1.654   2.063   4.375 -0.6937  0.8379  0.1020
 2240TIP3    H228212   1.701   2.096   4.515  0.5932  0.1416 -0.1561
 2241TIP3   OH228213   0.513   2.841  15.155 -0.2985  0.4996 -0.6941
 2241TIP3    H128214   0.495   2.916  15.211 -2.3407 -0.1748 -0.3403
 2241TIP3    H228215   0.490   2.765  15.209  2.5208 -0.5183 -0.7143
 2242TIP3   OH228216   6.069   6.206  12.920  0.6565 -0.0646  0.3316
 2242TIP3    H128217   6.033   6.123  12.889  0.3657  0.2209 -0.1113
 2242TIP3    H228218   5.993   6.263  12.929  0.7436 -0.1344  1.5860
 2243TIP3   OH228219   2.335   0.404  12.346  0.2248 -0.3091  0.2904
 2243TIP3    H128220   2.256   0.403  12.292  1.6883 -1.4797 -1.9468
 2243TIP3    H228221   2.405   0.432  12.287  1.9547 -1.9648  1.4498
 2244TIP3   OH228222   3.034   4.726   1.963  0.0339 -0.4612  0.1409
 2244TIP3    H128223   3.054   4.634   1.979  1.0730 -0.0618  1.1890
 2244TIP3    H228224   2.939   4.732   1.972 -0.1109 -1.5326 -0.5343
 2245TIP3   OH228225   2.790   0.848   1.911  0.2020 -0.4872 -0.0205
 2245TIP3    H128226   2.718   0.872   1.970 -0.8362 -1.9205 -0.6362
 2245TIP3    H228227   2.821   0.931   1.876 -1.3616  0.1705  0.0471
 2246TIP3   OH228228   1.498   4.838  15.233  0.8227  0.2248 -0.7516
 2246TIP3    H128229   1.460   4.790  15.159  0.6838  0.4812 -0.8477
 2246TIP3    H228230   1.445   4.811  15.308  0.6738  0.3102 -0.8251
 2247TIP3   OH228231   4.310   1.204   2.387  0.1242 -0.2698  0.6934
 2247TIP3    H128232   4.242   1.188   2.452  1.5866 -2.2401  1.8285
 2247TIP3    H228233   4.383   1.148   2.413  2.0478  1.3982 -0.7319
 2248TIP3   OH228234   6.435   6.784  14.212 -0.1950  0.5176 -0.4354
 2248TIP3    H128235   6.344   6.781  14.243 -0.5672 -1.1685 -1.4958
 2248TIP3    H228236   6.449   6.697  14.174  2.4349  0.1046  1.2249
 2249TIP3   OH228237   5.227   1.290   4.697  0.4809 -0.4149  0.2829
 2249TIP3    H128238   5.166   1.341   4.643  1.0970 -0.7804 -0.7993
 2249TIP3    H228239   5.281   1.242   4.634  0.1740 -2.1264  1.2527
 2250TIP3   OH228240   2.973   3.016   0.526 -0.1414 -0.4906 -0.5076
 2250TIP3    H128241   2.918   3.094   0.515 -2.5500 -2.1982 -1.7034
 2250TIP3    H228242   3.062   3.050   0.534 -0.9444  2.3228 -2.0828
 2251TIP3   OH228243   1.489   5.277   1.840 -0.7440  0.5770 -0.5560
 2251TIP3    H128244   1.505   5.250   1.749  0.6757 -0.0919 -0.1292
 2251TIP3    H228245   1.412   5.227   1.866 -0.5953  0.0455 -1.1055
 2252TIP3   OH228246   2.421   1.361   3.478  0.3919  0.1292  0.4335
 2252TIP3    H128247   2.432   1.287   3.537 -0.1979  0.0999  0.5122
 2252TIP3    H228248   2.423   1.438   3.535  2.1282  0.2649  0.2323
 2253TIP3   OH228249   1.071   5.273   4.942 -0.1617  0.5755 -0.2487
 2253TIP3    H128250   1.109   5.189   4.970 -0.0609  1.2417  1.7818
 2253TIP3    H228251   1.143   5.335   4.950 -0.8291  1.2682  0.5059
 2254TIP3   OH228252   1.079   2.082  16.735  0.3145 -0.1958 -0.1355
 2254TIP3    H128253   1.121   1.996  16.739  2.1456  0.6192 -0.6567
 2254TIP3    H228254   1.097   2.121  16.820 -1.3724 -0.6529  0.4764
 2255TIP3   OH228255   5.109   0.189  16.805  0.0700  0.4817  0.2562
 2255TIP3    H128256   5.131   0.125  16.873 -0.7200  0.1707  0.2250
 2255TIP3    H228257   5.134   0.273  16.844  0.9008  0.1814  0.3847
 2256TIP3   OH228258   3.359   3.295   3.976  0.3359 -0.3503  0.1469
 2256TIP3    H128259   3.329   3.378   4.014 -0.7050  0.3166 -2.0078
 2256TIP3    H228260   3.323   3.228   4.035  1.2288  0.6729  1.9508
 2257TIP3   OH228261   3.290   6.732  15.325  0.1226  0.4768 -0.7800
 2257TIP3    H128262   3.327   6.646  15.346  0.6164  1.0489  0.8473
 2257TIP3    H228263   3.255   6.764  15.408 -1.4914  1.1963 -1.6899
 2258TIP3   OH228264   2.327   0.244   1.548  0.1635  0.0509 -0.0991
 2258TIP3    H128265   2.264   0.314   1.535  0.0362 -0.0974 -0.2825
 2258TIP3    H228266   2.404   0.271   1.497  0.2208  0.1952  0.0640
 2259TIP3   OH228267   2.500   2.644  14.668 -0.1651 -0.3255 -0.0034
 2259TIP3    H128268   2.425   2.635  14.609 -2.4049  5.1052  1.3959
 2259TIP3    H228269   2.462   2.641  14.756  1.5848  0.5188  0.8361
 2260TIP3   OH228270   1.213   5.723  13.636  0.3859 -0.0087 -0.4247
 2260TIP3    H128271   1.250   5.670  13.566  0.4820  0.6294 -0.8560
 2260TIP3    H228272   1.288   5.767  13.676  0.2781  0.0030 -0.2314
 2261TIP3   OH228273   0.259   0.259   0.412  0.1881 -0.1872  0.8125
 2261TIP3    H128274   0.272   0.201   0.487 -1.6442 -0.7297  0.7573
 2261TIP3    H228275   0.250   0.346   0.450 -4.0955 -0.8134  1.7117
 2262TIP3   OH228276   4.935   1.637   3.693 -0.1963  0.0440 -0.6086
 2262TIP3    H128277   4.945   1.663   3.785  0.7494  1.5124 -1.0993
 2262TIP3    H228278   4.843   1.653   3.673  0.0756  1.9633 -0.5366
 2263TIP3   OH228279   0.226   5.837   4.742  0.2688 -0.3828  0.0256
 2263TIP3    H128280   0.312   5.879   4.737  0.8964 -1.6859 -0.5162
 2263TIP3    H228281   0.224   5.777   4.667 -1.8684  0.9587 -1.0926
 2264TIP3   OH228282   3.086   3.231  14.749 -0.4797 -0.1466 -0.2565
 2264TIP3    H128283   3.101   3.304  14.690  0.9787  0.8716  1.2830
 2264TIP3    H228284   3.021   3.263  14.812  0.8644  0.2194  0.9930
 2265TIP3   OH228285   1.690   2.750  12.058  0.2764  0.6509 -0.2838
 2265TIP3    H128286   1.606   2.779  12.092 -1.0359  0.0529 -2.7950
 2265TIP3    H228287   1.673   2.727  11.966  3.2340  0.7910 -0.9841
 2266TIP3   OH228288   1.170   1.718  13.009  0.0202 -0.1076  0.5809
 2266TIP3    H128289   1.163   1.795  12.952 -0.1180 -1.3037 -1.1154
 2266TIP3    H228290   1.147   1.750  13.096 -0.2661  1.7105 -0.1147
 2267TIP3   OH228291   6.473   2.482  15.557  0.2005 -0.2349  0.3856
 2267TIP3    H128292   6.465   2.395  15.520  2.1065 -0.5154  0.5343
 2267TIP3    H228293   6.422   2.538  15.498 -1.9944 -1.5472  0.9028
 2268TIP3   OH228294   5.618   2.276  12.820  0.5124  0.5058  0.4520
 2268TIP3    H128295   5.584   2.365  12.813  0.4523  0.4418 -0.1250
 2268TIP3    H228296   5.656   2.271  12.908  0.4767  1.0860  0.5011
 2269TIP3   OH228297   6.299   4.227   2.213  0.4515 -0.1054  0.0756
 2269TIP3    H128298   6.382   4.265   2.243  1.2313 -1.8474  0.2545
 2269TIP3    H228299   6.325   4.157   2.154 -0.9473 -0.0683 -0.6282
 2270TIP3   OH228300   0.821   4.113  11.400  0.1591 -0.0611 -1.0165
 2270TIP3    H128301   0.911   4.113  11.430 -0.2835 -0.4738  0.4064
 2270TIP3    H228302   0.817   4.182  11.334  1.4876  0.0138 -1.0303
 2271TIP3   OH228303   1.784   5.779   3.152  0.0839 -0.1687 -0.2779
 2271TIP3    H128304   1.859   5.743   3.105  0.7946 -1.1988  1.5536
 2271TIP3    H228305   1.724   5.704   3.161  0.2358 -0.1568  0.9611
 2272TIP3   OH228306   5.902   0.649  17.060 -0.1826  0.2347 -0.0206
 2272TIP3    H128307   5.870   0.596  17.133 -0.5121 -0.1277 -0.4292
 2272TIP3    H228308   5.901   0.739  17.094 -4.8211  0.8175 -0.9876
 2273TIP3   OH228309   4.828   0.733  16.100 -0.2801 -0.1536 -0.3191
 2273TIP3    H128310   4.887   0.658  16.109 -0.5598 -0.1698  2.4623
 2273TIP3    H228311   4.869   0.802  16.152 -2.4657 -0.0712  1.4652
 2274TIP3   OH228312   4.924   3.906   2.206  0.7476  0.2685 -0.1290
 2274TIP3    H128313   4.856   3.957   2.251 -0.9717 -2.4355  0.5575
 2274TIP3    H228314   5.004   3.925   2.255  0.1054  1.8775  0.3887
 2275TIP3   OH228315   3.696   6.719   3.250 -0.0368 -0.2894 -0.1221
 2275TIP3    H128316   3.639   6.643   3.254 -1.3004  0.5951 -0.6802
 2275TIP3    H228317   3.675   6.761   3.166  1.9009 -0.2762 -0.6627
 2276TIP3   OH228318   5.595   4.834  16.022  0.0211 -0.2707  0.8969
 2276TIP3    H128319   5.603   4.739  16.036  2.1208 -0.0680  1.3535
 2276TIP3    H228320   5.660   4.873  16.081 -0.8669  1.4821  0.7894
 2277TIP3   OH228321   3.564   2.713  16.792  0.0346  0.3809 -0.5749
 2277TIP3    H128322   3.551   2.766  16.871 -3.3051 -0.8459 -0.1277
 2277TIP3    H228323   3.494   2.648  16.796  1.7831 -1.8225 -2.9158
 2278TIP3   OH228324   3.988   3.910  15.104  0.1882 -0.3281 -0.2665
 2278TIP3    H128325   4.056   3.856  15.064 -0.2297 -0.8686 -0.2734
 2278TIP3    H228326   3.917   3.848  15.122 -0.6143  0.3484 -0.9893
 2279TIP3   OH228327   3.199   4.533  13.030 -0.7699 -0.1643 -0.1893
 2279TIP3    H128328   3.218   4.558  12.940  0.8579  1.7537  0.6036
 2279TIP3    H228329   3.282   4.544  13.076 -1.4253 -1.6648  1.4453
 2280TIP3   OH228330   5.233   4.065   2.042  0.1314 -0.3013 -0.5677
 2280TIP3    H128331   5.182   4.024   1.972  0.4012  0.5988 -1.3235
 2280TIP3    H228332   5.298   3.999   2.066 -0.2183 -0.7685 -0.8960
 2281TIP3   OH228333   4.266   0.323   3.975  0.2486  0.4485 -0.6205
 2281TIP3    H128334   4.176   0.332   4.008  0.8764  1.4169  0.9651
 2281TIP3    H228335   4.282   0.404   3.926  0.0565 -0.0220 -1.4843
 2282TIP3   OH228336   5.724   3.312  10.828 -0.5912 -0.1139  0.1074
 2282TIP3    H128337   5.750   3.277  10.743  1.1615  1.4187 -0.0443
 2282TIP3    H228338   5.763   3.400  10.831  0.6787 -0.6626  3.0812
 2283TIP3   OH228339   2.481   0.133  11.570  0.1478 -0.3927 -0.7835
 2283TIP3    H128340   2.459   0.162  11.481  0.6611  1.7719 -0.2728
 2283TIP3    H228341   2.553   0.191  11.596 -0.3959 -0.5753  1.2746
 2284TIP3   OH228342   0.313   6.214  15.861 -0.0554  0.1458 -0.0940
 2284TIP3    H128343   0.254   6.183  15.792 -0.7761 -0.4404  0.7695
 2284TIP3    H228344   0.334   6.304  15.836 -0.2253 -0.0890 -1.1264
 2285TIP3   OH228345   2.584   2.223   5.836  0.4427  0.5216  0.2176
 2285TIP3    H128346   2.642   2.299   5.842  0.5591  0.4414  0.1151
 2285TIP3    H228347   2.610   2.167   5.909  0.8657  0.2317 -0.1480
 2286TIP3   OH228348   2.154   6.345  16.679 -0.2155 -0.7424 -0.2143
 2286TIP3    H128349   2.075   6.330  16.627 -0.3627 -0.6484 -0.0197
 2286TIP3    H228350   2.197   6.260  16.684 -1.0463 -1.1148  0.8908
 2287TIP3   OH228351   2.610   5.935   1.954 -0.1142  0.1923 -0.2735
 2287TIP3    H128352   2.543   5.876   1.920  0.0241  0.1944 -0.5495
 2287TIP3    H228353   2.588   6.020   1.916  0.0219  0.2019 -0.3293
 2288TIP3   OH228354   5.155   5.830   3.199  0.0563  0.1841 -0.5671
 2288TIP3    H128355   5.220   5.899   3.189 -1.6767  2.0894  0.5432
 2288TIP3    H228356   5.081   5.873   3.243 -1.3955 -2.2123 -0.4986
 2289TIP3   OH228357   2.390   3.488   4.057 -0.0280  0.0950 -0.0997
 2289TIP3    H128358   2.386   3.393   4.059  1.1153 -0.0024  2.8346
 2289TIP3    H228359   2.303   3.517   4.085  0.1928 -0.1704  0.8956
 2290TIP3   OH228360   2.799   5.355   4.475  0.7335  0.1674 -0.0125
 2290TIP3    H128361   2.781   5.290   4.407 -0.1613  0.6520 -0.2526
 2290TIP3    H228362   2.721   5.354   4.531  0.8091  0.8674  0.1081
 2291TIP3   OH228363   0.889   0.044  12.161  0.0889 -0.0216 -0.1007
 2291TIP3    H128364   0.971   0.077  12.198  0.8046 -1.0169 -0.7529
 2291TIP3    H228365   0.878   0.092  12.079 -0.0852  0.2528  0.0829
 2292TIP3   OH228366   0.994   1.145   1.941  0.4731 -0.2777  0.6111
 2292TIP3    H128367   1.029   1.094   2.014  1.1604 -0.7119 -0.0207
 2292TIP3    H228368   0.982   1.232   1.977 -0.4951 -0.8062  1.6417
 2293TIP3   OH228369   5.374   2.996  11.772 -0.6363 -1.4078  0.1180
 2293TIP3    H128370   5.374   3.049  11.851  0.6288 -1.7700  0.3715
 2293TIP3    H228371   5.466   2.987  11.748 -1.0225 -0.3362 -2.0568
 2294TIP3   OH228372   2.997   5.637   4.089 -0.1058 -0.5704 -0.0195
 2294TIP3    H128373   2.945   5.564   4.056  0.9998 -2.3972  2.0824
 2294TIP3    H228374   2.951   5.715   4.056 -3.7447 -2.0638  1.0703
 2295TIP3   OH228375   4.096   5.943   3.933 -0.5973  0.7005  0.6341
 2295TIP3    H128376   4.124   6.024   3.889 -2.4164  0.8652 -0.2893
 2295TIP3    H228377   4.105   5.963   4.027 -0.0126  1.5940  0.3997
 2296TIP3   OH228378   6.032   4.317  16.776 -0.2744  0.4242  0.2934
 2296TIP3    H128379   6.042   4.223  16.760  0.9166  0.8861 -1.9610
 2296TIP3    H228380   6.004   4.322  16.868 -3.2378 -2.2716 -0.2611
 2297TIP3   OH228381   5.488   2.221  12.072 -0.4222  0.0673 -0.1830
 2297TIP3    H128382   5.564   2.165  12.060 -0.5680 -0.3422  0.7420
 2297TIP3    H228383   5.466   2.213  12.165 -0.5475  1.5200 -0.0599
 2298TIP3   OH228384   4.600   2.640   4.002  0.0476 -0.0682 -0.4550
 2298TIP3    H128385   4.515   2.646   3.958 -0.2337 -2.1252 -0.3104
 2298TIP3    H228386   4.579   2.634   4.095  0.4403  0.6479 -0.3100
 2299TIP3   OH228387   5.587   4.777   2.014 -0.7722  0.0302 -0.0471
 2299TIP3    H128388   5.553   4.867   2.007  1.3534  0.8880  0.0369
 2299TIP3    H228389   5.634   4.776   2.097 -0.7389 -1.1792 -0.0697
 2300TIP3   OH228390   3.685   5.816   4.786  0.0630  0.2435  0.3090
 2300TIP3    H128391   3.719   5.817   4.696 -0.3616 -0.4615  0.1353
 2300TIP3    H228392   3.679   5.909   4.810  0.2536  0.4354 -0.3656
 2301TIP3   OH228393   5.963   3.142  11.407 -0.0918 -0.3528  0.2029
 2301TIP3    H128394   5.930   3.067  11.457  0.8174 -0.3069  0.9203
 2301TIP3    H228395   5.934   3.126  11.317 -1.6391 -0.5176  0.7006
 2302TIP3   OH228396   4.188   6.582  13.796  0.2476 -0.0514  0.3792
 2302TIP3    H128397   4.129   6.508  13.780  0.5177 -0.2695  0.3905
 2302TIP3    H228398   4.274   6.541  13.811  0.7273  0.3302 -1.1322
 2303TIP3   OH228399   6.370   6.649  13.053 -0.0819  0.1301  0.0006
 2303TIP3    H128400   6.348   6.616  13.140  1.5552 -0.8923  0.0666
 2303TIP3    H228401   6.466   6.650  13.051 -0.0900  1.5571 -1.2818
 2304TIP3   OH228402   2.925   1.084  13.738  0.0591 -0.0188 -0.0993
 2304TIP3    H128403   2.834   1.098  13.710  0.4759 -0.2766 -1.7028
 2304TIP3    H228404   2.970   1.165  13.714  0.5581 -0.4786 -0.7561
 2305TIP3   OH228405   6.492   4.569  11.929  0.6062  0.5648 -0.3632
 2305TIP3    H128406   6.581   4.598  11.908  0.7854  0.7513  0.5837
 2305TIP3    H228407   6.463   4.521  11.851  1.8097 -0.1336 -0.4172
 2306TIP3   OH228408   4.401   6.704   1.617  0.1296 -0.6037 -0.2961
 2306TIP3    H128409   4.347   6.750   1.552  0.8740  0.3401 -0.2726
 2306TIP3    H228410   4.443   6.634   1.567 -1.2140 -1.4708 -0.2793
 2307TIP3   OH228411   5.583   4.525   1.282 -0.1952 -0.2455  0.0223
 2307TIP3    H128412   5.554   4.438   1.253 -0.4044 -0.5591  1.1015
 2307TIP3    H228413   5.502   4.570   1.305 -0.0818  0.2251 -0.4828
 2308TIP3   OH228414   1.214   6.391  16.974  0.2801  0.5812  0.1324
 2308TIP3    H128415   1.222   6.481  16.941 -0.1492  0.6575  0.2223
 2308TIP3    H228416   1.136   6.394  17.030 -1.6630 -0.5697 -2.3268
 2309TIP3   OH228417   1.298   3.674   2.910 -0.3035 -0.8175  0.2932
 2309TIP3    H128418   1.370   3.737   2.918 -0.6113 -0.3411 -0.6042
 2309TIP3    H228419   1.328   3.611   2.844 -0.5577 -0.8264  0.1845
 2310TIP3   OH228420   5.015   3.957   0.362  0.2532 -0.0805 -0.1253
 2310TIP3    H128421   5.008   4.049   0.387 -0.6251  0.1288 -1.0830
 2310TIP3    H228422   5.108   3.944   0.344  0.4471  0.5111  0.4213
 2311TIP3   OH228423   3.226   3.848  15.190 -0.2001  0.1207 -0.4873
 2311TIP3    H128424   3.191   3.872  15.276 -0.8464  1.9116 -1.1887
 2311TIP3    H228425   3.308   3.896  15.184  1.1492 -1.9816  0.0811
 2312TIP3   OH228426   4.945   4.118  13.455 -0.3889 -0.1679 -0.0824
 2312TIP3    H128427   4.878   4.050  13.457  1.2811 -1.8740  0.8524
 2312TIP3    H228428   4.990   4.111  13.539 -0.1382  2.1222  0.0457
 2313TIP3   OH228429   1.672   0.146   1.005  0.6628 -0.0997  0.1274
 2313TIP3    H128430   1.704   0.123   0.917 -0.9885  0.0816 -0.5506
 2313TIP3    H228431   1.742   0.117   1.064  1.8865 -0.0697 -1.2513
 2314TIP3   OH228432   3.708   3.117  11.275 -0.0627  0.3858  0.3026
 2314TIP3    H128433   3.683   3.154  11.359  0.7720 -0.6894  1.0528
 2314TIP3    H228434   3.728   3.193  11.220 -0.7986  1.1054  0.9934
 2315TIP3   OH228435   1.722   2.794  15.802  0.1980  0.3453  0.5000
 2315TIP3    H128436   1.790   2.834  15.748  1.2692  0.1872  1.6774
 2315TIP3    H228437   1.752   2.807  15.892 -1.0659 -0.2135  1.0320
 2316TIP3   OH228438   2.125   5.519  12.035 -0.5906  0.1513 -0.1766
 2316TIP3    H128439   2.202   5.573  12.016  0.1602 -0.6459  0.5232
 2316TIP3    H228440   2.144   5.435  11.994 -0.9372 -0.1532  0.2836
 2317TIP3   OH228441   0.134   4.673  16.759  0.5255 -0.0418 -0.1508
 2317TIP3    H128442   0.183   4.614  16.702  0.4248 -1.3012  1.0158
 2317TIP3    H228443   0.185   4.676  16.840  0.2830  1.1357 -0.0238
 2318TIP3   OH228444   6.491   3.864  14.769  0.3331 -0.5651 -0.3148
 2318TIP3    H128445   6.576   3.831  14.799  1.0475 -0.3864 -2.0173
 2318TIP3    H228446   6.427   3.817  14.822  1.4388 -2.2207 -0.3698
 2319TIP3   OH228447   3.227   0.125  13.429  0.3458 -0.0750 -0.4539
 2319TIP3    H128448   3.139   0.130  13.393  0.3838  1.2224 -0.3933
 2319TIP3    H228449   3.217   0.150  13.521  0.8701  0.7483 -0.6147
 2320TIP3   OH228450   5.732   3.461   6.139  0.2985  0.6947  0.3567
 2320TIP3    H128451   5.763   3.405   6.211 -2.6348  1.0081  1.9937
 2320TIP3    H228452   5.747   3.408   6.060  2.8505  0.0080  1.2117
 2321TIP3   OH228453   5.482   4.292   5.513  0.0565  0.0119  0.3673
 2321TIP3    H128454   5.500   4.198   5.511  0.0196  0.0137 -0.9677
 2321TIP3    H228455   5.503   4.319   5.602 -0.7521 -1.4200  1.0336
 2322TIP3   OH228456   0.537   0.163   1.561  0.6160  0.3123 -0.3945
 2322TIP3    H128457   0.605   0.205   1.615  1.3416 -2.3397  0.9313
 2322TIP3    H228458   0.483   0.235   1.530  3.8614  2.5602 -1.3067
 2323TIP3   OH228459   4.126   3.207   6.461  0.0412 -0.1337  0.1398
 2323TIP3    H128460   4.156   3.288   6.502 -1.7062  0.0887  1.0997
 2323TIP3    H228461   4.190   3.190   6.392  3.0441 -0.4069  2.7386
 2324TIP3   OH228462   1.205   4.699  15.186  0.5002 -0.0231  0.0411
 2324TIP3    H128463   1.246   4.726  15.104  0.6610 -0.5368 -0.0476
 2324TIP3    H228464   1.150   4.624  15.162 -2.3265  1.9865 -0.3055
 2325TIP3   OH228465   3.516   3.022   4.890 -0.0503  0.2542  0.2521
 2325TIP3    H128466   3.531   3.112   4.920 -0.8947  0.1633  1.0111
 2325TIP3    H228467   3.443   2.991   4.945 -0.1851 -0.6746 -0.4333
 2326TIP3   OH228468   5.794   6.051   0.477  0.1502  0.3336  0.5548
 2326TIP3    H128469   5.883   6.051   0.442  0.1305  0.4835  0.5065
 2326TIP3    H228470   5.772   6.144   0.488 -0.4350  0.3404 -0.5199
 2327TIP3   OH228471   2.257   4.175   0.439 -0.3037  0.0240 -0.1262
 2327TIP3    H128472   2.218   4.259   0.462  1.0886  0.6160  0.2163
 2327TIP3    H228473   2.184   4.114   0.438 -1.1858  1.0186  0.7177
 2328TIP3   OH228474   1.645   2.937  13.882 -0.5666  0.1238 -0.5575
 2328TIP3    H128475   1.719   2.991  13.907 -0.6447  0.3941 -0.8945
 2328TIP3    H228476   1.683   2.853  13.859 -0.6017 -0.5137  1.5591
 2329TIP3   OH228477   1.784   5.503   1.931 -0.1836  0.2309 -0.3095
 2329TIP3    H128478   1.843   5.488   2.005  0.5015  1.8696 -0.4841
 2329TIP3    H228479   1.792   5.425   1.878  2.6449  0.7845 -0.8417
 2330TIP3   OH228480   6.678   3.257  13.709 -0.6432  0.0028 -0.6258
 2330TIP3    H128481   6.748   3.318  13.735  1.3982 -1.7277 -1.7198
 2330TIP3    H228482   6.629   3.242  13.790 -0.9192  2.6506 -0.2164
 2331TIP3   OH228483   1.950   3.752  12.707 -0.5836  0.2193  0.7457
 2331TIP3    H128484   1.887   3.685  12.733  0.0658 -0.7989 -0.2128
 2331TIP3    H228485   2.019   3.748  12.772  0.3732 -1.3820 -0.3045
 2332TIP3   OH228486   4.418   4.720   4.112 -0.5438  0.0186 -0.3475
 2332TIP3    H128487   4.424   4.810   4.080  0.1284  0.5180  1.0857
 2332TIP3    H228488   4.329   4.712   4.146 -0.7063  0.0312 -0.7652
 2333TIP3   OH228489   1.809   6.501  13.920 -0.4669  0.5340 -0.4976
 2333TIP3    H128490   1.718   6.492  13.947 -0.0367 -0.1612  0.8592
 2333TIP3    H228491   1.847   6.415  13.936  0.4951  0.9039 -0.7239
 2334TIP3   OH228492   1.532   1.222   1.382  0.5232  0.3542  0.0967
 2334TIP3    H128493   1.611   1.269   1.355  0.4125 -0.1641 -1.2145
 2334TIP3    H228494   1.479   1.216   1.302 -0.3948 -0.1819  0.7229
 2335TIP3   OH228495   6.105   4.724   4.986 -0.5219  0.0657 -0.1337
 2335TIP3    H128496   6.122   4.640   5.027  1.4786  0.0404 -0.9424
 2335TIP3    H228497   6.159   4.786   5.035  1.6395  0.0913 -2.3563
 2336TIP3   OH228498   2.206   6.430   0.927  0.7838 -0.3017  0.3944
 2336TIP3    H128499   2.265   6.433   0.852  1.5416 -1.2724  0.9228
 2336TIP3    H228500   2.126   6.389   0.893  1.2177 -0.9775  0.1727
 2337TIP3   OH228501   2.592   1.496   3.328 -0.1284  0.4918 -0.2233
 2337TIP3    H128502   2.522   1.439   3.360 -0.1279  0.0425 -0.9845
 2337TIP3    H228503   2.663   1.436   3.306  0.0202  0.8248 -0.6603
 2338TIP3   OH228504   1.349   1.354  10.578 -0.3647 -0.2190 -0.0224
 2338TIP3    H128505   1.261   1.356  10.540  0.2613  2.1587 -1.6100
 2338TIP3    H228506   1.397   1.291  10.524 -0.5084  0.2333 -0.6890
 2339TIP3   OH228507   0.444   0.530   2.075 -0.4498 -0.5137 -0.2619
 2339TIP3    H128508   0.431   0.607   2.130  0.3263 -0.4289 -0.1846
 2339TIP3    H228509   0.366   0.477   2.089 -0.7930  0.0534  0.0183
 2340TIP3   OH228510   1.475   3.811  10.861 -0.3625 -0.2729  0.1850
 2340TIP3    H128511   1.524   3.793  10.781  0.5974  0.1912  0.6490
 2340TIP3    H228512   1.485   3.905  10.875 -1.3691 -0.1799  0.3154
 2341TIP3   OH228513   5.047   6.538   3.931  0.1671  0.0784  0.0637
 2341TIP3    H128514   5.118   6.588   3.891  0.3047 -0.6749 -0.6478
 2341TIP3    H228515   4.971   6.554   3.875 -0.0017  0.1727  0.3181
 2342TIP3   OH228516   0.216   3.175  13.882 -0.5130 -0.2262  0.2553
 2342TIP3    H128517   0.153   3.105  13.899 -0.5602 -0.3326 -0.3390
 2342TIP3    H228518   0.162   3.254  13.878 -0.5766 -0.2779  0.0455
 2343TIP3   OH228519   6.492   1.653  15.124  0.4586 -0.5661 -0.2092
 2343TIP3    H128520   6.403   1.630  15.152  0.7791 -0.4181  0.9870
 2343TIP3    H228521   6.480   1.696  15.039 -0.2910 -3.8249 -1.9301
 2344TIP3   OH228522   0.963   6.398   0.013 -0.2367 -0.7527 -0.0377
 2344TIP3    H128523   0.999   6.331   0.071  0.0838 -1.7543 -1.3282
 2344TIP3    H228524   0.871   6.372   0.002 -0.3300 -0.4914  0.1226
 2345TIP3   OH228525   5.560   5.711  14.594 -0.1631 -0.2344 -0.0476
 2345TIP3    H128526   5.639   5.664  14.618  1.2241  2.7084  1.6756
 2345TIP3    H228527   5.587   5.772  14.526 -0.9204  0.7817  0.5233
 2346TIP3   OH228528   2.895   0.266   1.646  0.2496 -0.0542 -0.0711
 2346TIP3    H128529   2.867   0.174   1.642 -0.9630  0.3549 -1.8266
 2346TIP3    H228530   2.938   0.281   1.562  0.0786  1.1176  0.0448
 2347TIP3   OH228531   0.633   1.155  11.502  0.2242 -0.4094 -0.4714
 2347TIP3    H128532   0.637   1.244  11.537 -1.5531  0.0153 -1.2518
 2347TIP3    H228533   0.724   1.134  11.480  0.6809  1.2036 -0.2751
 2348TIP3   OH228534   1.332   5.381  16.730 -0.2452 -0.0875  0.4263
 2348TIP3    H128535   1.253   5.368  16.782 -1.2428  0.7283 -0.8233
 2348TIP3    H228536   1.369   5.294  16.721 -1.2329 -0.5541  0.7005
 2349TIP3   OH228537   3.495   5.928   1.026 -0.1448 -0.0845 -0.0810
 2349TIP3    H128538   3.508   5.998   0.962  1.1085  0.6022  0.8666
 2349TIP3    H228539   3.538   5.852   0.988 -0.2093  0.0658 -0.4559
 2350TIP3   OH228540   6.694   6.325   0.027 -0.0348 -0.1295 -0.5494
 2350TIP3    H128541   6.771   6.360   0.071 -0.2582 -0.8253  0.4364
 2350TIP3    H228542   6.620   6.366   0.071 -0.2890 -1.5616  0.4222
 2351TIP3   OH228543   1.393   5.158   3.362  0.3498 -0.9680 -0.4438
 2351TIP3    H128544   1.401   5.164   3.457  1.6936 -2.7603 -0.3774
 2351TIP3    H228545   1.364   5.068   3.347 -1.2720 -0.2729 -1.6941
 2352TIP3   OH228546   5.379   2.558   0.738  0.4492 -0.2435 -0.3849
 2352TIP3    H128547   5.436   2.568   0.814 -0.8582  0.1047  0.5908
 2352TIP3    H228548   5.332   2.642   0.732 -0.1939 -0.6314 -0.9497
 2353TIP3   OH228549   6.724   6.297  14.579  0.3059  0.6751  0.2375
 2353TIP3    H128550   6.693   6.264  14.664 -1.0292  0.8482 -0.1676
 2353TIP3    H228551   6.812   6.259  14.570 -0.7883 -2.1294  0.2034
 2354TIP3   OH228552   4.410   2.678  16.086 -0.1621  0.5384  0.6239
 2354TIP3    H128553   4.493   2.678  16.038  0.2873  0.3637  1.3879
 2354TIP3    H228554   4.345   2.704  16.021  0.0594 -1.9405 -0.7253
 2355TIP3   OH228555   4.166   5.011  16.119  1.1179  0.0243  0.1499
 2355TIP3    H128556   4.191   4.935  16.067  0.5369  0.1394 -0.3070
 2355TIP3    H228557   4.092   5.050  16.072  0.1121 -0.2746  1.4197
 2356TIP3   OH228558   0.751   6.340  14.253  1.0077 -0.0246  0.1100
 2356TIP3    H128559   0.835   6.315  14.290  1.8206  2.1266 -0.1804
 2356TIP3    H228560   0.759   6.321  14.159  0.9948 -0.2296  0.1496
 2357TIP3   OH228561   2.721   5.930   0.381  0.6390  0.1869  0.5236
 2357TIP3    H128562   2.700   5.986   0.307  1.3507  0.9608  0.8961
 2357TIP3    H228563   2.661   5.957   0.450 -0.9735 -1.4528 -0.1418
 2358TIP3   OH228564   4.206   5.093  12.921 -0.0295 -0.0068  0.0342
 2358TIP3    H128565   4.244   5.005  12.924 -2.3868 -1.2625 -2.5063
 2358TIP3    H228566   4.258   5.139  12.855  0.5429  0.2047  0.6159
 2359TIP3   OH228567   5.802   3.303   4.394  0.0283 -0.2719  0.8861
 2359TIP3    H128568   5.748   3.376   4.422 -0.5688 -0.5796  0.5470
 2359TIP3    H228569   5.740   3.231   4.379  0.2759 -0.0851 -1.3789
 2360TIP3   OH228570   1.367   3.117   2.643 -0.1296  0.1205  0.2467
 2360TIP3    H128571   1.316   3.039   2.620 -1.8776  0.9785  1.0229
 2360TIP3    H228572   1.304   3.189   2.639  1.5086  1.5680 -0.7573
 2361TIP3   OH228573   0.691   5.456   3.971  0.0820  0.0521  0.3025
 2361TIP3    H128574   0.640   5.458   3.890  0.6631 -0.1785 -0.0778
 2361TIP3    H228575   0.710   5.364   3.986  0.0317  0.0985  0.6696
 2362TIP3   OH228576   2.558   1.989  16.769  0.6923  0.3659 -0.2711
 2362TIP3    H128577   2.485   1.927  16.766  0.6608  0.3814  0.1506
 2362TIP3    H228578   2.603   1.969  16.851  0.4380  1.1747  0.0744
 2363TIP3   OH228579   4.541   5.685  13.281 -0.0131  0.0640  0.2664
 2363TIP3    H128580   4.555   5.747  13.210 -1.0985 -1.3863 -1.2808
 2363TIP3    H228581   4.455   5.707  13.316 -0.1900 -0.2512  0.0346
 2364TIP3   OH228582   6.208   5.166   4.580  0.4012  0.5519  0.3944
 2364TIP3    H128583   6.268   5.228   4.538 -2.3182  1.0163 -3.4140
 2364TIP3    H228584   6.134   5.220   4.610 -0.5730 -0.4678 -0.0815
 2365TIP3   OH228585   2.496   6.493  13.381  0.5315  0.0962 -0.0918
 2365TIP3    H128586   2.420   6.489  13.438  0.3189  0.6180 -0.3287
 2365TIP3    H228587   2.566   6.529  13.436  0.5513 -0.1784  0.0650
 2366TIP3   OH228588   0.522   4.404  12.473 -0.9686 -0.1914  0.5294
 2366TIP3    H128589   0.490   4.405  12.382 -0.8085 -2.4633  0.4035
 2366TIP3    H228590   0.614   4.431  12.466 -1.8011  3.1705  0.5256
 2367TIP3   OH228591   3.311   6.559   1.591 -0.0128 -0.0956  0.3567
 2367TIP3    H128592   3.349   6.630   1.642 -2.6884  0.8669  1.2024
 2367TIP3    H228593   3.341   6.479   1.635  1.4021  0.5627  0.6248
 2368TIP3   OH228594   3.881   3.240   4.181 -0.0779  0.0312  0.4228
 2368TIP3    H128595   3.843   3.327   4.190  1.0188  0.4273  1.5570
 2368TIP3    H228596   3.805   3.181   4.180 -0.7890  0.9086  0.9858
 2369TIP3   OH228597   5.980   0.448   1.713 -0.1935  0.0656  0.3513
 2369TIP3    H128598   5.936   0.365   1.692  3.1213 -1.6301 -0.5916
 2369TIP3    H228599   5.977   0.497   1.631 -1.8878  0.8011  0.8221
 2370TIP3   OH228600   4.216   2.110  12.230  0.2779 -0.1781 -0.1436
 2370TIP3    H128601   4.292   2.140  12.180  0.0366 -2.5338 -2.1200
 2370TIP3    H228602   4.146   2.104  12.165 -0.5137 -1.7873  0.8086
 2371TIP3   OH228603   3.845   3.084   4.534 -0.1782 -0.4431  0.0526
 2371TIP3    H128604   3.791   3.022   4.582 -1.8519 -1.0669 -2.4263
 2371TIP3    H228605   3.906   3.030   4.483  0.8154  0.1390  0.5839
 2372TIP3   OH228606   5.177   5.194  14.362  0.0098 -0.2324 -0.2591
 2372TIP3    H128607   5.200   5.181  14.270  1.4784  0.0208  0.0547
 2372TIP3    H228608   5.138   5.111  14.389  0.1313 -0.5178 -0.9403
 2373TIP3   OH228609   6.110   1.955  13.215  0.1159 -0.0734  0.5834
 2373TIP3    H128610   6.081   1.995  13.133  0.1340  0.7186  0.9632
 2373TIP3    H228611   6.205   1.966  13.215 -0.0243  1.3593  1.4454
 2374TIP3   OH228612   1.866   3.227   1.144  0.3107 -0.3878  0.3632
 2374TIP3    H128613   1.953   3.190   1.134 -0.2094 -1.6967  0.4361
 2374TIP3    H228614   1.815   3.186   1.074  0.3365  2.3730 -1.4225
 2375TIP3   OH228615   2.363   1.802  16.810  0.0960  0.0023 -0.2750
 2375TIP3    H128616   2.326   1.740  16.746  1.5589 -1.9055  0.6613
 2375TIP3    H228617   2.314   1.786  16.890 -2.0861  2.7452 -0.8801
 2376TIP3   OH228618   3.322   4.608   2.408 -0.3993 -0.5179  0.3587
 2376TIP3    H128619   3.317   4.627   2.502  1.4037  0.9097  0.2282
 2376TIP3    H228620   3.321   4.513   2.403 -1.0818 -0.6223  1.7669
 2377TIP3   OH228621   6.694   0.530   3.128  0.1178  0.0507  0.7451
 2377TIP3    H128622   6.760   0.530   3.197  0.5442  0.5763  0.3362
 2377TIP3    H228623   6.611   0.517   3.175  0.2697  1.5435  1.4790
 2378TIP3   OH228624   0.906   5.256  12.508  0.0287  0.7498  0.2074
 2378TIP3    H128625   0.860   5.331  12.547  1.1930  1.7847 -0.3504
 2378TIP3    H228626   0.911   5.192  12.579 -0.4323  1.4584  0.8959
 2379TIP3   OH228627   6.027   6.253   3.038 -0.0929  0.2262 -0.4914
 2379TIP3    H128628   5.948   6.258   3.091  1.2686 -1.0202  1.8388
 2379TIP3    H228629   6.062   6.342   3.039 -0.0905  0.2325  0.7886
 2380TIP3   OH228630   5.705   3.532   2.452  0.1467 -0.2412  0.0764
 2380TIP3    H128631   5.756   3.567   2.525 -1.1860  0.9465  0.4737
 2380TIP3    H228632   5.627   3.495   2.493  0.5565 -1.8729 -0.5408
 2381TIP3   OH228633   0.495   5.174  13.629  0.1655  0.0842 -0.4313
 2381TIP3    H128634   0.557   5.101  13.625  0.4731  0.3522 -0.5140
 2381TIP3    H228635   0.494   5.200  13.721  0.8369  0.6483 -0.5745
 2382TIP3   OH228636   1.646   0.644  13.373  0.4249  0.0366  0.2313
 2382TIP3    H128637   1.717   0.709  13.375 -0.4381  1.0464  2.8052
 2382TIP3    H228638   1.680   0.571  13.425  0.3834 -0.4485 -0.4141
 2383TIP3   OH228639   0.585   4.953   6.471  0.4525  0.2292  0.0413
 2383TIP3    H128640   0.507   4.923   6.424  1.8139 -0.2944 -1.9965
 2383TIP3    H228641   0.556   4.960   6.562 -1.4502 -1.9085 -0.2958
 2384TIP3   OH228642   1.805   3.974  17.062  0.0997 -0.2432 -0.7302
 2384TIP3    H128643   1.833   3.958  16.972  2.8235  2.8320 -0.6241
 2384TIP3    H228644   1.749   4.051  17.057  0.7900  0.3470  0.1936
 2385TIP3   OH228645   0.225   0.196  12.199  0.2186  0.4282  0.1312
 2385TIP3    H128646   0.284   0.243  12.259 -0.6145 -0.2071  1.5069
 2385TIP3    H228647   0.188   0.126  12.253 -0.5775 -0.1656 -1.1496
 2386TIP3   OH228648   6.285   3.027  14.130  0.1130  0.1619  0.1002
 2386TIP3    H128649   6.256   3.116  14.110 -1.3595 -0.2195  0.3560
 2386TIP3    H228650   6.273   2.980  14.047 -3.4035 -0.7813  0.9529
 2387TIP3   OH228651   1.830   5.548   2.837  0.1934  0.0003  0.2526
 2387TIP3    H128652   1.879   5.586   2.911 -1.3133  0.3835  1.0925
 2387TIP3    H228653   1.868   5.591   2.760  0.0061  1.6306  1.0140
 2388TIP3   OH228654   4.735   2.164   2.445  0.4710  0.1976  0.1047
 2388TIP3    H128655   4.790   2.199   2.376  1.0574 -1.2361 -0.1926
 2388TIP3    H228656   4.696   2.085   2.408 -1.5063  0.9514  0.4465
 2389TIP3   OH228657   3.729   4.909  13.502  0.1271  0.2690 -0.9263
 2389TIP3    H128658   3.685   4.827  13.523  0.8019  0.3061  0.7014
 2389TIP3    H228659   3.796   4.885  13.438 -1.0434 -0.0780 -2.0597
 2390TIP3   OH228660   2.070   0.540   1.172  0.2588  0.6081  0.2146
 2390TIP3    H128661   2.146   0.509   1.221  0.0644  0.4754  0.4394
 2390TIP3    H228662   2.105   0.598   1.105  0.5051  0.9991  0.6796
 2391TIP3   OH228663   5.584   3.867   4.269  0.4086  0.1016  0.4383
 2391TIP3    H128664   5.519   3.851   4.338  0.6512  0.0295  0.6516
 2391TIP3    H228665   5.604   3.960   4.277  1.0236 -0.0703  0.9881
 2392TIP3   OH228666   3.312   4.213  12.640 -0.6018 -0.1785  0.0801
 2392TIP3    H128667   3.374   4.180  12.576 -0.2927  1.4005 -0.4787
 2392TIP3    H228668   3.226   4.187  12.606 -0.3918 -0.0347 -0.5742
 2393TIP3   OH228669   1.492   5.897   2.527 -0.3267 -0.2526  0.2175
 2393TIP3    H128670   1.424   5.864   2.585 -0.1245 -1.9296 -0.4635
 2393TIP3    H228671   1.573   5.890   2.578 -0.6399  2.0829  1.1624
 2394TIP3   OH228672   5.704   6.335  15.692  0.6941 -0.2039  0.0551
 2394TIP3    H128673   5.677   6.305  15.779  0.7621  0.4269  0.2973
 2394TIP3    H228674   5.678   6.264  15.633 -0.6753 -0.0091  0.3950
 2395TIP3   OH228675   5.426   1.350   0.503 -0.3084  0.6539 -0.0739
 2395TIP3    H128676   5.401   1.378   0.415  0.1824 -1.1054 -0.8186
 2395TIP3    H228677   5.518   1.325   0.495 -0.4843 -0.3100  0.7289
 2396TIP3   OH228678   0.287   2.274  11.622  0.2621  0.1632  0.5593
 2396TIP3    H128679   0.372   2.251  11.585 -0.0177  2.3503 -1.7532
 2396TIP3    H228680   0.297   2.365  11.651 -0.8855 -0.0308  1.6526
 2397TIP3   OH228681   2.162   1.931   5.023  0.7430  0.2108 -0.0887
 2397TIP3    H128682   2.198   1.842   5.017  1.5067  0.4110  1.0630
 2397TIP3    H228683   2.106   1.940   4.946 -0.1514 -1.6256  0.2870
 2398TIP3   OH228684   4.447   1.852  13.501  0.0570  0.0489 -0.1035
 2398TIP3    H128685   4.527   1.863  13.449  0.8366 -1.2678  0.7618
 2398TIP3    H228686   4.459   1.911  13.576 -0.0136  0.2178 -0.2240
 2399TIP3   OH228687   0.039   2.383   1.422 -0.0295 -0.2530 -0.3513
 2399TIP3    H128688  -0.029   2.387   1.489 -0.9752 -1.1099 -1.2349
 2399TIP3    H228689   0.121   2.389   1.471 -0.7016 -0.9364  0.8934
 2400TIP3   OH228690   3.758   0.629  16.642  0.3833  0.1672 -0.4279
 2400TIP3    H128691   3.696   0.598  16.575  1.1452 -0.5243 -0.8350
 2400TIP3    H228692   3.789   0.549  16.684  0.0129  0.5866  0.6869
 2401TIP3   OH228693   0.301   2.314   1.086 -0.0894 -0.5711 -0.7545
 2401TIP3    H128694   0.382   2.317   1.138 -0.6244  0.3569  0.0558
 2401TIP3    H228695   0.253   2.239   1.120  0.0736 -0.6393 -0.6767
 2402TIP3   OH228696   6.350   2.144  12.409  0.5167  0.1314  0.1975
 2402TIP3    H128697   6.340   2.229  12.453  0.5301  0.2657 -0.0591
 2402TIP3    H228698   6.428   2.106  12.450  1.3693  0.8671 -0.6806
 2403TIP3   OH228699   1.295   5.783   2.981  0.0225  0.5500  0.1164
 2403TIP3    H128700   1.299   5.796   3.076  0.8116 -1.1658  0.3517
 2403TIP3    H228701   1.385   5.761   2.956 -0.3182  0.2731 -0.9186
 2404TIP3   OH228702   2.597   4.427  14.571 -0.0371 -0.2701 -0.0948
 2404TIP3    H128703   2.682   4.393  14.598 -0.9329 -2.4563  0.1367
 2404TIP3    H228704   2.579   4.386  14.487 -1.7118 -1.4933  0.7818
 2405TIP3   OH228705   6.416   5.659  11.733 -0.2870  0.0770  0.2497
 2405TIP3    H128706   6.386   5.627  11.648 -0.2792  1.1085 -0.1574
 2405TIP3    H228707   6.390   5.751  11.734  1.5922  0.6556  0.4651
 2406TIP3   OH228708   2.161   5.808  16.772 -0.2043 -0.4069 -0.5566
 2406TIP3    H128709   2.231   5.849  16.823 -0.5268  0.6879 -0.9818
 2406TIP3    H228710   2.084   5.814  16.828 -0.0986 -1.1070 -0.3222
 2407TIP3   OH228711   2.493   5.246  15.680  0.3558  0.1188 -0.0683
 2407TIP3    H128712   2.499   5.296  15.599  0.5792  1.7961  0.9279
 2407TIP3    H228713   2.583   5.240  15.712  0.2351 -0.2378  0.2204
 2408TIP3   OH228714   5.892   0.084  15.660 -0.2223 -0.0826 -0.3422
 2408TIP3    H128715   5.949   0.040  15.597 -0.2039 -1.3533  0.5135
 2408TIP3    H228716   5.945   0.092  15.739 -1.0681 -0.9334  0.3482
 2409TIP3   OH228717   3.614   5.697  16.377 -0.2735  0.0328  0.2053
 2409TIP3    H128718   3.546   5.737  16.431 -1.0652  0.9852 -1.4413
 2409TIP3    H228719   3.570   5.673  16.296  1.4058  0.9603 -1.0467
 2410TIP3   OH228720   5.485   5.985  12.671 -0.8919 -0.1278 -0.6203
 2410TIP3    H128721   5.398   5.965  12.705 -0.5518  0.5667  0.7291
 2410TIP3    H228722   5.474   5.988  12.576 -1.9596 -1.7960 -0.5877
 2411TIP3   OH228723   1.153   2.564   3.930 -0.5025  0.0009 -0.1333
 2411TIP3    H128724   1.181   2.531   3.844  0.0101 -1.9410  0.7237
 2411TIP3    H228725   1.078   2.509   3.953 -1.1547  1.0569  0.3324
 2412TIP3   OH228726   2.976   3.633  16.070 -0.1319  0.3772  0.0049
 2412TIP3    H128727   2.917   3.672  16.006 -1.5538  0.8420  1.5250
 2412TIP3    H228728   3.002   3.706  16.127  1.4019  0.0512 -0.2205
 2413TIP3   OH228729   0.679   0.362  14.941 -0.6810 -0.2210  0.3366
 2413TIP3    H128730   0.605   0.413  14.909  0.9915  1.4057 -1.1947
 2413TIP3    H228731   0.690   0.390  15.032 -0.6092  1.2132 -0.0894
 2414TIP3   OH228732   0.423   6.648  13.855  0.0456  0.8472 -0.0478
 2414TIP3    H128733   0.355   6.626  13.919 -0.3343 -1.6564 -1.1920
 2414TIP3    H228734   0.505   6.641  13.904 -0.3008  0.0307  0.4303
 2415TIP3   OH228735   3.929   5.462   6.079 -0.2682 -0.0106  0.2900
 2415TIP3    H128736   3.866   5.426   6.142  0.9388 -0.9032  1.0418
 2415TIP3    H228737   3.882   5.462   5.996 -1.4882  0.0029  0.9542
 2416TIP3   OH228738   3.407   3.475   1.786 -0.0783  0.0244 -0.1090
 2416TIP3    H128739   3.487   3.503   1.832 -1.0374 -0.5708  2.0049
 2416TIP3    H228740   3.399   3.538   1.714  1.4081  1.1015  0.5960
 2417TIP3   OH228741   4.853   5.104  15.522 -0.1703 -0.2327  0.3349
 2417TIP3    H128742   4.836   5.143  15.436  1.8818  0.2925  0.1246
 2417TIP3    H228743   4.844   5.009  15.507  0.0770 -0.1390 -0.4499
 2418TIP3   OH228744   1.224   6.210  11.855 -0.0009 -0.2209 -0.2356
 2418TIP3    H128745   1.280   6.276  11.815 -0.4707  0.6736  0.5276
 2418TIP3    H228746   1.136   6.249  11.852 -0.2788 -0.7949  0.2555
 2419TIP3   OH228747   1.907   0.846   1.776  0.2661 -0.8169 -0.4000
 2419TIP3    H128748   1.999   0.831   1.800  0.3347  0.5232  0.2121
 2419TIP3    H228749   1.907   0.933   1.737 -0.3305 -1.7846 -2.7706
 2420TIP3   OH228750   5.873   4.475   1.147 -0.1795  0.1214 -0.7868
 2420TIP3    H128751   5.850   4.452   1.237 -0.2995 -1.3615 -1.1641
 2420TIP3    H228752   5.821   4.553   1.128 -2.4587 -1.2310 -0.5180
 2421TIP3   OH228753   3.776   5.523   5.858 -0.0099  0.1480  0.3817
 2421TIP3    H128754   3.710   5.582   5.895  0.3086  1.5880 -1.2062
 2421TIP3    H228755   3.725   5.450   5.824 -0.5662  0.1890  1.0921
 2422TIP3   OH228756   0.397   1.848  15.542 -0.3194  0.1113  0.2304
 2422TIP3    H128757   0.468   1.787  15.561  0.2956 -0.0777 -2.2937
 2422TIP3    H228758   0.336   1.837  15.615 -0.0634 -3.2788  0.0908
 2423TIP3   OH228759   2.946   6.823   5.429  0.0840 -0.1504 -0.3229
 2423TIP3    H128760   3.033   6.862   5.414  0.8635 -1.4344  0.6478
 2423TIP3    H228761   2.961   6.729   5.423 -1.0266 -0.4329  0.9439
 2424TIP3   OH228762   6.215   3.577   3.017 -0.1930  0.0445 -0.0440
 2424TIP3    H128763   6.303   3.540   3.021 -0.2896 -0.3485 -1.1778
 2424TIP3    H228764   6.159   3.503   2.995 -0.6492  0.5116 -0.4703
 2425TIP3   OH228765   3.510   2.219   3.755 -0.0256  0.6287 -0.1131
 2425TIP3    H128766   3.492   2.254   3.668  2.0096  1.5218 -0.2200
 2425TIP3    H228767   3.576   2.277   3.792  1.6700 -1.6441  0.6975
 2426TIP3   OH228768   6.825   5.296  15.118 -0.0521  0.2333 -0.1107
 2426TIP3    H128769   6.899   5.278  15.061 -0.3608 -0.1630 -0.3887
 2426TIP3    H228770   6.831   5.230  15.187 -0.7950 -0.5360 -0.7589
 2427TIP3   OH228771   5.204   6.624  12.208  0.0545 -0.0095  0.4472
 2427TIP3    H128772   5.166   6.710  12.190  2.4260  0.7583 -1.5528
 2427TIP3    H228773   5.243   6.632  12.295 -1.3790  0.2713  1.0827
 2428TIP3   OH228774   3.072   6.325   2.532 -0.1821 -0.0006  0.3222
 2428TIP3    H128775   3.097   6.410   2.494  1.1012  0.0659  1.2495
 2428TIP3    H228776   3.155   6.283   2.552 -0.8257 -1.0067  0.9252
 2429TIP3   OH228777   6.170   5.305  16.971 -0.2588 -0.3043  0.6811
 2429TIP3    H128778   6.220   5.274  16.895 -0.2811 -2.2670  1.4282
 2429TIP3    H228779   6.237   5.339  17.031 -0.2045  0.8236  0.0167
 2430TIP3   OH228780   5.555   2.718   0.394  0.1804  0.4686 -0.0533
 2430TIP3    H128781   5.517   2.801   0.366  1.4704  0.1779 -3.1655
 2430TIP3    H228782   5.519   2.653   0.333  2.1499 -0.5228 -0.2767
 2431TIP3   OH228783   2.934   5.543   0.028 -0.5785  0.0780  0.2826
 2431TIP3    H128784   2.881   5.608  -0.019 -2.5689 -1.5309  0.1968
 2431TIP3    H228785   2.955   5.585   0.112  0.3352  1.7572 -0.7310
 2432TIP3   OH228786   3.158   3.006  11.135 -0.1561 -0.8306  0.0543
 2432TIP3    H128787   3.238   3.032  11.181 -0.8041  2.1672 -0.2832
 2432TIP3    H228788   3.087   3.030  11.194 -0.9014  0.1014 -1.1691
 2433TIP3   OH228789   3.409   2.538  15.638  0.5993 -0.3496 -0.2305
 2433TIP3    H128790   3.482   2.505  15.690 -0.1932 -0.6729  0.7129
 2433TIP3    H228791   3.384   2.464  15.582  0.1211 -0.7046  0.4371
 2434TIP3   OH228792   5.699   1.187   5.215 -0.4159 -0.0610  0.1704
 2434TIP3    H128793   5.711   1.209   5.307  0.1780  0.1447  0.0492
 2434TIP3    H228794   5.608   1.159   5.209 -0.8647  1.2370  0.5522
 2435TIP3   OH228795   1.874   1.544   4.179  0.2093 -0.6112 -0.1323
 2435TIP3    H128796   1.823   1.488   4.239 -0.1288 -0.1235  0.0380
 2435TIP3    H228797   1.946   1.487   4.150  0.4058 -0.8478  0.7746
 2436TIP3   OH228798   1.615   2.865  16.943 -0.0141 -0.0460  0.1789
 2436TIP3    H128799   1.561   2.826  17.012  0.9633  0.0656  1.0384
 2436TIP3    H228800   1.641   2.792  16.888 -0.3533 -0.2201  0.2514
 2437TIP3   OH228801   6.679   2.584  15.175  0.6643  0.1771 -0.2048
 2437TIP3    H128802   6.706   2.510  15.229  1.5541  0.3778 -0.3582
 2437TIP3    H228803   6.760   2.615  15.135  0.3072  1.2605 -0.1082
 2438TIP3   OH228804   1.133   6.818   6.501 -0.3567  0.1489  0.1794
 2438TIP3    H128805   1.051   6.776   6.525 -0.9341  0.1546 -1.5986
 2438TIP3    H228806   1.108   6.909   6.483 -0.2207 -0.1074 -1.4684
 2439TIP3   OH228807   0.489   4.167   2.641  0.6423  0.0017  0.7320
 2439TIP3    H128808   0.573   4.188   2.600 -1.6922  3.2473 -3.1505
 2439TIP3    H228809   0.487   4.222   2.720  2.2627 -0.4641  1.1437
 2440TIP3   OH228810   4.084   5.113  16.590  0.1059  0.0313  0.0528
 2440TIP3    H128811   4.176   5.142  16.587  0.2172 -0.1756  1.0089
 2440TIP3    H228812   4.051   5.149  16.673 -0.8702  0.6338 -0.5807
 2441TIP3   OH228813   6.121   0.517   4.926  0.3481 -0.1818 -0.1147
 2441TIP3    H128814   6.199   0.570   4.913 -0.5494  1.2489  0.1257
 2441TIP3    H228815   6.152   0.427   4.923  2.3165  0.3423  1.8724
 2442TIP3   OH228816   0.571   5.136   4.688 -0.5494 -0.5139 -0.3281
 2442TIP3    H128817   0.583   5.129   4.783  1.0529  0.9163 -0.3670
 2442TIP3    H228818   0.509   5.209   4.678  0.2780  0.2006 -0.3793
 2443TIP3   OH228819   2.572   6.180  12.317 -0.8132 -0.0172  0.2162
 2443TIP3    H128820   2.581   6.107  12.255 -0.4497 -0.5084  0.8335
 2443TIP3    H228821   2.489   6.222  12.292 -0.2205  0.3791 -1.1899
 2444TIP3   OH228822   1.745   6.055   6.446 -0.2962  0.2967 -0.2717
 2444TIP3    H128823   1.812   6.090   6.505 -0.2232  0.3599 -0.3929
 2444TIP3    H228824   1.792   6.034   6.366 -0.1225 -1.1184  0.1679
 2445TIP3   OH228825   5.410   3.804  11.952  0.1518  0.2188  0.4386
 2445TIP3    H128826   5.345   3.834  12.016 -1.1218  0.4793 -0.9459
 2445TIP3    H228827   5.397   3.861  11.876  0.3451 -1.3131 -0.7821
 2446TIP3   OH228828   5.804   3.141  10.620  0.1884 -0.1789 -0.4317
 2446TIP3    H128829   5.895   3.135  10.593  0.4802 -0.9071  0.6355
 2446TIP3    H228830   5.778   3.051  10.638 -0.7977  0.0069 -0.8721
 2447TIP3   OH228831   0.309   0.804   0.579 -0.6305  0.7452  0.0594
 2447TIP3    H128832   0.388   0.755   0.557 -0.1681  0.1348  2.7956
 2447TIP3    H228833   0.319   0.888   0.534  0.0357 -0.4539 -2.1766
 2448TIP3   OH228834   6.696   4.828   0.047 -0.3357 -0.1906  0.0262
 2448TIP3    H128835   6.662   4.781  -0.029 -1.7358 -1.2963  1.2927
 2448TIP3    H228836   6.674   4.773   0.122 -0.8600  1.8591  1.4514
 2449TIP3   OH228837   1.967   4.783   4.104 -0.2706  0.5411  0.4847
 2449TIP3    H128838   1.995   4.710   4.159  2.5811 -0.8275 -2.4689
 2449TIP3    H228839   1.935   4.742   4.024  1.3244  2.4316 -1.2175
 2450TIP3   OH228840   5.905   6.400   0.329  0.2715 -0.1717 -0.7891
 2450TIP3    H128841   5.825   6.452   0.318 -0.8122 -1.2808  1.2061
 2450TIP3    H228842   5.905   6.375   0.422  1.6734 -2.2168 -1.2617
 2451TIP3   OH228843   1.792   0.702  16.392  0.1260  1.0718  0.2177
 2451TIP3    H128844   1.711   0.694  16.442  0.5473  0.1268  0.7789
 2451TIP3    H228845   1.779   0.647  16.315  0.4396  0.4331  0.6073
 2452TIP3   OH228846   0.949   2.502   2.067 -0.5727 -0.2473 -0.6025
 2452TIP3    H128847   0.961   2.502   2.162 -0.2226 -0.6558 -0.6417
 2452TIP3    H228848   0.862   2.464   2.054 -0.7620  0.1254 -0.4312
 2453TIP3   OH228849   0.683   5.875   1.540  0.4767  0.6305  0.0309
 2453TIP3    H128850   0.664   5.789   1.504  1.7802  0.1419  0.4373
 2453TIP3    H228851   0.668   5.866   1.634  1.6728  0.5074  0.2261
 2454TIP3   OH228852   0.954   3.706  13.620 -0.3198  0.1845  0.2961
 2454TIP3    H128853   0.967   3.613  13.636  0.6170  0.2263 -0.1300
 2454TIP3    H228854   0.993   3.749  13.696 -0.7259  0.2294  0.4787
 2455TIP3   OH228855   3.952   0.154  12.072  0.3088  0.2122 -0.1211
 2455TIP3    H128856   3.877   0.209  12.048  0.9453  0.9525 -0.4424
 2455TIP3    H228857   3.913   0.069  12.093 -1.4279  1.9660  5.4769
 2456TIP3   OH228858   4.079   5.575  15.759  0.5793 -0.1508 -0.0496
 2456TIP3    H128859   4.064   5.577  15.664  0.3910 -2.8661 -0.1379
 2456TIP3    H228860   4.174   5.571  15.768  0.5508 -1.4030 -0.2025
 2457TIP3   OH228861   0.567   5.277   0.491  0.4795  0.2609  0.3835
 2457TIP3    H128862   0.486   5.325   0.506  1.2440  1.2773  1.3962
 2457TIP3    H228863   0.634   5.344   0.482  1.5725 -0.5793  1.8372
 2458TIP3   OH228864   3.909   5.911   4.161  0.0494 -0.3348 -0.5017
 2458TIP3    H128865   3.920   5.933   4.253  0.3555  0.5108 -0.7346
 2458TIP3    H228866   3.917   5.816   4.158  0.6359 -0.3158  0.2578
 2459TIP3   OH228867   6.279   4.613   3.297 -0.2194  0.6565  0.1421
 2459TIP3    H128868   6.288   4.573   3.211  1.0286  0.1313  0.4985
 2459TIP3    H228869   6.196   4.580   3.331 -0.4196  0.3872 -0.5971
 2460TIP3   OH228870   0.035   1.098   4.083  0.1648  0.0690 -0.1566
 2460TIP3    H128871  -0.004   1.185   4.074  0.6539  0.2556 -0.5285
 2460TIP3    H228872  -0.030   1.039   4.044 -0.5710  0.1513  0.8998
 2461TIP3   OH228873   4.415   4.231  10.679  0.0951 -0.0988  0.1026
 2461TIP3    H128874   4.374   4.240  10.765  1.8804  2.6344  0.8197
 2461TIP3    H228875   4.360   4.284  10.620  0.2392  0.0543  0.1065
 2462TIP3   OH228876   5.317   0.497   3.618  0.4688 -0.3199 -0.0678
 2462TIP3    H128877   5.329   0.586   3.653  0.4473  0.5363 -2.0962
 2462TIP3    H228878   5.228   0.474   3.643  0.6081  0.0516  0.8281
 2463TIP3   OH228879   4.548   0.195   4.680  0.5824  0.3699 -0.3044
 2463TIP3    H128880   4.535   0.100   4.675 -0.4377  0.4538  0.4380
 2463TIP3    H228881   4.468   0.232   4.643  0.7369  0.9430 -0.0761
 2464TIP3   OH228882   5.745   5.949   0.155 -0.1597  0.3011 -0.6078
 2464TIP3    H128883   5.778   5.983   0.072 -0.2697 -0.7835 -1.1076
 2464TIP3    H228884   5.738   5.855   0.141  0.0501  0.0776  0.7158
 2465TIP3   OH228885   2.852   5.007   2.257 -0.2991  0.2866 -0.6951
 2465TIP3    H128886   2.794   4.936   2.284  1.5640 -0.6510  1.1344
 2465TIP3    H228887   2.928   4.963   2.218  1.1716  1.1284  1.0183
 2466TIP3   OH228888   0.635   0.506   1.589  0.4359 -0.0367  0.2364
 2466TIP3    H128889   0.637   0.496   1.684 -0.7532  1.3060  0.4333
 2466TIP3    H228890   0.543   0.526   1.570  0.9612  1.2825 -1.0228
 2467TIP3   OH228891   2.539   6.192  13.288 -0.8189  1.0726 -0.2222
 2467TIP3    H128892   2.554   6.287  13.295  0.6937  0.8431  0.0426
 2467TIP3    H228893   2.467   6.175  13.349 -1.0744  2.0458 -0.2281
 2468TIP3   OH228894   3.546   0.079   5.036 -0.5460  0.1404 -0.1328
 2468TIP3    H128895   3.603   0.071   5.113  0.8205  1.5932 -0.9280
 2468TIP3    H228896   3.560  -0.003   4.988  1.4888  0.7584 -0.6762
 2469TIP3   OH228897   3.091   4.746  11.149  0.0306 -0.0476  0.2227
 2469TIP3    H128898   3.104   4.674  11.211 -1.0195 -1.0237 -0.6353
 2469TIP3    H228899   3.036   4.809  11.196  1.3816  0.4789  1.1650
 2470TIP3   OH228900   4.986   0.584  16.651 -0.1648 -0.0474 -0.0635
 2470TIP3    H128901   4.988   0.633  16.734 -1.5950 -0.0529  0.0118
 2470TIP3    H228902   4.899   0.544  16.650  0.6506 -1.8885 -0.5460
 2471TIP3   OH228903   5.319   4.009   5.619 -0.1341  0.4901  0.0519
 2471TIP3    H128904   5.396   4.030   5.566  0.1449  1.4355  0.7869
 2471TIP3    H228905   5.352   3.952   5.688 -0.5683 -1.0473 -0.9661
 2472TIP3   OH228906   5.129   4.797   2.593 -0.2187 -0.0199 -0.3709
 2472TIP3    H128907   5.077   4.785   2.672 -0.7685  0.6251 -0.6289
 2472TIP3    H228908   5.086   4.867   2.545  1.1458  0.8723 -0.3646
 2473TIP3   OH228909   5.716   1.731   0.279 -0.2288  0.0457 -0.1033
 2473TIP3    H128910   5.750   1.820   0.289 -0.3586  0.0471  0.3418
 2473TIP3    H228911   5.624   1.737   0.303 -0.7561  0.1950 -2.0510
 2474TIP3   OH228912   1.816   2.915  14.377 -0.4215 -0.2404  0.1504
 2474TIP3    H128913   1.842   2.823  14.386 -1.2114 -0.4630  0.2561
 2474TIP3    H228914   1.824   2.950  14.466  0.9902  0.1134 -0.0919
 2475TIP3   OH228915   3.270   1.834  17.054 -0.1090  0.5855 -0.1621
 2475TIP3    H128916   3.297   1.861  17.142 -0.4608  2.0873 -0.4932
 2475TIP3    H228917   3.290   1.909  16.999 -1.7374  0.4168 -1.0182
 2476TIP3   OH228918   5.634   2.743  14.523 -0.0357 -0.3311 -0.3058
 2476TIP3    H128919   5.554   2.795  14.525  0.2096  0.0285  0.1171
 2476TIP3    H228920   5.630   2.689  14.602  0.9514  0.9192  0.6333
 2477TIP3   OH228921   5.321   0.494  12.595  0.2490  0.1278 -0.2816
 2477TIP3    H128922   5.282   0.498  12.508 -0.2067 -1.8716 -0.2136
 2477TIP3    H228923   5.264   0.436  12.645  1.0871  0.3858  1.0367
 2478TIP3   OH228924   1.969   6.456   5.392 -0.1604  0.0107 -0.3911
 2478TIP3    H128925   1.907   6.383   5.387  0.4315 -0.5071 -0.3223
 2478TIP3    H228926   2.028   6.431   5.463 -0.1138  0.6890 -0.1899
 2479TIP3   OH228927   0.988   4.671  13.456 -0.5078 -0.0537  0.4003
 2479TIP3    H128928   0.941   4.699  13.377 -1.2066  1.2690  1.2493
 2479TIP3    H228929   0.986   4.576  13.452 -3.0739 -0.0527  0.2586
 2480TIP3   OH228930   2.933   5.369   5.649  0.2458 -0.2203 -0.1051
 2480TIP3    H128931   2.849   5.355   5.605  0.6894  0.3145 -1.1555
 2480TIP3    H228932   2.997   5.373   5.578  0.9188  1.1980  0.5459
 2481TIP3   OH228933   4.031   0.155  12.322  0.0392 -0.0206  0.0084
 2481TIP3    H128934   3.983   0.167  12.240 -0.7722 -2.2323  0.0983
 2481TIP3    H228935   4.116   0.120  12.296  0.3214  0.6116  0.0542
 2482TIP3   OH228936   5.756   5.305   5.908 -0.1998 -0.2670  0.1405
 2482TIP3    H128937   5.685   5.352   5.952  0.9108  1.4017  0.2497
 2482TIP3    H228938   5.834   5.357   5.927  0.4251  0.4470 -3.6175
 2483TIP3   OH228939   0.210   2.079   1.240 -0.0513 -0.4142 -0.2951
 2483TIP3    H128940   0.153   2.095   1.315 -0.5667 -2.4317 -0.2107
 2483TIP3    H228941   0.158   2.025   1.181  1.4394 -1.5556 -0.6242
 2484TIP3   OH228942   6.566   0.594   5.655 -0.7318  0.1230  0.5126
 2484TIP3    H128943   6.625   0.668   5.642 -0.9522  0.3823  0.9791
 2484TIP3    H228944   6.482   0.624   5.620 -1.1209  0.5255  1.7592
 2485TIP3   OH228945   3.295   3.905   2.351 -0.7573  0.2447  0.5298
 2485TIP3    H128946   3.227   3.936   2.411 -1.3559 -0.0714  0.0233
 2485TIP3    H228947   3.295   3.969   2.281 -2.3128 -1.0791 -0.7539
 2486TIP3   OH228948   1.457   1.083  15.135  0.2387 -0.0164 -0.2938
 2486TIP3    H128949   1.380   1.028  15.148 -0.8133  1.2426 -0.9974
 2486TIP3    H228950   1.478   1.072  15.042 -0.5999  1.5068 -0.6923
 2487TIP3   OH228951   3.074   3.937   6.013  0.2962 -0.6433  0.0379
 2487TIP3    H128952   3.144   3.935   5.948  0.4196 -0.5424  0.1675
 2487TIP3    H228953   3.001   3.979   5.968  1.3282  2.2906  0.8713
 2488TIP3   OH228954   2.477   5.799  13.788  0.0674 -0.7352 -0.1487
 2488TIP3    H128955   2.545   5.784  13.853 -1.0530 -0.2246  1.1808
 2488TIP3    H228956   2.524   5.832  13.711  1.4266 -1.5361  0.3172
 2489TIP3   OH228957   2.696   4.809  11.856  0.0199  0.0767  0.1862
 2489TIP3    H128958   2.627   4.763  11.808 -0.2422  0.7022 -0.0563
 2489TIP3    H228959   2.668   4.901  11.854  1.4561  0.5341 -0.9697
 2490TIP3   OH228960   5.315   6.299  10.795 -0.4319  0.2413  0.1435
 2490TIP3    H128961   5.352   6.363  10.856  0.1992 -0.0599  0.0785
 2490TIP3    H228962   5.377   6.226  10.795  0.7747  1.1389 -2.4811
 2491TIP3   OH228963   5.151   4.224  13.301 -0.7026  0.2905  0.8180
 2491TIP3    H128964   5.066   4.191  13.329 -1.1776  2.1852  1.8225
 2491TIP3    H228965   5.201   4.232  13.382  0.2311 -0.2295  0.3049
 2492TIP3   OH228966   0.478   3.902   2.685 -0.2053 -0.3067  0.1630
 2492TIP3    H128967   0.383   3.904   2.671 -0.1672  0.1210 -0.0419
 2492TIP3    H228968   0.502   3.993   2.696  0.2306 -0.3923 -0.0791
 2493TIP3   OH228969   6.069   3.659   1.388 -0.0445  0.0247 -0.0443
 2493TIP3    H128970   6.046   3.651   1.480 -4.0292 -0.9742 -0.9376
 2493TIP3    H228971   6.066   3.754   1.371  1.1379  0.2508  0.8834
 2494TIP3   OH228972   1.835   5.334   4.738  0.3821 -0.4556  0.3192
 2494TIP3    H128973   1.848   5.251   4.692 -0.6055  0.2448 -1.3032
 2494TIP3    H228974   1.758   5.373   4.696  1.0716  1.4733  0.7448
 2495TIP3   OH228975   0.353   2.823   6.212 -0.8034 -0.3124 -0.2542
 2495TIP3    H128976   0.267   2.832   6.251 -1.2479 -1.4717 -0.9191
 2495TIP3    H228977   0.406   2.891   6.254 -2.3137  1.1598 -0.6364
 2496TIP3   OH228978   3.393   2.891   5.092  0.1241  0.4482 -0.3558
 2496TIP3    H128979   3.320   2.907   5.151 -1.0357 -2.0587 -0.9896
 2496TIP3    H228980   3.430   2.808   5.121  2.7356  1.6047 -0.1054
 2497TIP3   OH228981   5.757   2.108   4.689 -0.0138 -0.1111  0.4493
 2497TIP3    H128982   5.757   2.072   4.778 -0.9270  0.0587  0.5299
 2497TIP3    H228983   5.701   2.048   4.639  0.9702 -0.5498 -0.1709
 2498TIP3   OH228984   0.198   1.388  11.305  1.0037  0.2667 -0.4662
 2498TIP3    H128985   0.113   1.417  11.272  1.0033  0.6984 -0.1000
 2498TIP3    H228986   0.213   1.303  11.263  0.7536  0.5478 -1.1391
 2499TIP3   OH228987   5.800   3.589   5.532  0.1933  0.4978 -0.1089
 2499TIP3    H128988   5.832   3.615   5.445 -1.4645  2.4051 -0.2222
 2499TIP3    H228989   5.706   3.573   5.519 -0.2743  1.7193  1.4871
 2500TIP3   OH228990   1.823   3.471   4.559 -0.8056 -0.0623  0.3607
 2500TIP3    H128991   1.842   3.562   4.579 -2.6387  0.5666 -0.4598
 2500TIP3    H228992   1.766   3.442   4.630 -3.4222  0.7124 -1.2678
 2501TIP3   OH228993   0.271   4.131   4.944  0.3895 -0.3469  0.2158
 2501TIP3    H128994   0.267   4.131   5.040 -1.8303 -0.1849  0.1744
 2501TIP3    H228995   0.345   4.190   4.924 -0.1247  0.9421  1.8216
 2502TIP3   OH228996   3.094   0.063   3.159  0.7366  0.4052 -0.1153
 2502TIP3    H128997   3.053  -0.023   3.158  0.0078  0.7115 -2.2673
 2502TIP3    H228998   3.140   0.069   3.075  2.5373  1.3404  0.8611
 2503TIP3   OH228999   0.276   0.065   2.916 -0.2167 -0.1290  0.0649
 2503TIP3    H129000   0.239   0.038   2.832  0.5189  0.9311 -0.6245
 2503TIP3    H229001   0.273  -0.014   2.970  0.0072 -1.0369 -1.2120
 2504TIP3   OH229002   2.905   5.437  11.106 -0.1677  0.5015  0.4406
 2504TIP3    H129003   2.954   5.479  11.036  1.3888  0.0235  1.1894
 2504TIP3    H229004   2.891   5.347  11.076 -1.0845  0.7803  0.0022
 2505TIP3   OH229005   3.292   4.679   3.717  0.2007 -0.2637 -0.3932
 2505TIP3    H129006   3.222   4.621   3.688 -2.4724  1.1199  2.7132
 2505TIP3    H229007   3.343   4.626   3.779 -0.2480 -0.2838 -0.0345
 2506TIP3   OH229008   1.356   2.681  11.287  0.7825 -0.1021  0.4379
 2506TIP3    H129009   1.306   2.757  11.258  0.6882  0.1390  1.2154
 2506TIP3    H229010   1.417   2.664  11.215  1.3535  1.2060  0.5761
 2507TIP3   OH229011   2.914   4.102  11.118 -0.0174 -0.7719  0.4110
 2507TIP3    H129012   2.853   4.110  11.191 -0.2565  1.6485  0.0524
 2507TIP3    H229013   2.887   4.023  11.072 -1.1983 -1.1779  1.7313
 2508TIP3   OH229014   2.410   2.302   0.578  0.1462  0.6439 -0.0660
 2508TIP3    H129015   2.330   2.256   0.553  0.7827 -0.1300 -0.7476
 2508TIP3    H229016   2.452   2.322   0.494  0.2555  1.7965  0.2576
 2509TIP3   OH229017   2.084   4.521   3.229  0.4223  0.0230  0.1577
 2509TIP3    H129018   2.161   4.466   3.246  0.9003  0.0310 -1.7710
 2509TIP3    H229019   2.109   4.575   3.155 -1.9843 -1.0964 -1.5863
 2510TIP3   OH229020   5.005   0.999  15.775  0.5067 -0.2077 -0.5570
 2510TIP3    H129021   4.970   0.910  15.774  1.0594 -0.4545  0.7475
 2510TIP3    H229022   4.931   1.053  15.803  0.1598 -0.2334 -1.3886
 2511TIP3   OH229023   4.853   4.814   3.345  0.1637  0.1937 -0.1803
 2511TIP3    H129024   4.797   4.762   3.402  0.1124 -0.9563 -1.2505
 2511TIP3    H229025   4.832   4.785   3.257  1.8114  0.3580 -0.6581
 2512TIP3   OH229026   1.399   6.502  16.639 -0.1701  0.0417 -0.5716
 2512TIP3    H129027   1.421   6.441  16.709 -0.5451 -0.3528 -0.7944
 2512TIP3    H229028   1.373   6.447  16.565 -2.2532  0.4446 -0.2156
 2513TIP3   OH229029   0.901   0.334   2.096 -0.0888 -0.2848  0.2231
 2513TIP3    H129030   0.806   0.322   2.095 -0.0198 -0.8280 -0.2382
 2513TIP3    H229031   0.918   0.383   2.176 -0.8021  0.1844  0.0947
 2514TIP3   OH229032   2.717   1.290   5.220 -0.0655  0.3821 -0.0966
 2514TIP3    H129033   2.679   1.288   5.132  0.0897 -0.3595 -0.1582
 2514TIP3    H229034   2.654   1.339   5.272 -0.1425  0.8587 -0.6295
 2515TIP3   OH229035   1.491   2.493  11.114  0.2711  0.1778  0.0391
 2515TIP3    H129036   1.495   2.475  11.208  0.8495 -0.2482 -0.0633
 2515TIP3    H229037   1.509   2.408  11.073  0.0353  0.3642 -0.4586
 2516TIP3   OH229038   1.120   3.697  15.611  0.4718 -0.2138  0.4604
 2516TIP3    H129039   1.066   3.664  15.539  1.3217 -0.6628  0.0264
 2516TIP3    H229040   1.203   3.720  15.570  1.1849 -1.0628  1.3956
 2517TIP3   OH229041   2.472   4.905  13.029  0.2018  0.0223  0.1691
 2517TIP3    H129042   2.558   4.864  13.041  0.7035  1.1263  0.3964
 2517TIP3    H229043   2.441   4.922  13.117 -0.8180 -1.4666  0.1384
 2518TIP3   OH229044   4.354   1.178  13.465  0.2132 -0.1235  0.2368
 2518TIP3    H129045   4.449   1.170  13.471  0.0973 -1.7572  0.3124
 2518TIP3    H229046   4.329   1.231  13.541  1.1515  1.3349 -0.4433
 2519TIP3   OH229047   2.761   4.135  13.712  0.0099  0.2585  0.6924
 2519TIP3    H129048   2.683   4.091  13.746  1.1242 -1.8744  0.6323
 2519TIP3    H229049   2.751   4.133  13.617  1.7745 -3.5031  0.4212
 2520TIP3   OH229050   6.017   6.510   4.626 -0.2037  0.0468 -0.5900
 2520TIP3    H129051   6.051   6.562   4.553 -0.0364 -0.1212 -0.6342
 2520TIP3    H229052   6.022   6.568   4.702  0.1841  0.0236 -0.5973
 2521TIP3   OH229053   2.241   0.150  11.237  0.0297  0.0267 -0.1215
 2521TIP3    H129054   2.178   0.120  11.302 -1.1103 -1.8345 -1.9796
 2521TIP3    H229055   2.270   0.070  11.192  2.7977  0.9491 -0.1827
 2522TIP3   OH229056   6.858   2.015  10.701 -0.9182 -0.2107 -0.2889
 2522TIP3    H129057   6.921   2.035  10.632 -0.2321  0.8631  0.6127
 2522TIP3    H229058   6.879   2.077  10.771 -2.6451 -0.1821  0.2445
 2523TIP3   OH229059   2.150   1.841  15.131 -0.5303 -0.0721  0.2321
 2523TIP3    H129060   2.242   1.838  15.106 -1.2676 -0.6728 -2.8406
 2523TIP3    H229061   2.142   1.776  15.202  1.0745 -1.5870 -0.8844
 2524TIP3   OH229062   3.883   1.336   0.044  0.1131 -0.3942 -0.3792
 2524TIP3    H129063   3.914   1.417   0.004  1.0109 -1.0402 -1.0288
 2524TIP3    H229064   3.793   1.355   0.071  0.7176  1.2134  0.6414
 2525TIP3   OH229065   5.085   6.171   4.899  0.1469 -0.4391 -0.1448
 2525TIP3    H129066   5.012   6.138   4.848  0.3438  0.3491 -0.9709
 2525TIP3    H229067   5.125   6.093   4.938 -0.0159 -1.0541 -1.1904
 2526TIP3   OH229068   0.855   5.319  13.452 -0.1345 -0.1481 -0.0644
 2526TIP3    H129069   0.841   5.277  13.537  2.2889  0.7154  0.8464
 2526TIP3    H229070   0.773   5.363  13.433 -0.7966 -0.5127  1.7559
 2527TIP3   OH229071   0.805   0.404   1.396 -0.0431 -0.2057  0.3302
 2527TIP3    H129072   0.893   0.392   1.431  0.4980  0.8482 -0.6237
 2527TIP3    H229073   0.756   0.442   1.469  1.1273  2.1688 -0.0400
 2528TIP3   OH229074   3.119   3.781  10.650  0.0325  0.2739 -0.0469
 2528TIP3    H129075   3.049   3.720  10.672 -1.6803  1.4566 -1.8526
 2528TIP3    H229076   3.145   3.757  10.561 -0.3980  1.8206 -0.6391
 2529TIP3   OH229077   5.342   6.374  11.167  0.2404 -0.0042  0.7470
 2529TIP3    H129078   5.363   6.442  11.231 -0.0151  0.9709 -0.1649
 2529TIP3    H229079   5.348   6.419  11.082 -3.1744 -0.1835  0.2556
 2530TIP3   OH229080   2.536   2.625  15.835 -0.2542 -0.7870 -0.3182
 2530TIP3    H129081   2.463   2.568  15.808  0.1668 -1.0279 -0.9825
 2530TIP3    H229082   2.503   2.714  15.824  0.4972 -0.8010 -3.5439
 2531TIP3   OH229083   3.880   1.023  15.357  0.3934  0.0585  0.0718
 2531TIP3    H129084   3.865   0.953  15.421 -0.8105  0.2239 -0.0104
 2531TIP3    H229085   3.806   1.017  15.297 -0.2184  1.9852  0.5745
 2532TIP3   OH229086   2.812   1.789   5.000 -0.0982  0.0403  0.0618
 2532TIP3    H129087   2.782   1.742   5.078 -3.6779  0.3662 -0.9616
 2532TIP3    H229088   2.799   1.881   5.021 -0.5057  0.1582 -0.6599
 2533TIP3   OH229089   5.978   3.539  16.436  0.0429  0.3977  0.6144
 2533TIP3    H129090   6.052   3.586  16.398 -0.5492  0.6462 -0.2552
 2533TIP3    H229091   5.933   3.500  16.361 -0.9292  0.5748  1.0869
 2534TIP3   OH229092   4.056   5.266  12.389  0.1081  0.1693 -0.0016
 2534TIP3    H129093   4.072   5.171  12.390  0.0259  0.1591  0.4275
 2534TIP3    H229094   4.108   5.300  12.462 -0.2077  0.3982  0.1188
 2535TIP3   OH229095   5.625   5.817  15.046 -0.1493  0.1180 -0.1489
 2535TIP3    H129096   5.596   5.729  15.070  0.9071 -1.1604 -3.0604
 2535TIP3    H229097   5.714   5.823  15.080 -0.1526 -0.0162 -0.1167
 2536TIP3   OH229098   4.088   2.414   2.272  0.2653  0.1750 -0.1187
 2536TIP3    H129099   4.126   2.339   2.227  0.6574  0.1221  0.2987
 2536TIP3    H229100   4.094   2.486   2.208  0.7610  0.0854 -0.1775
 2537TIP3   OH229101   3.417   5.351  13.399 -0.3154 -0.3719 -0.8992
 2537TIP3    H129102   3.336   5.359  13.448 -0.3628 -0.0248 -1.0325
 2537TIP3    H229103   3.486   5.356  13.466 -0.3672  0.4706 -0.9032
 2538TIP3   OH229104   5.859   2.646  14.233 -0.0645  0.1673 -0.1399
 2538TIP3    H129105   5.793   2.645  14.163  0.6965  1.1218 -0.9082
 2538TIP3    H229106   5.942   2.632  14.187  0.2530 -1.3780  0.8558
 2539TIP3   OH229107   6.642   0.270   0.820 -0.4685 -0.0563  0.2420
 2539TIP3    H129108   6.598   0.252   0.737  0.1449  0.9117 -0.3289
 2539TIP3    H229109   6.642   0.366   0.826  3.4027  0.2112 -0.9170
 2540TIP3   OH229110   3.916   2.231   4.889 -0.5024 -0.0916  0.5358
 2540TIP3    H129111   3.910   2.326   4.882 -0.6085 -0.0704  0.8866
 2540TIP3    H229112   3.987   2.207   4.829 -0.9254  0.1371 -0.0618
 2541TIP3   OH229113   2.119   2.408   1.365  0.0377  0.0401 -0.0488
 2541TIP3    H129114   2.151   2.324   1.330 -0.3765  0.1289 -0.6535
 2541TIP3    H229115   2.147   2.407   1.456  1.1850 -0.1778 -0.3763
 2542TIP3   OH229116   6.663   2.210  15.393  0.0440  0.4201 -0.1479
 2542TIP3    H129117   6.570   2.220  15.413  0.2924  1.5686  0.4984
 2542TIP3    H229118   6.689   2.131  15.440 -0.2870  0.9050  0.8950
 2543TIP3   OH229119   4.589   4.383   2.685 -0.1088 -0.0571 -0.2536
 2543TIP3    H129120   4.548   4.296   2.690 -0.1457  0.0348  1.8731
 2543TIP3    H229121   4.628   4.385   2.598 -1.8092 -1.4219 -1.1207
 2544TIP3   OH229122   3.083   5.882  10.948  0.5137 -0.2049  0.8305
 2544TIP3    H129123   3.141   5.875  10.871 -1.9655 -2.5835 -1.0156
 2544TIP3    H229124   3.000   5.915  10.912 -0.1325  0.5961  2.9240
 2545TIP3   OH229125   4.906   6.691  14.773  0.2690  0.4776  0.3255
 2545TIP3    H129126   4.811   6.694  14.788  0.1547  2.3905 -0.5370
 2545TIP3    H229127   4.929   6.780  14.748  2.2733 -0.0219  0.2528
 2546TIP3   OH229128   5.196   1.155  16.351  0.0581 -0.1661  0.3260
 2546TIP3    H129129   5.114   1.180  16.309  0.4323  2.1715  0.8204
 2546TIP3    H229130   5.171   1.130  16.440 -0.2781 -1.1743 -0.0361
 2547TIP3   OH229131   0.169   1.151  13.310 -0.5761  0.4133  0.4284
 2547TIP3    H129132   0.200   1.163  13.399 -0.4513 -1.8934  0.7558
 2547TIP3    H229133   0.084   1.108  13.319 -0.7128  0.4520 -0.5499
 2548TIP3   OH229134   2.566   2.756  10.373  0.8317 -0.0421  0.5655
 2548TIP3    H129135   2.554   2.847  10.401  1.5244  0.7039 -1.3305
 2548TIP3    H229136   2.478   2.721  10.364  0.5675  0.3034  1.7095
 2549TIP3   OH229137   6.838   3.849   2.524 -0.2992  0.5480  0.0459
 2549TIP3    H129138   6.894   3.869   2.450 -0.3568 -0.6371 -0.3408
 2549TIP3    H229139   6.755   3.821   2.484 -0.0255 -0.9973  0.5132
 2550TIP3   OH229140   3.329   0.318   2.272  0.4150  0.4886  0.1340
 2550TIP3    H129141   3.270   0.358   2.209  1.5745  1.0128 -0.6484
 2550TIP3    H229142   3.275   0.254   2.318 -0.6243  0.5834 -0.9095
 2551TIP3   OH229143   2.307   1.359   4.686 -0.2433  0.1635 -0.2697
 2551TIP3    H129144   2.317   1.439   4.634 -1.8356  0.3915 -0.2701
 2551TIP3    H229145   2.318   1.288   4.622 -1.5697  0.4356 -0.8348
 2552TIP3   OH229146   2.930   3.661   5.790 -0.2559  0.0226  0.4778
 2552TIP3    H129147   3.014   3.630   5.823 -0.9554 -0.1689  2.2174
 2552TIP3    H229148   2.908   3.601   5.719  0.7778 -0.3185  0.4367
 2553TIP3   OH229149   6.604   1.109  15.316 -0.3095 -0.1781 -0.1404
 2553TIP3    H129150   6.679   1.090  15.259  0.2724  0.5439  0.3675
 2553TIP3    H229151   6.616   1.200  15.342 -0.1107 -0.7030  1.7695
 2554TIP3   OH229152   1.437   2.836   2.969 -1.0768 -0.2743 -0.0072
 2554TIP3    H129153   1.522   2.803   2.996  0.2787  2.3314 -0.7249
 2554TIP3    H229154   1.381   2.823   3.045  1.1512  1.8680  2.1808
 2555TIP3   OH229155   5.445   4.246  12.325 -0.2737  0.0896 -0.6568
 2555TIP3    H129156   5.437   4.336  12.296 -1.6238  0.4735  0.7741
 2555TIP3    H229157   5.532   4.240  12.363 -1.2780  1.7613  2.1716
 2556TIP3   OH229158   4.330   3.369  14.939 -0.3795  0.6772 -0.3999
 2556TIP3    H129159   4.297   3.301  14.881 -0.9713 -0.0544  0.7657
 2556TIP3    H229160   4.417   3.339  14.964 -0.4479  0.5790 -0.2752
 2557TIP3   OH229161   4.224   2.871  15.928  0.3106  0.1717 -0.1591
 2557TIP3    H129162   4.198   2.827  15.847  0.7594  1.6623 -1.1508
 2557TIP3    H229163   4.216   2.965  15.908  2.0080  0.6055  0.9761
 2558TIP3   OH229164   4.026   6.589  10.977  0.3011  0.3229  0.5454
 2558TIP3    H129165   4.048   6.638  10.898  1.6977 -0.6285  0.3093
 2558TIP3    H229166   4.013   6.499  10.947 -0.8079  0.2451  1.1776
 2559TIP3   OH229167   5.786   4.001  16.699  0.1127  0.1102  0.1486
 2559TIP3    H129168   5.719   3.980  16.634  1.3944 -2.2472 -0.4999
 2559TIP3    H229169   5.862   4.030  16.648 -0.1541  2.3097  0.8611
 2560TIP3   OH229170   4.187   4.944   2.352  0.6123 -0.5116 -0.6161
 2560TIP3    H129171   4.253   4.997   2.397 -0.4856 -1.5400  2.4743
 2560TIP3    H229172   4.122   5.007   2.321  1.0372  0.2142 -0.0666
 2561TIP3   OH229173   4.372   5.225   4.719  0.8790  0.4106  0.1549
 2561TIP3    H129174   4.320   5.227   4.639  0.1285 -0.5466  0.5998
 2561TIP3    H229175   4.458   5.259   4.693 -0.1710  2.8178 -0.3956
 2562TIP3   OH229176   0.518   6.356   0.452 -0.7608 -0.0404 -0.0010
 2562TIP3    H129177   0.450   6.357   0.519 -1.0345  2.0671 -0.2262
 2562TIP3    H229178   0.512   6.442   0.411  3.4444  1.1424  1.3800
 2563TIP3   OH229179   3.185   0.762  12.050  0.6241 -0.1416  0.0125
 2563TIP3    H129180   3.187   0.676  12.091 -1.8178 -0.2858 -0.0310
 2563TIP3    H229181   3.247   0.755  11.977 -0.8796 -2.5154 -1.1504
 2564TIP3   OH229182   1.045   2.065   0.730  0.3600  0.5947 -0.2750
 2564TIP3    H129183   1.022   2.005   0.658 -0.3749 -0.4303  0.7744
 2564TIP3    H229184   0.979   2.134   0.725 -1.7181 -1.0966  1.2527
 2565TIP3   OH229185   2.349   0.324   0.119  0.3419 -0.0727 -0.3462
 2565TIP3    H129186   2.305   0.378   0.053  0.0481  0.7981  0.5308
 2565TIP3    H229187   2.322   0.363   0.203 -1.5357 -2.7675  0.4590
 2566TIP3   OH229188   6.585   0.607   1.188  0.0936  0.2843 -0.6089
 2566TIP3    H129189   6.638   0.676   1.149 -1.7143  1.7872 -0.5627
 2566TIP3    H229190   6.500   0.614   1.145 -1.3771  0.7020  2.1033
 2567TIP3   OH229191   0.746   5.644  13.965 -0.2034 -0.1766  0.2880
 2567TIP3    H129192   0.783   5.577  13.908 -0.1935  0.9361 -1.0621
 2567TIP3    H229193   0.814   5.711  13.970 -0.6455  0.2439  0.7308
 2568TIP3   OH229194   6.699   4.153   3.976  0.3305  0.7242 -0.1698
 2568TIP3    H129195   6.743   4.234   4.001  0.5012  1.3114 -2.2382
 2568TIP3    H229196   6.606   4.173   3.984  0.2875  1.9599 -2.8869
 2569TIP3   OH229197   6.535   6.323  15.706 -0.0742  0.6687  0.3040
 2569TIP3    H129198   6.605   6.336  15.642  0.2750  0.7344  0.6897
 2569TIP3    H229199   6.569   6.255  15.765 -1.6544 -1.7665 -1.3938
 2570TIP3   OH229200   5.411   2.655  13.789 -0.2128  0.0833 -0.1771
 2570TIP3    H129201   5.331   2.662  13.842  0.9542 -0.5419  1.7566
 2570TIP3    H229202   5.469   2.723  13.825  0.3020  0.2467 -1.2815
 2571TIP3   OH229203   4.154   1.270  13.031 -0.1650 -0.3670 -0.6058
 2571TIP3    H129204   4.160   1.366  13.030 -1.7685 -0.2376 -0.0191
 2571TIP3    H229205   4.066   1.252  13.064  0.6729 -2.0685  0.8597
 2572TIP3   OH229206   2.670   1.560  13.854 -0.1095  0.7090  0.0575
 2572TIP3    H129207   2.753   1.605  13.867  0.7925 -1.3339  2.1719
 2572TIP3    H229208   2.620   1.577  13.934 -0.3495 -0.6945  0.2435
 2573TIP3   OH229209   3.742   4.032   3.428 -0.1976 -0.5863 -0.2190
 2573TIP3    H129210   3.687   4.032   3.507 -0.5114 -1.6778 -0.4190
 2573TIP3    H229211   3.734   3.943   3.394  0.6524 -0.3766 -0.9911
 2574TIP3   OH229212   1.145   1.810   6.068 -0.0545  0.6366  0.4380
 2574TIP3    H129213   1.190   1.828   6.151  0.8578  2.0963 -0.3309
 2574TIP3    H229214   1.084   1.740   6.089  1.2376 -0.1030  1.9926
 2575TIP3   OH229215   0.584   3.598   2.984  0.2804 -0.4150  0.9807
 2575TIP3    H129216   0.604   3.577   3.076 -0.7277 -0.0110  1.3042
 2575TIP3    H229217   0.498   3.640   2.987  0.8055  0.7897 -0.0034
 2576TIP3   OH229218   5.823   0.510   2.068  0.3814  0.3050 -0.0272
 2576TIP3    H129219   5.760   0.514   2.139  0.6066  0.1753  0.1826
 2576TIP3    H229220   5.908   0.513   2.112  0.6041 -3.0359 -0.0320
 2577TIP3   OH229221   2.454   0.407   0.505 -0.2998  0.4200 -0.0987
 2577TIP3    H129222   2.492   0.429   0.590  2.7140 -0.7985 -1.0183
 2577TIP3    H229223   2.446   0.491   0.460  1.4940  0.7381  0.1031
 2578TIP3   OH229224   2.667   2.035  16.364 -0.1336  0.3575  0.2483
 2578TIP3    H129225   2.599   2.096  16.396 -1.9057 -1.7716  0.7959
 2578TIP3    H229226   2.730   2.029  16.436 -0.4357  0.8328  0.5604
 2579TIP3   OH229227   5.460   4.105   0.387  0.4286  0.4480  0.2195
 2579TIP3    H129228   5.404   4.038   0.348  3.2187 -1.3005 -1.1028
 2579TIP3    H229229   5.510   4.140   0.314  2.0408  0.9442  1.4983
 2580TIP3   OH229230   3.177   4.710   4.000  0.1582 -0.2459  0.3613
 2580TIP3    H129231   3.144   4.721   3.910 -2.4106 -1.1792  1.0941
 2580TIP3    H229232   3.121   4.765   4.053 -0.2338 -1.8403  1.6966
 2581TIP3   OH229233   3.052   1.808  16.799  0.2264 -0.5637 -0.9149
 2581TIP3    H129234   3.000   1.755  16.737 -0.8430 -0.0332 -0.5053
 2581TIP3    H229235   3.015   1.788  16.885 -0.6174  1.2541 -0.8032
 2582TIP3   OH229236   4.263   1.712  14.795  0.3198  0.0614 -0.0323
 2582TIP3    H129237   4.295   1.645  14.734  0.2748  0.3328 -0.3546
 2582TIP3    H229238   4.264   1.669  14.880 -2.6877 -1.4128 -0.6225
 2583TIP3   OH229239   1.120   4.625  17.118  0.3443 -0.3006  0.1881
 2583TIP3    H129240   1.063   4.633  17.042  0.4943  1.0168  0.1869
 2583TIP3    H229241   1.181   4.555  17.095 -0.8672 -1.3229 -0.0465
 2584TIP3   OH229242   3.764   4.491  14.293 -0.4455 -0.1168  0.4078
 2584TIP3    H129243   3.760   4.407  14.339 -0.7754 -0.3741 -0.0852
 2584TIP3    H229244   3.703   4.482  14.220 -0.0546  0.3487  0.0139
 2585TIP3   OH229245   6.535   6.594   5.669  0.2882  0.3270  0.1089
 2585TIP3    H129246   6.608   6.593   5.732  0.1377  1.4781  0.3202
 2585TIP3    H229247   6.498   6.506   5.675  0.9651  0.0714  0.8179
 2586TIP3   OH229248   6.102   1.095   2.023  0.2156  0.4072  0.7388
 2586TIP3    H129249   6.026   1.114   1.968 -0.0751 -0.6045  0.7747
 2586TIP3    H229250   6.080   1.014   2.068  2.8626 -2.4070 -2.4068
 2587TIP3   OH229251   1.785   1.378   2.057  0.4391 -0.2191  0.3376
 2587TIP3    H129252   1.718   1.327   2.011 -0.5805  0.4728  1.0005
 2587TIP3    H229253   1.828   1.429   1.988 -0.6333  0.3244  0.0505
 2588TIP3   OH229254   1.278   1.279   4.287  0.4693 -0.1697 -0.0484
 2588TIP3    H129255   1.194   1.314   4.255 -0.5612 -3.1973 -1.0420
 2588TIP3    H229256   1.285   1.311   4.377 -0.9911  1.3889 -0.4380
 2589TIP3   OH229257   5.508   6.350  14.257  0.6218  0.3233 -0.0108
 2589TIP3    H129258   5.437   6.410  14.281  0.0566 -1.3197  2.8951
 2589TIP3    H229259   5.463   6.271  14.226  1.2863  0.3212 -1.0100
 2590TIP3   OH229260   4.481   6.405  16.234  0.0975 -0.1232 -0.3474
 2590TIP3    H129261   4.515   6.325  16.196 -0.3644  0.0977 -1.2431
 2590TIP3    H229262   4.390   6.410  16.204  0.7444  1.8825 -2.2133
 2591TIP3   OH229263   2.580   1.505  16.658 -0.6707 -0.6399  0.6724
 2591TIP3    H129264   2.489   1.534  16.646 -0.5602 -0.9777 -1.2726
 2591TIP3    H229265   2.602   1.532  16.747 -2.6479 -0.4706  1.1640
 2592TIP3   OH229266   2.425   5.399  10.617 -0.3452 -0.1784  0.0027
 2592TIP3    H129267   2.348   5.377  10.564 -2.0709  0.4864  2.0757
 2592TIP3    H229268   2.441   5.491  10.600  1.0681 -0.6602 -1.6164
 2593TIP3   OH229269   3.407   3.382  14.381  0.4485 -0.4896 -0.2032
 2593TIP3    H129270   3.369   3.458  14.425  0.3620 -0.1643 -0.8396
 2593TIP3    H229271   3.336   3.346  14.329  0.4025 -1.1965  0.3290
 2594TIP3   OH229272   1.575   0.164  13.557 -0.2057  0.0699  0.1186
 2594TIP3    H129273   1.504   0.100  13.547  0.2851 -0.4288 -0.2093
 2594TIP3    H229274   1.655   0.112  13.553  0.2526  0.8499 -1.4375
 2595TIP3   OH229275   5.051   1.117   1.062 -0.0131 -0.6162 -0.0470
 2595TIP3    H129276   4.986   1.088   1.126  1.0469  0.3772  1.5160
 2595TIP3    H229277   5.043   1.212   1.061  0.4331 -0.5761 -0.9344
 2596TIP3   OH229278   2.075   2.454   6.368 -0.3013  0.9231  0.1749
 2596TIP3    H129279   2.107   2.404   6.293 -0.8951  0.3937  0.2749
 2596TIP3    H229280   2.061   2.389   6.437 -4.0057  0.7072 -0.6142
 2597TIP3   OH229281   6.067   6.003   1.928 -0.2596 -0.7375  0.0843
 2597TIP3    H129282   6.049   5.983   2.020  0.9912 -2.1380  0.0672
 2597TIP3    H229283   5.997   5.958   1.880 -0.5580 -0.5242  0.3140
 2598TIP3   OH229284   3.460   1.562  15.525 -0.2034  0.1607 -0.2912
 2598TIP3    H129285   3.412   1.564  15.608 -0.9955  0.4265 -0.7527
 2598TIP3    H229286   3.456   1.470  15.498  0.1380  0.0544  0.0032
 2599TIP3   OH229287   2.175   1.446  13.841 -0.2508 -0.1932  0.3407
 2599TIP3    H129288   2.220   1.525  13.811  0.4771 -0.6702  0.1382
 2599TIP3    H229289   2.154   1.398  13.760 -0.4534 -0.3311  0.4727
 2600TIP3   OH229290   3.839   5.661   0.821 -0.5294 -0.2894  0.1440
 2600TIP3    H129291   3.859   5.569   0.837  0.6108 -0.0643  0.1258
 2600TIP3    H229292   3.782   5.686   0.893  1.0069 -0.4359  1.4881
 2601TIP3   OH229293   2.529   6.781  13.011  0.2474  0.2015  0.1803
 2601TIP3    H129294   2.512   6.702  12.959 -0.6098 -0.8124  1.8889
 2601TIP3    H229295   2.623   6.778  13.029  0.3892  0.0885 -0.5295
 2602TIP3   OH229296   3.439   1.749  14.271  0.0548  0.6096  0.2855
 2602TIP3    H129297   3.497   1.820  14.299  2.0265 -1.1329  0.9392
 2602TIP3    H229298   3.435   1.691  14.347  1.5824 -1.8238 -1.3436
 2603TIP3   OH229299   5.838   2.968  13.064 -0.3367 -0.1159  0.1576
 2603TIP3    H129300   5.927   2.939  13.084  0.3789  1.4682 -0.6360
 2603TIP3    H229301   5.843   3.002  12.975 -1.5703  0.6851  0.3759
 2604TIP3   OH229302   3.768   1.781   1.527 -0.1726  0.5371  0.3657
 2604TIP3    H129303   3.811   1.862   1.499  1.7907 -0.7760 -0.5882
 2604TIP3    H229304   3.797   1.768   1.617 -0.6106  0.9483  0.5718
 2605TIP3   OH229305   1.851   5.896  10.861 -0.0653 -0.2289  0.4702
 2605TIP3    H129306   1.855   5.822  10.801 -1.5606  0.4377 -0.5219
 2605TIP3    H229307   1.800   5.962  10.814 -0.3723  0.7209  2.0606
 2606TIP3   OH229308   5.694   0.241  15.563  0.5871 -0.3762  0.0314
 2606TIP3    H129309   5.741   0.315  15.525 -1.3374  1.2237  0.5720
 2606TIP3    H229310   5.762   0.188  15.605  2.2398  0.0475 -1.9521
 2607TIP3   OH229311   5.412   4.335  10.881  0.4489 -0.1650  0.2563
 2607TIP3    H129312   5.344   4.360  10.945  0.7339  1.0619  0.1130
 2607TIP3    H229313   5.439   4.247  10.908 -2.4388 -1.4898 -0.7541
 2608TIP3   OH229314   3.123   1.317  13.805 -0.2294  0.3036  0.3179
 2608TIP3    H129315   3.096   1.357  13.722 -2.4773  2.8646  2.1171
 2608TIP3    H229316   3.204   1.270  13.783 -0.2203  1.6014 -3.1068
 2609TIP3   OH229317   2.670   0.001  12.190  0.2336 -0.0038 -0.4615
 2609TIP3    H129318   2.655  -0.089  12.163 -2.5992 -0.0139  0.9006
 2609TIP3    H229319   2.674   0.050  12.107 -0.4903 -1.0607 -1.1432
 2610TIP3   OH229320   6.581   2.001   0.427 -0.1253  0.2085  0.0966
 2610TIP3    H129321   6.580   2.095   0.444 -0.1891  0.6232 -1.9345
 2610TIP3    H229322   6.672   1.982   0.402 -0.6477  0.2730 -2.0060
 2611TIP3   OH229323   1.720   5.885   2.674 -0.1040 -0.0463  0.3297
 2611TIP3    H129324   1.777   5.962   2.670 -0.3475  0.1518  0.5569
 2611TIP3    H229325   1.777   5.811   2.654 -0.2846  0.3754 -1.9198
 2612TIP3   OH229326   0.100   0.303   4.779  0.2127 -0.2531  0.1479
 2612TIP3    H129327   0.027   0.365   4.791 -0.9178 -1.1713 -1.5531
 2612TIP3    H229328   0.143   0.333   4.699 -0.9103 -2.1136 -1.2322
 2613TIP3   OH229329   4.763   4.490   5.527 -0.0846 -0.1924 -0.6203
 2613TIP3    H129330   4.815   4.568   5.507 -0.1952 -0.0346 -0.2999
 2613TIP3    H229331   4.827   4.419   5.530  0.0488 -0.0767 -0.6752
 2614TIP3   OH229332   1.784   1.208   5.740  0.2708  0.0241 -0.4784
 2614TIP3    H129333   1.732   1.280   5.706  0.2813  0.4875  0.4509
 2614TIP3    H229334   1.725   1.161   5.798  0.4411 -0.3618 -0.6119
 2615TIP3   OH229335   4.807   4.666   3.091 -0.0375 -0.0868  0.3060
 2615TIP3    H129336   4.758   4.627   3.164  1.3990 -2.0445  0.3073
 2615TIP3    H229337   4.785   4.612   3.016  0.5716  0.2550 -0.1266
 2616TIP3   OH229338   2.339   2.557  13.234 -0.6280  0.0929 -0.2876
 2616TIP3    H129339   2.332   2.511  13.151 -0.4769 -1.3998  0.5014
 2616TIP3    H229340   2.254   2.543  13.277  0.1286 -1.2674  0.8464
 2617TIP3   OH229341   4.958   4.632   5.248 -0.1850 -0.4005  0.1750
 2617TIP3    H129342   4.980   4.548   5.209 -0.0318  0.0215 -0.6628
 2617TIP3    H229343   5.005   4.633   5.331 -0.2124 -1.1468  0.2061
 2618TIP3   OH229344   5.007   3.338  14.634  0.1338  0.2076 -0.0983
 2618TIP3    H129345   4.979   3.313  14.722 -1.3322  0.1419 -0.5521
 2618TIP3    H229346   4.965   3.423  14.619 -0.1255 -0.0563 -0.9444
 2619TIP3   OH229347   0.911   3.205   5.885 -0.3705 -0.4436  0.2327
 2619TIP3    H129348   0.933   3.283   5.833 -0.4657 -0.1588  0.6189
 2619TIP3    H229349   0.995   3.174   5.919 -0.2448 -0.9135 -0.4793
 2620TIP3   OH229350   5.341   2.234   5.767  0.2753  0.5208  0.4980
 2620TIP3    H129351   5.348   2.208   5.859  0.6163 -4.1023 -0.5755
 2620TIP3    H229352   5.397   2.172   5.720 -0.2978  2.3321 -2.9261
 2621TIP3   OH229353   4.504   4.115   3.540 -0.8475 -0.3387 -0.0225
 2621TIP3    H129354   4.571   4.183   3.551 -1.4994  0.4272 -0.7022
 2621TIP3    H229355   4.535   4.043   3.596 -0.1118  0.4788  0.6709
 2622TIP3   OH229356   3.776   4.935  16.824  0.0010  0.2020 -0.6977
 2622TIP3    H129357   3.867   4.906  16.829 -0.1273 -0.3027 -1.1113
 2622TIP3    H229358   3.732   4.867  16.772 -0.1716  1.5121 -2.3543
 2623TIP3   OH229359   6.069   3.267  11.922  0.4889  0.2070 -0.0308
 2623TIP3    H129360   6.139   3.278  11.857 -0.6238  1.2556 -1.1015
 2623TIP3    H229361   6.071   3.349  11.972  1.7187 -0.8271  1.6929
 2624TIP3   OH229362   0.304   1.442  14.206  0.1343 -0.6057  0.6189
 2624TIP3    H129363   0.389   1.399  14.221 -0.0125 -0.8025  0.8812
 2624TIP3    H229364   0.255   1.379  14.153 -0.0192 -0.6840  0.8580
 2625TIP3   OH229365   2.851   6.055  14.781 -0.3274  0.3244 -0.2070
 2625TIP3    H129366   2.890   6.014  14.859 -1.9585  2.3984  1.8309
 2625TIP3    H229367   2.836   5.982  14.721  1.3675 -1.3080  1.2242
 2626TIP3   OH229368   1.715   0.860  12.900  0.0373  0.7627 -0.1745
 2626TIP3    H129369   1.684   0.779  12.941  0.3432  1.3705  1.3573
 2626TIP3    H229370   1.653   0.927  12.929  0.6690  1.3352 -0.1092
 2627TIP3   OH229371   1.361   3.580  10.693  0.3177 -0.2200  0.0400
 2627TIP3    H129372   1.291   3.642  10.710  1.6940  1.1091  1.1269
 2627TIP3    H229373   1.413   3.620  10.623 -0.0436 -1.2515 -0.8525
 2628TIP3   OH229374   2.457   4.088   5.659 -0.3418  0.3327 -0.5952
 2628TIP3    H129375   2.516   4.048   5.595  0.0576 -1.6145  0.8919
 2628TIP3    H229376   2.516   4.130   5.722 -0.6275 -0.0015 -0.1046
 2629TIP3   OH229377   3.378   1.405   3.893 -0.6259 -0.3076  0.1673
 2629TIP3    H129378   3.465   1.403   3.852 -0.1994 -2.2816  1.0227
 2629TIP3    H229379   3.342   1.490   3.869  0.5724 -0.3842 -2.2255
 2630TIP3   OH229380   5.128   2.720   0.786 -0.4225  0.3329 -0.5427
 2630TIP3    H129381   5.113   2.679   0.701  0.7116 -1.0801 -0.1096
 2630TIP3    H229382   5.068   2.674   0.845 -0.4339  0.5546 -0.3828
 2631TIP3   OH229383   0.184   0.555  13.414  0.0043 -0.3168 -0.3198
 2631TIP3    H129384   0.200   0.607  13.336 -0.9613  0.7063  0.1366
 2631TIP3    H229385   0.271   0.545  13.455  0.1849  1.1597 -0.2935
 2632TIP3   OH229386   1.089   0.854   3.918  0.6504 -0.3480  0.3023
 2632TIP3    H129387   1.163   0.810   3.960 -0.0813 -0.3200  1.6975
 2632TIP3    H229388   1.127   0.935   3.884  1.6419 -1.2230 -0.7345
 2633TIP3   OH229389   5.035   2.153   0.171  0.2951  0.0624  0.4636
 2633TIP3    H129390   5.004   2.114   0.089  0.6491  1.1751 -0.2193
 2633TIP3    H229391   5.122   2.187   0.150 -0.0148  1.2267  1.0120
 2634TIP3   OH229392   4.885   3.150  11.523  0.5574 -0.1002  0.0011
 2634TIP3    H129393   4.954   3.132  11.586  0.5282 -0.8840 -0.1780
 2634TIP3    H229394   4.809   3.174  11.576  0.7023 -0.1540  0.2333
 2635TIP3   OH229395   4.038   6.037   4.971 -0.0664 -0.4015  0.4296
 2635TIP3    H129396   4.035   6.058   4.878 -1.2943 -2.0838  0.0437
 2635TIP3    H229397   3.977   6.100   5.011 -0.9395 -0.8258 -0.1857
 2636TIP3   OH229398   4.541   4.591  12.884 -0.0802  0.0452 -0.1161
 2636TIP3    H129399   4.598   4.574  12.958 -0.3651 -1.7571 -0.2765
 2636TIP3    H229400   4.594   4.643  12.824  2.1860 -3.1785 -1.1670
 2637TIP3   OH229401   3.659   0.780  16.884  0.1720  0.1560  0.2013
 2637TIP3    H129402   3.604   0.842  16.836 -0.0128 -0.2027 -0.0578
 2637TIP3    H229403   3.694   0.721  16.816  0.7861  0.3100  0.3720
 2638TIP3   OH229404   5.511   2.413   0.535 -0.5375  0.5227  0.2166
 2638TIP3    H129405   5.456   2.481   0.573 -0.1330 -0.5367  2.8860
 2638TIP3    H229406   5.571   2.460   0.477 -2.0646  2.0606 -0.1747
 2639TIP3   OH229407   2.991   0.783  11.517 -0.1807 -0.3684 -0.0050
 2639TIP3    H129408   2.962   0.692  11.517 -1.1261 -0.0872 -0.0882
 2639TIP3    H229409   2.919   0.830  11.474  0.0117  0.4937  0.5968
 2640TIP3   OH229410   0.817   6.318  13.816 -0.6970  0.5142  0.0783
 2640TIP3    H129411   0.853   6.323  13.727  0.8881  0.7686  0.7062
 2640TIP3    H229412   0.805   6.224  13.831 -0.8294  0.4606 -0.3401
 2641TIP3   OH229413   3.178   1.798  15.578 -0.2239 -0.0337  0.2072
 2641TIP3    H129414   3.171   1.702  15.582  1.6016 -0.4571 -2.8986
 2641TIP3    H229415   3.262   1.813  15.535 -1.1307  2.9379 -0.7345
 2642TIP3   OH229416   4.847   3.539   5.967  0.0311 -0.2442  0.2868
 2642TIP3    H129417   4.842   3.446   5.945  0.8724  0.2597 -2.3418
 2642TIP3    H229418   4.941   3.555   5.980 -0.0380  0.3728  0.0461
 2643TIP3   OH229419   4.648   3.704   5.914  0.6489 -0.7223  0.3138
 2643TIP3    H129420   4.585   3.666   5.852  0.3221 -1.9566  1.3406
 2643TIP3    H229421   4.722   3.643   5.912  1.7526  0.5987 -0.7161
 2644TIP3   OH229422   6.686   6.342   3.927  0.0860  0.3475  0.6785
 2644TIP3    H129423   6.724   6.321   3.842 -1.4958  0.7490 -0.1633
 2644TIP3    H229424   6.747   6.403   3.967  1.1261 -0.2811  0.0829
 2645TIP3   OH229425   4.807   1.744  12.794  0.3563 -0.5632 -0.1908
 2645TIP3    H129426   4.783   1.816  12.852 -0.4258  0.3481 -1.5869
 2645TIP3    H229427   4.892   1.713  12.827  2.2904  3.0258 -1.3030
 2646TIP3   OH229428   3.033   1.150  15.042  0.3580 -0.3548 -0.2972
 2646TIP3    H129429   3.067   1.236  15.020 -1.3128  0.7531  1.2234
 2646TIP3    H229430   3.097   1.114  15.104  1.5168 -0.6357 -1.6048
 2647TIP3   OH229431   3.000   2.344   2.032  0.0044  0.6918 -0.2639
 2647TIP3    H129432   3.012   2.417   1.971 -1.5791  2.3450  1.2924
 2647TIP3    H229433   2.920   2.366   2.080  0.1684 -1.4803  1.1227
 2648TIP3   OH229434   2.607   5.491  15.942 -0.2193 -0.0466 -0.2130
 2648TIP3    H129435   2.521   5.526  15.917  0.0030 -0.0708 -1.0590
 2648TIP3    H229436   2.622   5.524  16.030 -0.9142  0.3116 -0.2234
 2649TIP3   OH229437   3.676   6.807  15.384  0.4329 -0.1126 -0.0618
 2649TIP3    H129438   3.718   6.723  15.364 -0.4201 -0.3731 -0.8031
 2649TIP3    H229439   3.729   6.872  15.337  0.2670 -0.3939 -0.6482
 2650TIP3   OH229440   0.170   1.754   2.056 -0.2139  0.1402  0.1883
 2650TIP3    H129441   0.127   1.672   2.031  0.5341 -0.2653  0.2129
 2650TIP3    H229442   0.262   1.731   2.069 -0.2379  0.6826  1.5746
 2651TIP3   OH229443   6.364   6.757  15.025  0.2770  0.0216 -0.6491
 2651TIP3    H129444   6.312   6.778  14.947 -2.8010  2.0439  1.7063
 2651TIP3    H229445   6.321   6.680  15.062  0.4950  0.2331  0.0577
 2652TIP3   OH229446   4.280   6.849  16.845  0.4396 -0.0326  0.4920
 2652TIP3    H129447   4.196   6.895  16.834  0.9986  0.8479 -0.2999
 2652TIP3    H229448   4.256   6.759  16.867 -0.7461 -0.1582 -1.1288
 2653TIP3   OH229449   0.177   3.716   0.312 -0.3052  0.0913 -0.0445
 2653TIP3    H129450   0.265   3.716   0.350 -0.4028  0.1370  0.1788
 2653TIP3    H229451   0.123   3.671   0.376 -0.0831 -1.6887 -1.0386
 2654TIP3   OH229452   0.999   3.836   7.059  0.2744 -0.0790 -0.2348
 2654TIP3    H129453   1.027   3.862   6.972 -1.1171  0.0901 -0.6608
 2654TIP3    H229454   0.909   3.807   7.048  0.0887 -0.1229  1.1371
 2655TIP3   OH229455   5.490   2.746   5.177 -0.2007  0.1652  0.3077
 2655TIP3    H129456   5.534   2.691   5.112 -1.1531  1.5285 -1.6076
 2655TIP3    H229457   5.541   2.828   5.176 -0.3967  0.2973  1.0732
 2656TIP3   OH229458   2.632   6.027   0.641 -0.2488  0.1466  0.0946
 2656TIP3    H129459   2.713   6.050   0.685 -0.1152  0.2833 -0.2185
 2656TIP3    H229460   2.586   6.110   0.627  0.6575  0.3882 -1.8624
 2657TIP3   OH229461   0.596   0.644  15.642 -0.3154 -0.1108 -0.3628
 2657TIP3    H129462   0.613   0.550  15.643  2.6572  0.3336 -0.4119
 2657TIP3    H229463   0.619   0.675  15.729  0.3558  0.7836 -0.8328
 2658TIP3   OH229464   0.927   6.356  15.149  0.4580  0.1185 -0.1057
 2658TIP3    H129465   0.948   6.284  15.089 -0.6459 -0.5030  0.2423
 2658TIP3    H229466   0.868   6.412  15.098 -0.1087 -0.1680  0.2234
 2659TIP3   OH229467   3.953   2.688  14.927  0.4373  0.0235 -0.1569
 2659TIP3    H129468   4.012   2.613  14.914  1.4894  0.6384  0.9473
 2659TIP3    H229469   3.953   2.733  14.842 -1.4664 -2.0451 -1.3696
 2660TIP3   OH229470   6.404   4.194   4.606 -0.2422 -0.6429 -0.2523
 2660TIP3    H129471   6.473   4.199   4.673 -0.1356 -1.9638 -0.2292
 2660TIP3    H229472   6.395   4.283   4.574  1.9694 -0.5243 -0.7151
 2661TIP3   OH229473   0.534   5.062   0.005 -0.0276 -0.5874  0.1473
 2661TIP3    H129474   0.568   5.054   0.094 -0.6534 -1.4301  0.3226
 2661TIP3    H229475   0.611   5.050  -0.051  0.5593  0.9658  0.5610
 2662TIP3   OH229476   6.300   2.435   2.372 -0.1091  0.5368 -0.0655
 2662TIP3    H129477   6.248   2.355   2.364 -1.4652  1.3873 -0.1108
 2662TIP3    H229478   6.264   2.479   2.449 -0.2631  1.7263 -0.8012
 2663TIP3   OH229479   3.948   5.353  11.709  0.2766  0.2474 -0.3103
 2663TIP3    H129480   3.960   5.259  11.697  1.6370  0.3158  0.4123
 2663TIP3    H229481   3.908   5.361  11.796  0.4386  0.3560 -0.2463
 2664TIP3   OH229482   3.528   5.900   2.927 -0.5004  0.0060  0.1214
 2664TIP3    H129483   3.506   5.935   3.013 -0.7659 -1.0194  0.4830
 2664TIP3    H229484   3.517   5.806   2.936  2.5816 -0.4920 -0.0925
 2665TIP3   OH229485   2.745   5.055  12.947 -0.2601 -0.5259 -0.4661
 2665TIP3    H129486   2.727   5.033  12.856 -0.1735 -0.6507 -0.4542
 2665TIP3    H229487   2.693   5.134  12.964  1.9540  1.2694 -1.4926
 2666TIP3   OH229488   4.252   5.012   1.725 -0.1767  0.2799 -0.3448
 2666TIP3    H129489   4.272   4.919   1.728  0.5536  0.3217 -2.3635
 2666TIP3    H229490   4.179   5.023   1.786  0.5520 -1.3543  0.9089
 2667TIP3   OH229491   4.566   5.874   2.679  0.3095 -0.4287  0.3583
 2667TIP3    H129492   4.601   5.859   2.591 -2.0940 -0.3687 -0.6816
 2667TIP3    H229493   4.609   5.954   2.709  0.6401 -0.0514 -1.0677
 2668TIP3   OH229494   5.756   6.585  16.975  0.2217  0.0859  0.0656
 2668TIP3    H129495   5.774   6.509  17.031  0.2437 -0.5370 -0.7771
 2668TIP3    H229496   5.661   6.597  16.981  0.2739  0.2850  0.5603
 2669TIP3   OH229497   4.280   4.286   5.765  0.2241 -0.0142  0.3953
 2669TIP3    H129498   4.211   4.290   5.831  0.4809 -0.6866  0.7137
 2669TIP3    H229499   4.240   4.322   5.686 -0.5608 -0.6036  0.5167
 2670TIP3   OH229500   2.419   0.905  14.779 -0.0568  0.0488 -0.4251
 2670TIP3    H129501   2.347   0.887  14.839 -0.0281 -1.1349 -0.7248
 2670TIP3    H229502   2.444   0.996  14.797 -0.4803 -0.0814  0.8753
 2671TIP3   OH229503   4.963   1.987   4.239 -0.2642 -0.0659 -0.4680
 2671TIP3    H129504   5.044   1.975   4.290 -0.7888 -0.2756  0.3400
 2671TIP3    H229505   4.935   2.076   4.260  0.4724  0.5062 -1.8220
 2672TIP3   OH229506   4.836   5.935  14.557 -0.2009 -0.3381 -0.5781
 2672TIP3    H129507   4.745   5.907  14.548 -0.0708 -1.6045  1.2965
 2672TIP3    H229508   4.836   5.993  14.633  0.5679 -0.4197 -0.5074
 2673TIP3   OH229509   6.502   3.257   5.601  0.4553  0.1169  0.2960
 2673TIP3    H129510   6.458   3.173   5.591 -0.7365  0.4441  2.2255
 2673TIP3    H229511   6.433   3.322   5.597  1.0278  0.8133  1.2163
 2674TIP3   OH229512   3.147   5.558   4.832  0.0930  0.0141  0.2263
 2674TIP3    H129513   3.101   5.506   4.766  1.0312 -0.3548 -0.1555
 2674TIP3    H229514   3.220   5.503   4.859  0.6485  0.8175  0.3963
 2675TIP3   OH229515   4.643   3.204  13.735  0.1372  0.7070 -0.3397
 2675TIP3    H129516   4.560   3.236  13.699  0.5366  3.5329  0.9649
 2675TIP3    H229517   4.618   3.152  13.812 -0.4478  0.5131 -0.6550
 2676TIP3   OH229518   1.802   1.497  16.029 -0.0828  0.2940  0.7234
 2676TIP3    H129519   1.731   1.522  16.088 -1.0100  1.2056 -0.6862
 2676TIP3    H229520   1.843   1.581  16.005  0.6778 -0.1176  0.5629
 2677TIP3   OH229521   1.564   5.562   5.050 -0.4219  0.5293  0.2170
 2677TIP3    H129522   1.643   5.603   5.016 -0.5263  1.7805  1.3983
 2677TIP3    H229523   1.539   5.616   5.125 -2.2249 -0.0204  0.0653
 2678TIP3   OH229524   2.246   4.958  11.608 -0.4528  0.0645 -0.0791
 2678TIP3    H129525   2.249   5.036  11.664  0.1606 -0.6883  0.9812
 2678TIP3    H229526   2.246   4.993  11.519 -1.1774  1.2999  0.3720
 2679TIP3   OH229527   3.503   1.802   2.997 -0.3559  0.3539  0.4402
 2679TIP3    H129528   3.595   1.823   3.009 -0.6146  1.0803  1.2408
 2679TIP3    H229529   3.463   1.816   3.083 -1.1352 -0.3907  0.2233
 2680TIP3   OH229530   6.107   1.498  11.358  0.1832  0.2086  0.0007
 2680TIP3    H129531   6.167   1.518  11.286  0.6566  1.6602  0.7653
 2680TIP3    H229532   6.155   1.522  11.437 -0.5043 -0.9256  0.7894
 2681TIP3   OH229533   2.364   1.843  11.416 -0.1054 -0.0677 -0.0941
 2681TIP3    H129534   2.303   1.878  11.351 -0.5730 -1.5484 -0.4921
 2681TIP3    H229535   2.308   1.800  11.481  0.4810 -1.1015 -0.2568
 2682TIP3   OH229536   1.761   0.982   6.329 -0.3022  0.7074  0.1067
 2682TIP3    H129537   1.854   1.000   6.339 -0.6976  2.6075  0.8082
 2682TIP3    H229538   1.735   0.940   6.411 -0.0371 -0.0515 -0.1876
 2683TIP3   OH229539   3.867   5.515  12.179  0.2240  0.2380 -0.1315
 2683TIP3    H129540   3.817   5.593  12.204  2.3004  1.2278  1.2652
 2683TIP3    H229541   3.844   5.451  12.246 -0.1474  0.2521 -0.2435
 2684TIP3   OH229542   0.260   3.365   4.336  0.1491 -0.0611 -0.0778
 2684TIP3    H129543   0.251   3.397   4.246  0.9928 -1.3924 -0.6644
 2684TIP3    H229544   0.349   3.331   4.341 -0.3818 -1.4230  0.7762
 2685TIP3   OH229545   1.083   5.883   5.881  0.5600  0.4838  0.3511
 2685TIP3    H129546   1.127   5.802   5.906  1.8614  0.6014 -1.3699
 2685TIP3    H229547   1.154   5.945   5.867  0.2956 -0.0003 -5.0249
 2686TIP3   OH229548   0.033   3.143  16.436  0.0923  0.4527 -1.0380
 2686TIP3    H129549  -0.050   3.102  16.414  0.6468 -0.7596 -0.9500
 2686TIP3    H229550   0.098   3.074  16.422  0.9909  1.1481 -0.3798
 2687TIP3   OH229551   1.020   2.418  12.573 -0.7176  0.4747  0.0500
 2687TIP3    H129552   1.076   2.349  12.608  0.3572  1.5743  0.5443
 2687TIP3    H229553   1.061   2.444  12.491  0.3318  2.2512  1.0929
 2688TIP3   OH229554   6.283   2.741  12.119 -0.7735  0.2267  0.5050
 2688TIP3    H129555   6.359   2.755  12.063  0.1782 -1.5085  1.2762
 2688TIP3    H229556   6.308   2.777  12.204 -1.2244  0.5689  0.4991
 2689TIP3   OH229557   1.618   6.622   0.508 -0.3631 -0.4162  0.8535
 2689TIP3    H129558   1.605   6.544   0.453 -1.5140 -0.3087  0.9379
 2689TIP3    H229559   1.696   6.664   0.472 -1.3956 -0.0349 -1.1338
 2690TIP3   OH229560   2.847   6.342   0.007 -0.0503  0.2907  0.1833
 2690TIP3    H129561   2.824   6.283  -0.065 -0.1298  0.4198  0.1014
 2690TIP3    H229562   2.793   6.420  -0.008 -0.1013  0.2986  0.4099
 2691TIP3   OH229563   3.527   4.003   0.248  0.1973 -0.1010  0.0477
 2691TIP3    H129564   3.462   4.064   0.282  1.7386  1.2877  0.5760
 2691TIP3    H229565   3.587   3.987   0.320 -0.5171 -2.8701  0.1785
 2692TIP3   OH229566   5.574   6.797  14.264 -0.3121 -0.1088  0.7072
 2692TIP3    H129567   5.632   6.736  14.218 -2.0399  0.4942 -2.6207
 2692TIP3    H229568   5.516   6.741  14.315 -1.0424 -1.2687 -1.2730
 2693TIP3   OH229569   4.174   5.337   4.864  0.1751  0.1826 -0.1413
 2693TIP3    H129570   4.190   5.418   4.913  1.5890 -0.8393  1.1935
 2693TIP3    H229571   4.252   5.326   4.810  0.4537 -0.7809  0.4321
 2694TIP3   OH229572   1.347   0.803  16.662 -0.9653 -0.1433 -0.4415
 2694TIP3    H129573   1.310   0.886  16.630 -0.0317 -0.0411 -1.3131
 2694TIP3    H229574   1.295   0.783  16.741 -1.5583  0.9879 -0.5109
 2695TIP3   OH229575   0.328   6.082   2.836  0.6744 -0.7026 -0.0962
 2695TIP3    H129576   0.402   6.042   2.881 -0.3558 -0.4435  1.9416
 2695TIP3    H229577   0.311   6.163   2.885 -0.4705 -0.3622 -0.9992
 2696TIP3   OH229578   6.812   3.749   6.361  0.4650  0.1451 -0.5889
 2696TIP3    H129579   6.728   3.721   6.325 -0.6315  1.5798  0.6939
 2696TIP3    H229580   6.803   3.738   6.456  1.0580  1.9270 -0.2879
 2697TIP3   OH229581   3.584   3.882   4.462  0.5053 -0.3878  0.2682
 2697TIP3    H129582   3.557   3.843   4.379 -2.0450  0.1276  0.7601
 2697TIP3    H229583   3.576   3.977   4.447  2.2110 -0.1902  0.4523
 2698TIP3   OH229584   4.760   5.206   4.122  0.1165  0.4077 -0.0484
 2698TIP3    H129585   4.709   5.183   4.044 -0.7619 -0.6153  0.7864
 2698TIP3    H229586   4.707   5.174   4.195  0.7986  1.5708  0.9884
 2699TIP3   OH229587   3.422   1.021  12.340 -0.2936  0.4097 -0.2961
 2699TIP3    H129588   3.404   0.945  12.395  2.1180 -0.0378  0.0152
 2699TIP3    H229589   3.479   1.076  12.394  0.2235  1.0850 -1.4865
 2700TIP3   OH229590   0.708   2.789  13.024  0.2397 -0.0228  0.6818
 2700TIP3    H129591   0.801   2.793  13.045  0.6349  0.3793 -0.9824
 2700TIP3    H229592   0.705   2.788  12.928 -1.4311 -1.1621  0.6986
 2701TIP3   OH229593   6.210   5.562   5.665 -0.5049 -0.2803 -0.1301
 2701TIP3    H129594   6.251   5.492   5.615 -0.1336  0.1915 -0.5022
 2701TIP3    H229595   6.195   5.525   5.751  0.1663 -0.6504 -0.1697
 2702TIP3   OH229596   4.129   6.149   3.778  0.0898  0.2397  0.3216
 2702TIP3    H129597   4.170   6.231   3.749 -0.5013 -0.6522 -3.6168
 2702TIP3    H229598   4.036   6.170   3.783  0.0280  0.0127  0.1132
 2703TIP3   OH229599   1.200   6.535   5.683 -0.4094  0.1768 -0.0136
 2703TIP3    H129600   1.105   6.543   5.692 -0.2911  1.3132  0.2468
 2703TIP3    H229601   1.234   6.551   5.771  0.1410  1.9215 -0.5066
 2704TIP3   OH229602   2.241   6.059  12.553 -0.1667 -0.0529 -0.2183
 2704TIP3    H129603   2.288   6.010  12.486 -1.6255 -1.6996 -0.1066
 2704TIP3    H229604   2.172   6.105  12.505 -0.6821 -0.5518  0.0299
 2705TIP3   OH229605   2.666   5.755  12.649  0.2707 -0.1399  0.1651
 2705TIP3    H129606   2.597   5.690  12.635 -0.5613  0.8876 -0.6049
 2705TIP3    H229607   2.705   5.767  12.562  1.0152 -0.2589  0.4763
 2706TIP3   OH229608   5.960   4.273  14.885  0.5308 -0.2656 -0.3946
 2706TIP3    H129609   6.047   4.236  14.900  0.4890 -0.8687 -1.5266
 2706TIP3    H229610   5.972   4.332  14.810  0.1516  0.3568  0.0310
 2707TIP3   OH229611   2.719   1.797  14.299 -0.2156 -0.3814  0.1211
 2707TIP3    H129612   2.703   1.797  14.394 -0.4459  0.6759  0.0953
 2707TIP3    H229613   2.775   1.874  14.284  0.7669 -1.1840 -0.4595
 2708TIP3   OH229614   0.674   1.501  16.318 -0.6968 -0.0176  0.5709
 2708TIP3    H129615   0.654   1.423  16.371 -1.1220 -0.3846 -0.1104
 2708TIP3    H229616   0.593   1.552  16.320 -0.3907  0.4578  1.0880
 2709TIP3   OH229617   2.089   1.958   2.969  0.1372  1.1000 -0.0678
 2709TIP3    H129618   2.144   1.936   2.894 -1.6341  0.3122 -1.1935
 2709TIP3    H229619   2.034   2.030   2.938 -1.4818 -0.0485 -0.0021
 2710TIP3   OH229620   2.186   6.179  13.168  0.8618 -0.1993  0.2412
 2710TIP3    H129621   2.263   6.235  13.157  1.3582 -1.1324 -1.4914
 2710TIP3    H229622   2.205   6.101  13.115 -1.5930 -0.1313 -0.8889
 2711TIP3   OH229623   1.295   1.532  11.822 -0.0619 -0.5054  0.3477
 2711TIP3    H129624   1.204   1.533  11.792 -0.2079  1.0832  0.7597
 2711TIP3    H229625   1.334   1.610  11.783  0.4757  0.1092  2.0285
 2712TIP3   OH229626   5.690   5.400  15.488 -0.2248  0.4676 -0.2406
 2712TIP3    H129627   5.745   5.360  15.556  1.8237 -0.8545 -2.5078
 2712TIP3    H229628   5.602   5.367  15.506  0.3572 -0.3459  1.3528
 2713TIP3   OH229629   3.964   1.417   5.013  0.2433 -0.1213  0.3223
 2713TIP3    H129630   3.895   1.352   5.003  1.0800 -1.0557  0.4200
 2713TIP3    H229631   3.918   1.500   5.028 -0.8786 -0.3156 -1.7672
 2714TIP3   OH229632   2.319   0.522  15.684  0.3510 -0.2567 -0.0792
 2714TIP3    H129633   2.247   0.468  15.717  0.8464 -0.0400  1.4259
 2714TIP3    H229634   2.392   0.461  15.671  1.0214  0.0427  1.9592
 2715TIP3   OH229635   6.346   6.333   5.660 -0.1242 -0.6603 -0.2982
 2715TIP3    H129636   6.286   6.323   5.586  0.9121 -1.7672 -1.0261
 2715TIP3    H229637   6.297   6.385   5.723 -1.5677 -0.8813 -1.1810
 2716TIP3   OH229638   5.331   0.062  12.556  0.2321 -0.7428  0.4848
 2716TIP3    H129639   5.374   0.065  12.642  0.2436  0.0772  0.4607
 2716TIP3    H229640   5.294  -0.026  12.551 -0.5741 -0.5043  1.7288
 2717TIP3   OH229641   5.853   1.369  11.456 -0.8137 -0.3461 -0.0198
 2717TIP3    H129642   5.846   1.451  11.408 -0.0914  0.1281  0.6646
 2717TIP3    H229643   5.809   1.386  11.540 -0.7993 -0.7042  0.0615
 2718TIP3   OH229644   5.527   0.686  11.325 -0.0583  0.2408  0.1458
 2718TIP3    H129645   5.459   0.629  11.362  0.2134 -0.8543 -0.9647
 2718TIP3    H229646   5.481   0.738  11.259  0.0350  0.0184 -0.0965
 2719TIP3   OH229647   3.533   1.216  14.791 -0.0461 -0.0698  0.0171
 2719TIP3    H129648   3.589   1.234  14.715  0.2200  0.4819  0.3411
 2719TIP3    H229649   3.501   1.302  14.818  0.7328 -0.1407  1.1938
 2720TIP3   OH229650   5.945   1.819   5.440  0.1259 -0.5336 -0.2485
 2720TIP3    H129651   5.953   1.883   5.511 -2.4496 -2.5544  2.1228
 2720TIP3    H229652   6.021   1.762   5.450 -0.3015 -0.9145  1.1413
 2721TIP3   OH229653   0.101   3.286  13.500 -0.2786  0.2662 -0.3590
 2721TIP3    H129654   0.119   3.212  13.559  2.1210  0.6300 -0.5167
 2721TIP3    H229655   0.055   3.247  13.426 -2.2983 -0.4009  1.1621
 2722TIP3   OH229656   6.495   1.001   4.199  0.5998 -0.3680  0.1869
 2722TIP3    H129657   6.459   0.926   4.246  0.8794  0.5022  1.8583
 2722TIP3    H229658   6.494   0.974   4.107 -1.8716 -1.3812  0.4128
 2723TIP3   OH229659   6.597   5.244  15.252 -0.4898  0.2256 -0.7160
 2723TIP3    H129660   6.673   5.284  15.210 -0.2863  0.6948  0.0663
 2723TIP3    H229661   6.530   5.313  15.251 -0.0869  0.6754  0.7829
 2724TIP3   OH229662   4.051   4.695  16.313  1.0298 -0.5171 -0.2416
 2724TIP3    H129663   4.034   4.774  16.364  0.8257 -0.3283 -0.5979
 2724TIP3    H229664   4.060   4.725  16.223  0.4953 -0.9468 -0.4488
 2725TIP3   OH229665   6.119   5.622  14.102 -0.1476 -0.5895 -0.0353
 2725TIP3    H129666   6.106   5.542  14.153 -0.1200 -0.7047 -0.2047
 2725TIP3    H229667   6.214   5.626  14.089 -0.0393  0.0463  0.8813
 2726TIP3   OH229668   2.364   3.748  12.060  0.2039 -0.1610  0.2930
 2726TIP3    H129669   2.278   3.783  12.083  0.7775  1.4284  0.1423
 2726TIP3    H229670   2.355   3.716  11.970 -0.6113 -1.4512  0.8005
 2727TIP3   OH229671   2.430   3.796  15.670 -0.3516  0.0133 -0.0909
 2727TIP3    H129672   2.408   3.889  15.668  0.2888  0.1565 -0.7383
 2727TIP3    H229673   2.504   3.788  15.611 -0.3107 -0.8900  0.0784
 2728TIP3   OH229674   1.833   2.492  16.230  0.5603  0.2185 -0.4735
 2728TIP3    H129675   1.904   2.524  16.284  0.2746  3.1658 -1.6406
 2728TIP3    H229676   1.757   2.542  16.258 -1.1315 -2.6931  0.5993
 2729TIP3   OH229677   6.238   4.999   2.007 -0.2310 -0.3556  0.5579
 2729TIP3    H129678   6.223   5.087   2.039  1.0017  0.6329 -1.3688
 2729TIP3    H229679   6.157   4.975   1.962  0.0525  0.5988 -0.5208
 2730TIP3   OH229680   1.049   6.377   4.357  0.0258  0.5704  0.0176
 2730TIP3    H129681   1.086   6.289   4.349 -2.5114 -0.3898 -2.7156
 2730TIP3    H229682   1.067   6.418   4.273 -1.6212  1.4433  0.0582
 2731TIP3   OH229683   4.431   4.396   1.725 -0.5624  0.0109 -0.4880
 2731TIP3    H129684   4.437   4.481   1.769  1.2548 -0.8650  1.0850
 2731TIP3    H229685   4.400   4.417   1.637  0.4331  2.3860 -0.3452
 2732TIP3   OH229686   3.418   1.762   2.153  0.3893 -0.0878  0.3359
 2732TIP3    H129687   3.452   1.843   2.192 -3.0567  0.8167  1.8640
 2732TIP3    H229688   3.361   1.725   2.221 -2.0431 -1.0981 -2.0667
 2733TIP3   OH229689   0.545   3.312  15.760 -0.2212  0.2055 -0.6294
 2733TIP3    H129690   0.545   3.234  15.705  1.3399  0.9621 -1.7772
 2733TIP3    H229691   0.577   3.282  15.845  0.6158 -0.3734 -1.1335
 2734TIP3   OH229692   5.728   5.992  11.624 -0.2108  0.2698 -0.1577
 2734TIP3    H129693   5.806   6.044  11.605  0.5549 -0.4359  0.9610
 2734TIP3    H229694   5.761   5.907  11.652 -1.4415 -0.8099 -1.7976
 2735TIP3   OH229695   6.816   6.779  11.899  0.1061  0.0266  0.4415
 2735TIP3    H129696   6.824   6.684  11.894 -2.7503 -0.2420 -2.5622
 2735TIP3    H229697   6.756   6.794  11.973 -0.2555 -0.6000  0.2842
 2736TIP3   OH229698   2.556   3.348  15.615  0.3030  0.1603 -0.6543
 2736TIP3    H129699   2.477   3.401  15.626 -2.7691 -2.4443 -6.1579
 2736TIP3    H229700   2.557   3.290  15.692 -0.6179  2.8688  1.5849
 2737TIP3   OH229701   1.985   0.336  13.324 -0.3892 -0.5641 -0.5018
 2737TIP3    H129702   2.030   0.252  13.330  0.9997  0.1976  0.3898
 2737TIP3    H229703   1.977   0.365  13.415 -3.0376 -0.8096 -0.5957
 2738TIP3   OH229704   5.075   0.773   3.745 -0.3669  0.3723 -0.5625
 2738TIP3    H129705   5.094   0.778   3.839 -0.2159 -0.1790 -0.5587
 2738TIP3    H229706   5.152   0.810   3.703 -0.3342  0.4047 -0.4749
 2739TIP3   OH229707   2.079   0.420  15.892 -0.2922 -0.2599  0.0135
 2739TIP3    H129708   2.166   0.428  15.931 -0.3902  0.7072  0.0559
 2739TIP3    H229709   2.082   0.338  15.843  1.2856  0.6712 -1.5763
 2740TIP3   OH229710   1.382   3.054   1.099 -0.1821  0.3452  0.0333
 2740TIP3    H129711   1.300   3.102   1.112  0.6601  1.6476  0.6997
 2740TIP3    H229712   1.375   2.979   1.158 -0.2874  1.2370  1.1853
 2741TIP3   OH229713   2.346   3.839  16.704 -0.5133 -0.1834  0.1285
 2741TIP3    H129714   2.381   3.878  16.784 -0.5999 -1.0930  0.6153
 2741TIP3    H229715   2.275   3.781  16.733  0.5502 -1.8336 -0.4256
 2742TIP3   OH229716   4.715   3.599   2.998 -0.4839  0.1781 -0.2318
 2742TIP3    H129717   4.785   3.656   2.966 -0.1684 -1.5087 -2.8303
 2742TIP3    H229718   4.758   3.545   3.064  0.5671 -0.4416 -1.3809
 2743TIP3   OH229719   2.422   5.856  15.351  0.2161 -0.7427  0.2287
 2743TIP3    H129720   2.356   5.921  15.329 -0.7452 -1.1446  1.7663
 2743TIP3    H229721   2.490   5.868  15.286 -0.1142  1.5205  0.2165
 2744TIP3   OH229722   4.111   3.394  12.476 -0.5724 -0.3419  0.9543
 2744TIP3    H129723   4.039   3.427  12.422  0.2913 -0.4667 -0.3136
 2744TIP3    H229724   4.184   3.453  12.458  0.9453 -2.6811 -1.1687
 2745TIP3   OH229725   2.767   5.846  15.882 -0.3540 -0.1067  0.0990
 2745TIP3    H129726   2.769   5.756  15.852  0.7840 -0.5761  1.4958
 2745TIP3    H229727   2.850   5.884  15.852 -0.3882  0.1893  0.3704
 2746TIP3   OH229728   3.045   6.323  12.863 -0.2019 -0.3101 -0.4902
 2746TIP3    H129729   3.115   6.276  12.908  0.1394 -1.0493 -1.7355
 2746TIP3    H229730   2.969   6.313  12.920  0.4752 -0.2657  0.4495
 2747TIP3   OH229731   1.602   1.615   3.664 -0.5216  0.1161  0.1496
 2747TIP3    H129732   1.628   1.602   3.573 -0.3759  0.4228  0.1442
 2747TIP3    H229733   1.508   1.635   3.660 -0.8947 -1.4930  0.2125
 2748TIP3   OH229734   6.727   6.835  14.433 -0.4918 -0.3194 -0.4967
 2748TIP3    H129735   6.718   6.741  14.450 -2.6652  0.0998  0.9282
 2748TIP3    H229736   6.672   6.851  14.356 -2.5649  0.2266  1.0278
 2749TIP3   OH229737   1.332   0.874   0.092  0.1286 -0.2075  0.5556
 2749TIP3    H129738   1.243   0.846   0.070  1.4834 -2.9345 -2.1391
 2749TIP3    H229739   1.359   0.815   0.162 -0.3288  1.0607  1.8487
 2750TIP3   OH229740   1.353   6.099  14.592  0.0148  0.2742 -0.0752
 2750TIP3    H129741   1.335   6.155  14.517 -0.8332 -0.3674 -0.3679
 2750TIP3    H229742   1.403   6.025  14.555 -1.4212 -0.6470 -0.2629
 2751TIP3   OH229743   0.917   4.024   4.800 -0.2586 -0.2449 -0.2948
 2751TIP3    H129744   1.001   4.063   4.823 -0.7276  0.4338  0.3160
 2751TIP3    H229745   0.898   3.964   4.872 -1.0283  0.7740  0.3728
 2752TIP3   OH229746   6.809   4.019  14.727 -0.5425  0.4346 -0.2643
 2752TIP3    H129747   6.776   3.930  14.713 -1.2522  0.7015 -0.3335
 2752TIP3    H229748   6.757   4.052  14.800  1.9799 -0.3660  2.0399
 2753TIP3   OH229749   3.420   6.739   1.193  0.3756  1.0363  0.5286
 2753TIP3    H129750   3.373   6.761   1.113  0.4588 -1.0930 -0.1823
 2753TIP3    H229751   3.352   6.730   1.260 -0.1207 -0.4233 -0.1174
 2754TIP3   OH229752   3.561   1.107  13.442 -0.0426  0.0249  0.1873
 2754TIP3    H129753   3.625   1.132  13.376 -0.6669 -1.2913 -0.9639
 2754TIP3    H229754   3.535   1.189  13.483 -1.0632  1.1434 -2.5326
 2755TIP3   OH229755   6.020   4.471   3.339 -0.5919 -0.5785 -0.8515
 2755TIP3    H129756   6.031   4.379   3.362 -0.1785 -0.5579 -0.9660
 2755TIP3    H229757   5.929   4.491   3.363 -0.3078 -0.6717  0.3531
 2756TIP3   OH229758   2.321   4.178   0.867  0.4566 -0.1150 -0.1828
 2756TIP3    H129759   2.310   4.235   0.790 -0.7492 -0.5194 -0.3288
 2756TIP3    H229760   2.414   4.155   0.867  0.8045  1.2112 -0.5752
 2757TIP3   OH229761   4.666   4.164  11.097 -0.0981 -0.1347 -0.2173
 2757TIP3    H129762   4.718   4.085  11.085  2.7844  1.8106 -1.7054
 2757TIP3    H229763   4.623   4.178  11.013  1.8336  1.3732 -1.0371
 2758TIP3   OH229764   2.943   0.763  11.864 -0.5940  0.4089 -0.2627
 2758TIP3    H129765   2.931   0.857  11.865 -0.0415  0.5309  2.6707
 2758TIP3    H229766   3.027   0.748  11.907 -0.7347 -1.4329 -0.5079
 2759TIP3   OH229767   4.012   0.047  14.391  0.3161  0.6820  0.5954
 2759TIP3    H129768   3.936  -0.010  14.402  0.6520  0.1679  0.3282
 2759TIP3    H229769   3.981   0.134  14.414 -0.0023  0.2641  1.8053
 2760TIP3   OH229770   2.865   5.993  13.046 -0.0573  0.0211  0.4071
 2760TIP3    H129771   2.789   6.051  13.040  0.0163  0.0067 -0.8480
 2760TIP3    H229772   2.898   5.987  12.957  2.2166  1.0617  1.1148
 2761TIP3   OH229773   5.013   0.635  14.320 -0.3374 -0.0706  0.2942
 2761TIP3    H129774   4.975   0.700  14.261  1.6760 -0.3976 -1.4779
 2761TIP3    H229775   4.955   0.635  14.396 -2.4433  1.1530 -1.2064
 2762TIP3   OH229776   0.311   4.298  15.543  0.0417  0.7249  0.3935
 2762TIP3    H129777   0.394   4.271  15.581 -0.6198 -2.7814 -0.3446
 2762TIP3    H229778   0.245   4.243  15.586 -1.4355  0.8816 -1.5076
 2763TIP3   OH229779   3.713   0.954   3.137 -0.5597  0.2004 -0.4267
 2763TIP3    H129780   3.727   0.894   3.211 -0.3923 -0.4991 -1.0155
 2763TIP3    H229781   3.654   1.021   3.171 -0.1921  0.0900  0.4494
 2764TIP3   OH229782   2.155   1.929  14.169  0.0729 -0.0133 -0.7214
 2764TIP3    H129783   2.187   1.925  14.259 -0.4683 -0.3588 -0.5371
 2764TIP3    H229784   2.060   1.938  14.178  0.0400  0.1900 -1.2577
 2765TIP3   OH229785   2.511   1.474  15.262  0.3261  0.4837 -0.5579
 2765TIP3    H129786   2.515   1.545  15.327  1.1388 -0.5223  0.5329
 2765TIP3    H229787   2.595   1.430  15.270 -1.5734 -3.1742  1.8151
 2766TIP3   OH229788   4.435   1.071   1.482 -0.4422 -0.8981  0.4642
 2766TIP3    H129789   4.373   1.064   1.555  0.0573 -1.0048  0.8845
 2766TIP3    H229790   4.477   0.985   1.477 -0.4209 -0.8701  0.0968
 2767TIP3   OH229791   2.692   6.399  14.928 -0.0162 -0.1393 -0.9163
 2767TIP3    H129792   2.768   6.418  14.874 -1.0980 -0.3893 -2.6175
 2767TIP3    H229793   2.656   6.318  14.892 -2.2103  1.0026 -1.4890
 2768TIP3   OH229794   4.578   3.912  12.513  0.3316 -0.7484 -0.1076
 2768TIP3    H129795   4.608   3.993  12.554 -0.6623  0.1621 -1.0947
 2768TIP3    H229796   4.548   3.857  12.586 -1.5550  0.8873  0.4557
 2769TIP3   OH229797   1.203   4.095  17.102  1.0133 -0.4790 -0.4207
 2769TIP3    H129798   1.282   4.095  17.156  0.2727  0.0844  0.7077
 2769TIP3    H229799   1.137   4.138  17.156 -1.4540 -5.0669  0.6818
 2770TIP3   OH229800   6.460   2.741   1.155 -0.1954  0.3916  0.0732
 2770TIP3    H129801   6.535   2.687   1.181 -0.1799  1.0112  1.3783
 2770TIP3    H229802   6.482   2.769   1.066  1.1095  0.5131  0.4029
 2771TIP3   OH229803   6.412   2.654   2.243  0.3149  0.4765 -0.4143
 2771TIP3    H129804   6.366   2.581   2.286 -0.2467  0.8388 -0.3962
 2771TIP3    H229805   6.492   2.664   2.294 -0.7406  1.4820  1.1489
 2772TIP3   OH229806   4.132   4.619   1.313  0.1255  0.0496  0.4205
 2772TIP3    H129807   4.218   4.660   1.308  0.2001 -0.2284 -2.3561
 2772TIP3    H229808   4.073   4.681   1.271  0.0530 -1.9798 -2.8622
 2773TIP3   OH229809   5.060   0.953   0.035  0.4799  0.1014 -0.2254
 2773TIP3    H129810   4.992   1.009  -0.002 -0.2727 -0.6735 -0.0373
 2773TIP3    H229811   5.134   0.962  -0.025  1.8682  4.2799  1.7285
 2774TIP3   OH229812   3.450   2.263   2.207 -0.3743 -0.1604 -0.0629
 2774TIP3    H129813   3.424   2.273   2.116  0.3080  0.3705 -0.2041
 2774TIP3    H229814   3.543   2.286   2.209 -0.6430  0.9443  0.9662
 2775TIP3   OH229815   4.718   2.956  11.678 -0.7294 -0.3223  0.0989
 2775TIP3    H129816   4.684   3.035  11.720 -1.7882  0.1539 -1.5355
 2775TIP3    H229817   4.657   2.886  11.704 -2.0420  0.1850 -1.4079
 2776TIP3   OH229818   2.361   6.815  16.885 -0.4510 -0.5196 -0.2673
 2776TIP3    H129819   2.422   6.818  16.959  0.6761  0.3869 -1.2009
 2776TIP3    H229820   2.373   6.728  16.848  0.0926 -0.4443 -0.2794
 2777TIP3   OH229821   3.150   2.091   3.980 -0.2740 -0.7945 -0.3881
 2777TIP3    H129822   3.152   2.024   4.049 -0.3680  0.9042  1.3576
 2777TIP3    H229823   3.231   2.141   3.993 -1.3997  1.0135  0.0623
 2778TIP3   OH229824   2.375   1.702  13.229  0.0937 -0.3026  0.1311
 2778TIP3    H129825   2.378   1.624  13.174  0.6166  0.8842 -1.5695
 2778TIP3    H229826   2.466   1.726  13.243 -0.0796  1.0400 -0.9007
 2779TIP3   OH229827   6.087   2.592  14.508  0.4757  0.4701  0.1285
 2779TIP3    H129828   6.051   2.544  14.434 -1.1042 -1.1303  1.8337
 2779TIP3    H229829   6.176   2.559  14.517 -0.0965 -1.1010  0.3372
 2780TIP3   OH229830   4.646   0.258  12.980  0.1100  0.2316  0.3163
 2780TIP3    H129831   4.687   0.271  12.894 -0.5884 -3.9473 -0.8625
 2780TIP3    H229832   4.552   0.252  12.960 -0.0756 -0.7004  1.3953
 2781TIP3   OH229833   6.072   1.263  10.847 -0.4501  0.4551  0.0741
 2781TIP3    H129834   6.121   1.275  10.766 -0.0635  0.3356  0.2873
 2781TIP3    H229835   6.096   1.338  10.902  1.2088 -0.6788  1.0213
 2782TIP3   OH229836   5.364   4.622   2.086 -0.1301 -0.3357  0.0203
 2782TIP3    H129837   5.321   4.688   2.141  0.3783 -0.5278  0.6689
 2782TIP3    H229838   5.449   4.660   2.065  0.2350 -0.8460  0.5425
 2783TIP3   OH229839   2.286   3.853   2.851 -0.8465  0.0989  0.2170
 2783TIP3    H129840   2.360   3.888   2.900 -1.4492 -0.2963  1.4300
 2783TIP3    H229841   2.261   3.774   2.897 -1.6008 -0.1420 -0.5754
 2784TIP3   OH229842   5.229   0.065   1.835 -0.2482 -0.0882  0.4477
 2784TIP3    H129843   5.288   0.085   1.907  0.6680 -0.3500 -0.2164
 2784TIP3    H229844   5.208   0.150   1.796 -0.6833  0.0459  0.9638
 2785TIP3   OH229845   3.299   2.868   0.320 -0.4769 -0.2804 -0.2029
 2785TIP3    H129846   3.347   2.796   0.361  1.8860  1.0095 -0.5353
 2785TIP3    H229847   3.235   2.825   0.263  0.4587 -2.1129  0.0503
 2786TIP3   OH229848   5.066   4.304  10.267 -0.0995 -0.5196  0.6492
 2786TIP3    H129849   5.060   4.371  10.335  1.2893 -0.6513  0.9326
 2786TIP3    H229850   4.982   4.309  10.220  0.3803  2.1660 -0.0483
 2787TIP3   OH229851   1.255   4.034  11.773 -0.3503  0.4863  0.6538
 2787TIP3    H129852   1.287   4.041  11.863  0.6497  1.4293  0.2472
 2787TIP3    H229853   1.335   4.031  11.720 -0.9355  0.3040 -0.2329
 2788TIP3   OH229854   1.218   3.445  11.457 -0.2033 -0.0819  0.3343
 2788TIP3    H129855   1.261   3.365  11.487  0.8074 -0.4208 -1.7987
 2788TIP3    H229856   1.129   3.419  11.436  0.5551 -1.1323 -1.9090
 2789TIP3   OH229857   1.882   3.169   3.083 -0.2021  0.7651 -0.0990
 2789TIP3    H129858   1.897   3.234   3.014  0.9885 -0.0656 -0.6550
 2789TIP3    H229859   1.969   3.150   3.118 -0.7119  0.6161  1.1313
 2790TIP3   OH229860   3.308   4.035  15.455  0.5801  0.4318  0.5660
 2790TIP3    H129861   3.392   4.022  15.410  0.6559  0.7294  0.6128
 2790TIP3    H229862   3.294   3.954  15.504  0.6058  0.1935  0.1790
 2791TIP3   OH229863   3.753   0.291  11.237 -0.3836 -0.8021 -0.6162
 2791TIP3    H129864   3.665   0.302  11.271  0.1408 -0.6133  0.7639
 2791TIP3    H229865   3.809   0.294  11.315  0.8517 -0.7218 -1.4803
 2792TIP3   OH229866   1.238   4.379  12.556 -0.4562  0.1435  0.4815
 2792TIP3    H129867   1.198   4.454  12.511 -0.7935 -1.0357 -1.2666
 2792TIP3    H229868   1.316   4.358  12.504 -1.7644 -2.2909 -0.6659
 2793TIP3   OH229869   3.365   0.049   6.192 -0.3800 -0.0359  0.2170
 2793TIP3    H129870   3.394  -0.033   6.231  3.1501  1.4742  1.1126
 2793TIP3    H229871   3.426   0.066   6.121 -2.3269  0.8582 -1.3477
 2794TIP3   OH229872   5.284   1.212   5.805 -0.6864  0.1188 -0.4487
 2794TIP3    H129873   5.379   1.199   5.796 -1.0398 -3.3685 -0.4284
 2794TIP3    H229874   5.268   1.208   5.899 -0.8281  1.3491 -0.4052
 2795TIP3   OH229875   0.884   1.299   5.310  0.3603 -0.0331  0.0566
 2795TIP3    H129876   0.827   1.346   5.371 -0.5165 -1.0236  0.0291
 2795TIP3    H229877   0.895   1.213   5.349 -1.8548 -1.3977 -2.0691
 2796TIP3   OH229878   2.790   0.410   0.920  0.4489  0.2034  0.1384
 2796TIP3    H129879   2.765   0.410   0.827  1.1106  1.2377 -0.0566
 2796TIP3    H229880   2.853   0.338   0.927  1.2831  0.8472 -0.4839
 2797TIP3   OH229881   6.628   3.986   3.328  0.1700 -0.4110 -0.0408
 2797TIP3    H129882   6.658   4.015   3.242  1.1772  0.9869  0.7290
 2797TIP3    H229883   6.541   3.951   3.313 -0.0518  0.6808 -1.4898
 2798TIP3   OH229884   6.147   3.369  11.527 -0.3430  0.9671  0.8723
 2798TIP3    H129885   6.090   3.443  11.505  0.2255  1.2659  0.3635
 2798TIP3    H229886   6.106   3.294  11.486 -0.6164  1.0989  0.9015
 2799TIP3   OH229887   6.044   2.342   1.710 -0.4802 -0.3801 -0.4967
 2799TIP3    H129888   5.985   2.281   1.666 -0.1996 -0.3944 -0.8509
 2799TIP3    H229889   6.131   2.307   1.696 -0.3886 -0.4387  0.1523
 2800TIP3   OH229890   4.647   5.563   5.792 -0.0495 -0.0589 -0.2329
 2800TIP3    H129891   4.618   5.653   5.773  3.2184  1.4328  0.9757
 2800TIP3    H229892   4.662   5.563   5.886 -0.3791 -2.0581 -0.1467
 2801TIP3   OH229893   2.652   0.030   2.155 -0.4986  0.6000 -0.3604
 2801TIP3    H129894   2.669  -0.003   2.067  2.0829  1.3956 -0.2393
 2801TIP3    H229895   2.574   0.085   2.146 -0.1001  0.9066 -2.2292
 2802TIP3   OH229896   3.656   6.780  11.911  0.1046  0.5114  0.5095
 2802TIP3    H129897   3.661   6.700  11.964 -0.3439 -0.0959 -0.3273
 2802TIP3    H229898   3.633   6.849  11.973  0.9588  0.0790  1.3265
 2803TIP3   OH229899   3.033   6.343   1.414  0.5921  0.4800 -0.3544
 2803TIP3    H129900   2.991   6.413   1.364 -0.6492  0.7578  1.0000
 2803TIP3    H229901   2.982   6.265   1.393  0.3179  0.5195  0.1471
 2804TIP3   OH229902   6.220   2.070   5.495  0.4776 -0.3284 -0.3341
 2804TIP3    H129903   6.145   2.041   5.546  0.5723  0.2334  0.1354
 2804TIP3    H229904   6.193   2.152   5.455  0.5020 -0.6254 -0.9708
 2805TIP3   OH229905   4.839   0.783  12.716 -0.6547 -0.0532  0.1675
 2805TIP3    H129906   4.766   0.730  12.683 -1.1657  0.7191  0.0244
 2805TIP3    H229907   4.800   0.869  12.733 -0.2087 -0.1697  1.9601
 2806TIP3   OH229908   4.790   0.111  14.124  0.0062  0.9342 -0.3011
 2806TIP3    H129909   4.799   0.049  14.051 -1.3139  0.8406 -0.4034
 2806TIP3    H229910   4.880   0.127  14.152  0.4119 -0.6023 -0.6236
 2807TIP3   OH229911   3.679   2.459   5.564  0.6321  0.1556 -0.6060
 2807TIP3    H129912   3.637   2.537   5.599 -0.5463 -0.9323  0.5169
 2807TIP3    H229913   3.733   2.426   5.635  1.0701 -0.0964 -1.0472
 2808TIP3   OH229914   1.305   0.694   3.710 -0.3390 -0.4597  1.2286
 2808TIP3    H129915   1.313   0.711   3.804  1.0016 -1.0826  1.2392
 2808TIP3    H229916   1.334   0.604   3.699 -0.3220 -0.3418  0.1776
 2809TIP3   OH229917   4.662   5.916  11.249 -0.1238  0.3084 -0.5964
 2809TIP3    H129918   4.608   5.836  11.246  1.5777 -0.8909 -0.8607
 2809TIP3    H229919   4.710   5.908  11.332  0.8268  0.5202 -1.1210
 2810TIP3   OH229920   2.369   4.668  12.922 -0.4724  0.5032  0.8920
 2810TIP3    H129921   2.402   4.754  12.948  0.2111  0.4664  0.1941
 2810TIP3    H229922   2.447   4.613  12.914 -1.0173 -0.7256  3.1153
 2811TIP3   OH229923   5.594   2.433  16.838  0.1280 -0.2948 -0.2824
 2811TIP3    H129924   5.616   2.508  16.783  0.9894  0.5651  1.1683
 2811TIP3    H229925   5.642   2.448  16.920 -1.6190 -1.1683  0.9736
 2812TIP3   OH229926   5.760   6.534  12.645 -0.6776  0.0719 -0.0760
 2812TIP3    H129927   5.826   6.499  12.705 -0.0702 -0.6916 -1.1402
 2812TIP3    H229928   5.677   6.497  12.675 -0.4397  0.0193  0.5241
 2813TIP3   OH229929   6.522   4.864  16.756 -0.2685  0.1191 -0.0803
 2813TIP3    H129930   6.598   4.811  16.779 -0.9788 -1.2514 -0.7739
 2813TIP3    H229931   6.546   4.953  16.782  0.5323 -0.6796  2.1015
 2814TIP3   OH229932   2.062   4.020   0.317 -0.7466 -0.1188  0.0578
 2814TIP3    H129933   1.995   4.087   0.325 -1.3812 -0.8152  0.9300
 2814TIP3    H229934   2.033   3.965   0.244 -0.6026  0.1587 -0.2046
 2815TIP3   OH229935   5.897   6.636   5.136  0.1640 -0.1932  0.3759
 2815TIP3    H129936   5.912   6.712   5.192 -0.8119  0.4343 -0.1789
 2815TIP3    H229937   5.865   6.569   5.196  2.0362 -0.5418  1.0434
 2816TIP3   OH229938   5.878   3.127   4.086 -0.4810 -0.4506  0.4577
 2816TIP3    H129939   5.919   3.194   4.139 -1.8796  0.5187  0.3712
 2816TIP3    H229940   5.930   3.124   4.006  1.0157 -1.1927  1.4043
 2817TIP3   OH229941   1.411   4.385   1.299  0.1702 -0.0807 -0.5822
 2817TIP3    H129942   1.337   4.437   1.268  0.0471  0.3773  0.4370
 2817TIP3    H229943   1.454   4.355   1.219 -0.9178 -0.0834 -1.1868
 2818TIP3   OH229944   5.559   2.115   1.251 -0.0179  0.5489  0.1882
 2818TIP3    H129945   5.565   2.160   1.336 -1.9187 -1.7326  1.6681
 2818TIP3    H229946   5.465   2.105   1.237  0.3104 -0.6093 -1.3722
 2819TIP3   OH229947   2.558   2.853   3.880  0.3544 -0.0104 -0.1302
 2819TIP3    H129948   2.535   2.937   3.838  0.8624  1.0276  1.5837
 2819TIP3    H229949   2.621   2.876   3.948 -0.2586 -1.6517  1.0643
 2820TIP3   OH229950   6.836   5.046  15.283 -0.5458  0.5548 -0.1775
 2820TIP3    H129951   6.888   5.021  15.359 -0.8653 -1.3257 -0.5344
 2820TIP3    H229952   6.879   5.004  15.209 -0.7181  1.6715 -0.9498
 2821TIP3   OH229953   4.113   0.862  16.297  0.0116 -0.2059  0.6482
 2821TIP3    H129954   4.121   0.928  16.366 -0.5009 -0.5052  1.0043
 2821TIP3    H229955   4.020   0.864  16.273  0.3901  0.7671 -0.9153
 2822TIP3   OH229956   5.899   3.476  14.133  0.3188 -0.1583 -0.0651
 2822TIP3    H129957   5.956   3.546  14.162  0.4398 -0.9476  1.6974
 2822TIP3    H229958   5.875   3.428  14.213 -0.3715 -1.6614 -1.1061
 2823TIP3   OH229959   3.239   3.998  10.727  0.4598  0.4887 -0.8282
 2823TIP3    H129960   3.223   4.060  10.655 -2.5318  0.3443 -0.4031
 2823TIP3    H229961   3.182   3.924  10.708 -1.3527  0.9255  2.1847
 2824TIP3   OH229962   1.600   2.199   4.680 -1.1655 -0.1613 -0.2811
 2824TIP3    H129963   1.636   2.236   4.760 -1.5002 -0.5491  0.0532
 2824TIP3    H229964   1.575   2.110   4.704 -0.5545 -0.5515 -1.0165
 2825TIP3   OH229965   3.003   0.896  14.440 -0.0360 -0.2004 -0.1727
 2825TIP3    H129966   2.939   0.832  14.471  1.4276 -2.0437 -0.7435
 2825TIP3    H229967   3.040   0.857  14.360  2.2969  0.4042  0.5175
 2826TIP3   OH229968   5.562   4.881   3.078 -0.4255  0.2895  0.1951
 2826TIP3    H129969   5.574   4.800   3.126 -0.6113 -1.2638 -2.2107
 2826TIP3    H229970   5.641   4.888   3.023 -0.5893  1.5483  0.0873
 2827TIP3   OH229971   5.972   0.025   0.664  0.1518 -0.2559 -0.0781
 2827TIP3    H129972   5.917  -0.002   0.737 -0.3091 -0.8798 -0.6474
 2827TIP3    H229973   5.910   0.061   0.600  0.4991 -0.1441 -0.3512
 2828TIP3   OH229974   4.164   1.987  12.920 -0.3019  0.4162  0.1490
 2828TIP3    H129975   4.122   2.056  12.867 -1.6567 -1.5184 -1.4656
 2828TIP3    H229976   4.196   1.924  12.855 -2.6500 -2.4312  1.5220
 2829TIP3   OH229977   2.893   3.746  12.909 -0.3547 -0.1368  0.6464
 2829TIP3    H129978   2.966   3.684  12.912  1.4962  1.8944 -0.1482
 2829TIP3    H229979   2.901   3.796  12.990 -0.4723  0.5351  0.2416
 2830TIP3   OH229980   0.762   5.214  16.605 -0.0626  0.0126 -0.0938
 2830TIP3    H129981   0.772   5.299  16.647 -0.4014  0.2826 -0.5466
 2830TIP3    H229982   0.765   5.233  16.511  0.8696 -0.5980 -0.2006
 2831TIP3   OH229983   5.545   5.207  14.360 -0.2056  0.6384  0.5158
 2831TIP3    H129984   5.494   5.160  14.426 -2.8414 -0.1312 -1.8668
 2831TIP3    H229985   5.505   5.293  14.356  0.1320  0.7774  0.1143
 2832TIP3   OH229986   1.724   2.707   2.553 -0.0798  0.1597 -0.4781
 2832TIP3    H129987   1.643   2.658   2.537 -2.0718  2.8557  0.6732
 2832TIP3    H229988   1.749   2.685   2.643 -0.1755  0.2147 -0.4389
 2833TIP3   OH229989   6.502   2.527   1.986  0.0789 -0.7247  0.0803
 2833TIP3    H129990   6.515   2.572   2.069  0.7672 -0.4828 -0.1488
 2833TIP3    H229991   6.492   2.435   2.010  0.2019 -0.6459  0.4409
 2834TIP3   OH229992   2.052   2.789  13.549 -0.0367 -0.3505 -0.6450
 2834TIP3    H129993   2.005   2.862  13.509 -2.2378 -0.3456  1.6879
 2834TIP3    H229994   2.077   2.821  13.636  1.6003 -1.4479 -0.6558
 2835TIP3   OH229995   3.048   6.607  13.145  0.3379  0.0092  0.2364
 2835TIP3    H129996   3.105   6.655  13.084  2.4859 -0.3124  1.8535
 2835TIP3    H229997   3.109   6.556  13.199 -1.6913 -2.3757  0.4324
 2836TIP3   OH229998   5.966   4.220   3.434  0.1594  0.5810  0.4597
 2836TIP3    H129999   5.933   4.147   3.382  0.2717  0.4845  0.5218
 2836TIP3    H230000   6.049   4.189   3.469  1.8211  1.8567 -2.0907
 2837TIP3   OH230001   2.687   2.947  13.598 -0.4616 -0.9200 -0.1167
 2837TIP3    H130002   2.709   2.859  13.627  1.5659  0.2036  2.1144
 2837TIP3    H230003   2.769   2.996  13.606 -1.9607  1.6459  0.6058
 2838TIP3   OH230004   0.973   4.039  10.679  0.0913 -0.9264  0.0339
 2838TIP3    H130005   0.889   4.036  10.725  0.1781 -1.8834  0.1551
 2838TIP3    H230006   1.020   4.111  10.721 -0.7886 -0.1525 -0.2652
 2839TIP3   OH230007   5.049   2.666  12.434 -0.1979 -0.0505 -0.0244
 2839TIP3    H130008   5.049   2.742  12.493  1.4043  1.4152 -1.7704
 2839TIP3    H230009   5.136   2.628  12.445 -0.7578 -1.2728  0.3232
 2840TIP3   OH230010   5.849   5.829  16.809 -0.1997  0.3945  0.1748
 2840TIP3    H130011   5.828   5.882  16.886  1.8342 -0.3268  1.3012
 2840TIP3    H230012   5.771   5.836  16.754 -2.3092 -0.0475  2.8358
 2841TIP3   OH230013   3.504   2.994  16.302 -0.2149  0.5504 -0.3985
 2841TIP3    H130014   3.533   2.917  16.350  1.3960 -0.3497 -2.6226
 2841TIP3    H230015   3.534   3.068  16.355  0.3063 -0.3655  0.6212
 2842TIP3   OH230016   5.686   6.039   3.004  0.7087 -0.0177  0.1814
 2842TIP3    H130017   5.738   5.976   3.053  0.6844  1.0919  1.6981
 2842TIP3    H230018   5.609   5.990   2.976  1.1345 -0.9006  0.5283
 2843TIP3   OH230019   4.888   2.421  11.056  0.2674  0.3708 -0.0138
 2843TIP3    H130020   4.796   2.434  11.080 -0.4907  1.5890 -3.0057
 2843TIP3    H230021   4.885   2.398  10.963  3.0012  0.5723 -0.2410
 2844TIP3   OH230022   0.549   4.858   2.456 -0.3008 -0.0816  0.3196
 2844TIP3    H130023   0.579   4.881   2.544 -0.9497 -0.1904  0.5780
 2844TIP3    H230024   0.483   4.790   2.470 -2.0960  1.5125 -0.0686
 2845TIP3   OH230025   1.341   6.788   1.608  0.1946 -0.1833  0.0522
 2845TIP3    H130026   1.373   6.878   1.605 -0.6055  0.0876 -0.6011
 2845TIP3    H230027   1.248   6.794   1.586  0.5385 -1.3673 -1.9492
 2846TIP3   OH230028   2.653   3.596  17.050 -0.6437  0.1679  0.2200
 2846TIP3    H130029   2.676   3.669  16.991 -0.2743  0.8314  1.1643
 2846TIP3    H230030   2.621   3.527  16.991  0.1583  0.6355 -0.7983
 2847TIP3   OH230031   3.488   0.646   5.752 -0.0744  0.5700  0.4528
 2847TIP3    H130032   3.488   0.570   5.810 -0.7371  0.1446 -0.0872
 2847TIP3    H230033   3.444   0.715   5.802  2.3489  1.2966  1.7749
 2848TIP3   OH230034   5.535   0.454   4.598 -0.8026  0.1840  0.1946
 2848TIP3    H130035   5.466   0.472   4.535 -2.4338  0.2040  1.8693
 2848TIP3    H230036   5.562   0.364   4.580 -0.9793  0.3147 -0.7396
 2849TIP3   OH230037   6.199   0.984  15.195 -0.3531 -0.4204 -0.2185
 2849TIP3    H130038   6.251   0.904  15.186 -0.4312 -0.5000  0.0157
 2849TIP3    H230039   6.263   1.052  15.215 -0.1605 -0.2068 -1.4919
 2850TIP3   OH230040   0.896   4.645  16.953  0.1461 -0.0856 -0.6343
 2850TIP3    H130041   0.906   4.740  16.960  0.3685 -0.0723 -1.0988
 2850TIP3    H230042   0.802   4.631  16.952 -0.0235 -0.1311  2.7351
 2851TIP3   OH230043   3.846   4.169   5.985  0.0500 -0.1431 -0.3207
 2851TIP3    H130044   3.850   4.087   6.034 -1.9709  0.0706  0.2972
 2851TIP3    H230045   3.758   4.169   5.946  0.8772  0.6316 -2.3173
 2852TIP3   OH230046   3.691   1.642  10.906  0.0731 -0.2532  0.7049
 2852TIP3    H130047   3.745   1.699  10.960  0.5410  2.4670 -2.3383
 2852TIP3    H230048   3.751   1.574  10.875  0.3882 -0.3424  1.4688
 2853TIP3   OH230049   0.963   1.050  15.229  0.6456 -0.0861  0.1647
 2853TIP3    H130050   0.937   1.070  15.319  1.3947  0.0239  0.3602
 2853TIP3    H230051   0.886   1.073  15.176  0.3498  0.2476  0.7312
 2854TIP3   OH230052   2.706   4.517  13.587  0.3564  0.2056 -0.1395
 2854TIP3    H130053   2.716   4.459  13.511  2.6738  1.7304 -1.0920
 2854TIP3    H230054   2.746   4.600  13.560 -1.4040  1.7696  1.7416
 2855TIP3   OH230055   5.036   4.806  12.361  0.1791  0.5973 -0.2233
 2855TIP3    H130056   5.001   4.737  12.305  0.7093  2.0066 -2.3787
 2855TIP3    H230057   4.961   4.835  12.413 -0.4191 -0.4622 -0.4588
 2856TIP3   OH230058   1.282   0.860   2.800  0.2826  0.0743  0.3440
 2856TIP3    H130059   1.201   0.817   2.772  0.4264  0.0963 -0.1142
 2856TIP3    H230060   1.343   0.846   2.727  0.6164  0.2627  0.5852
 2857TIP3   OH230061   2.848   1.831   2.599 -0.2730 -0.1753 -0.2116
 2857TIP3    H130062   2.939   1.817   2.573 -0.0591 -0.9206  0.8418
 2857TIP3    H230063   2.813   1.894   2.536  1.2994  0.9969  0.0477
 2858TIP3   OH230064   5.881   4.874  12.340  0.2023 -0.1192  0.1168
 2858TIP3    H130065   5.953   4.824  12.379 -1.4728 -1.1518  2.0666
 2858TIP3    H230066   5.820   4.888  12.412 -1.1360  1.5465 -1.2526
 2859TIP3   OH230067   1.622   6.707  13.551  0.1002  0.5889  0.4800
 2859TIP3    H130068   1.582   6.654  13.620  0.0970 -1.3268 -0.9276
 2859TIP3    H230069   1.552   6.721  13.487  0.5606  0.8512  0.0259
 2860TIP3   OH230070   6.631   4.428   6.124  0.3526  0.2580 -0.2407
 2860TIP3    H130071   6.646   4.412   6.218  0.8675  0.2450 -0.3236
 2860TIP3    H230072   6.681   4.360   6.080 -1.6723 -1.1410 -0.5009
 2861TIP3   OH230073   3.739   1.587   5.784 -0.7075 -0.3965  0.1624
 2861TIP3    H130074   3.808   1.594   5.719 -2.3072 -0.1889 -1.6086
 2861TIP3    H230075   3.764   1.512   5.838  0.6280 -0.6246 -0.7293
 2862TIP3   OH230076   2.082   2.072   4.394 -0.1193  0.5194  0.3136
 2862TIP3    H130077   2.060   1.998   4.451 -1.2182 -0.5774 -1.4100
 2862TIP3    H230078   2.039   2.051   4.311  0.2521  2.7116 -0.4985
 2863TIP3   OH230079   1.695   3.743  11.670  0.2263 -0.3315 -0.5598
 2863TIP3    H130080   1.671   3.785  11.753  1.2602  0.8643 -0.8395
 2863TIP3    H230081   1.612   3.712  11.633 -0.2785 -0.6307  0.7697
 2864TIP3   OH230082   2.047   6.493  10.611 -0.0198  0.4614  0.0032
 2864TIP3    H130083   2.019   6.408  10.578 -1.5793  1.4370 -1.3582
 2864TIP3    H230084   2.122   6.516  10.555  1.6075 -0.7470  1.5628
 2865TIP3   OH230085   2.425   2.213  16.927  0.3219 -0.0447 -0.3439
 2865TIP3    H130086   2.395   2.122  16.920 -0.7020  0.1730  0.8561
 2865TIP3    H230087   2.502   2.208  16.983 -0.3136 -0.0773  0.5437
 2866TIP3   OH230088   2.410   1.777   0.818 -0.1933 -0.2003  0.0368
 2866TIP3    H130089   2.493   1.775   0.770 -0.8059 -0.9239 -1.0189
 2866TIP3    H230090   2.436   1.794   0.909  0.8446  3.5370 -0.7920
 2867TIP3   OH230091   6.490   3.265   5.904 -0.5143  0.0632  0.4711
 2867TIP3    H130092   6.462   3.308   5.824  1.3265  1.8074  0.6824
 2867TIP3    H230093   6.481   3.332   5.972  0.8518 -0.3687  1.1265
 2868TIP3   OH230094   2.140   1.411  12.362  0.1811  0.0449 -0.3986
 2868TIP3    H130095   2.193   1.393  12.439  0.7531  0.8227 -0.5971
 2868TIP3    H230096   2.146   1.332  12.309 -0.1018 -0.4405  0.2808
 2869TIP3   OH230097   2.851   3.507   6.163  0.2894  0.7817  0.5659
 2869TIP3    H130098   2.791   3.495   6.237  0.0590 -0.3777  0.2092
 2869TIP3    H230099   2.816   3.582   6.116  1.1166  2.3263  2.2592
 2870TIP3   OH230100   3.751   2.393   5.827 -0.2061 -0.1732  0.0967
 2870TIP3    H130101   3.804   2.381   5.905  0.2995  0.0701 -0.2070
 2870TIP3    H230102   3.732   2.486   5.825 -1.1605 -0.3474  0.5330
 2871TIP3   OH230103   6.437   2.072   1.683 -0.3782  0.2318 -0.2854
 2871TIP3    H130104   6.393   2.019   1.750  1.7241 -0.2209  0.8170
 2871TIP3    H230105   6.366   2.116   1.637 -1.9442  0.0633  1.8307
 2872TIP3   OH230106   4.286   6.822   2.649  0.0279 -0.0852 -0.4917
 2872TIP3    H130107   4.271   6.916   2.647 -0.9623 -0.1936 -3.1893
 2872TIP3    H230108   4.276   6.797   2.741 -0.7483  2.2647  0.1224
 2873TIP3   OH230109   0.875   1.795   2.185 -0.0146  0.7156  0.1374
 2873TIP3    H130110   0.964   1.816   2.214 -0.5275  0.8802  1.6679
 2873TIP3    H230111   0.858   1.855   2.113  1.3011  0.3087 -0.5590
 2874TIP3   OH230112   5.145   4.709   0.289  0.2396 -0.4948 -0.2902
 2874TIP3    H130113   5.230   4.744   0.313 -0.3406  0.4048  0.5264
 2874TIP3    H230114   5.158   4.614   0.286  0.9520 -0.4657  1.1391
 2875TIP3   OH230115   0.813   1.763  16.184  0.1174 -0.3019 -0.7530
 2875TIP3    H130116   0.813   1.684  16.238  0.2855 -0.9294 -1.6498
 2875TIP3    H230117   0.789   1.732  16.096 -3.4805  1.1262 -0.4581
 2876TIP3   OH230118   0.156   1.844   5.419 -0.7750 -0.2590 -0.4614
 2876TIP3    H130119   0.182   1.824   5.509 -0.0484 -0.3038 -0.6736
 2876TIP3    H230120   0.186   1.769   5.368 -1.9278 -0.6263 -0.6318
 2877TIP3   OH230121   6.712   0.161   5.923  0.3664 -0.0296  0.1937
 2877TIP3    H130122   6.734   0.253   5.938 -1.7778  0.2157  2.5254
 2877TIP3    H230123   6.619   0.155   5.943  0.4397 -2.7173  0.0946
 2878TIP3   OH230124   5.651   5.204  14.080 -0.6569 -0.3835  0.0850
 2878TIP3    H130125   5.739   5.166  14.076  0.7236  2.6310 -0.4654
 2878TIP3    H230126   5.633   5.214  14.174 -0.0372 -0.2176  0.1870
 2879TIP3   OH230127   4.669   3.918  15.876  0.2249 -0.3919  0.0998
 2879TIP3    H130128   4.587   3.968  15.870  1.0110  1.1619  1.4977
 2879TIP3    H230129   4.700   3.915  15.786 -0.0041  1.4637 -0.0958
 2880TIP3   OH230130   2.560   6.056  10.485  0.1171 -0.3090 -0.8489
 2880TIP3    H130131   2.533   5.970  10.516 -0.2154 -0.3441 -1.2250
 2880TIP3    H230132   2.571   6.046  10.391 -0.9924  0.3089 -1.0720
 2881TIP3   OH230133   5.012   4.936   6.694  0.0482  0.6130  0.2913
 2881TIP3    H130134   5.039   4.918   6.604 -1.9947 -2.9193  0.2246
 2881TIP3    H230135   4.926   4.976   6.686  0.7090  2.2613  0.7498
 2882TIP3   OH230136   5.308   4.506  12.996 -0.0627  0.5434  0.2464
 2882TIP3    H130137   5.370   4.434  13.002  0.0962  0.5526 -1.0106
 2882TIP3    H230138   5.336   4.555  12.919 -1.4666  0.6995 -0.1937
 2883TIP3   OH230139   0.160   6.288  16.425 -0.2985 -0.8635 -0.6949
 2883TIP3    H130140   0.256   6.291  16.420 -0.0353 -0.9268  2.2893
 2883TIP3    H230141   0.137   6.205  16.383  1.2631 -2.2005  0.9396
 2884TIP3   OH230142   6.445   4.580   5.968  0.1613 -0.2237  0.2793
 2884TIP3    H130143   6.493   4.550   6.046 -1.0725 -0.4419  0.9803
 2884TIP3    H230144   6.495   4.657   5.938  0.5482 -0.0114  1.4035
 2885TIP3   OH230145   2.736   6.586  12.247  0.3813  0.8373  0.4170
 2885TIP3    H130146   2.796   6.609  12.317  0.9302 -1.0458  0.6083
 2885TIP3    H230147   2.652   6.571  12.291  0.6831 -0.1736  0.6631
 2886TIP3   OH230148   6.541   5.113  14.878  0.3038  0.8157 -0.2752
 2886TIP3    H130149   6.493   5.048  14.827 -0.7466  0.7947  0.6943
 2886TIP3    H230150   6.630   5.110  14.843  0.1342 -0.7200 -0.6507
 2887TIP3   OH230151   1.897   4.308  12.554  0.3790 -0.3658 -0.1880
 2887TIP3    H130152   1.918   4.277  12.466  2.0225  0.2187 -0.0356
 2887TIP3    H230153   1.876   4.401  12.543  0.7025 -0.2620  0.0486
 2888TIP3   OH230154   2.443   3.307   6.412 -0.3420  0.1341  0.2312
 2888TIP3    H130155   2.394   3.248   6.354  0.0913  1.0644 -1.1230
 2888TIP3    H230156   2.409   3.394   6.393 -1.1317  0.3466  2.3844
 2889TIP3   OH230157   2.600   4.275  12.990 -0.4030  0.4072 -0.1534
 2889TIP3    H130158   2.620   4.242  12.903 -1.3529  0.9431 -0.5871
 2889TIP3    H230159   2.581   4.368  12.978  2.5390  1.2915  1.1027
 2890TIP3   OH230160   0.771   0.318  14.686  0.0618  0.1272  0.0472
 2890TIP3    H130161   0.727   0.327  14.771 -0.6369  0.4232 -0.3461
 2890TIP3    H230162   0.779   0.407  14.653 -0.6582 -0.0677 -0.6924
 2891TIP3   OH230163   4.327   0.249   0.480 -0.5915 -0.1759  0.2871
 2891TIP3    H130164   4.274   0.329   0.472 -0.7847 -0.3405 -0.1341
 2891TIP3    H230165   4.354   0.230   0.390 -1.0142 -0.8963  0.3049
 2892TIP3   OH230166   1.072   6.488  13.227 -0.0872 -0.4900 -0.3384
 2892TIP3    H130167   1.076   6.583  13.239 -1.3377 -0.5155  0.5804
 2892TIP3    H230168   1.158   6.456  13.253 -0.2256  0.2487  1.1425
 2893TIP3   OH230169   4.010   6.641   5.789 -0.3831 -0.6908  0.2069
 2893TIP3    H130170   4.082   6.668   5.847  1.0861  1.6444 -2.4516
 2893TIP3    H230171   4.041   6.561   5.748  0.8414  0.3722 -1.0209
 2894TIP3   OH230172   3.215   3.250   1.008 -0.2409 -0.1260  0.4900
 2894TIP3    H130173   3.160   3.329   1.010  1.6976  1.2972  0.0292
 2894TIP3    H230174   3.214   3.223   0.916  1.2993  1.0290  0.1006
 2895TIP3   OH230175   6.707   1.369  15.065 -0.0924 -0.1115  0.8730
 2895TIP3    H130176   6.758   1.319  15.002  1.5192 -1.8831  3.4067
 2895TIP3    H230177   6.742   1.458  15.060  0.6873 -0.4518 -0.0031
 2896TIP3   OH230178   5.859   1.039  14.427 -0.1385 -0.2978  0.5418
 2896TIP3    H130179   5.779   1.091  14.440  0.3183  0.6038 -0.1686
 2896TIP3    H230180   5.828   0.950  14.413 -1.1381  0.3197 -1.4421
 2897TIP3   OH230181   4.607   0.661  12.865 -0.1415 -0.5674  0.2654
 2897TIP3    H130182   4.563   0.580  12.889 -0.3434 -0.4299  0.3570
 2897TIP3    H230183   4.641   0.695  12.948  1.4808 -1.4601  0.0068
 2898TIP3   OH230184   6.393   1.353   4.852 -0.1087  0.1057  0.1414
 2898TIP3    H130185   6.348   1.403   4.784 -0.1976 -2.7464 -2.1316
 2898TIP3    H230186   6.464   1.309   4.805  0.0128 -1.7749  1.9412
 2899TIP3   OH230187   6.676   3.061   0.858 -0.1441  0.6748  0.4988
 2899TIP3    H130188   6.686   3.140   0.805  0.5310  1.1381  1.2824
 2899TIP3    H230189   6.752   3.007   0.835 -0.4553  0.3731  0.1718
 2900TIP3   OH230190   5.299   5.001   3.185 -1.1144  0.3098  0.1432
 2900TIP3    H130191   5.212   4.975   3.215 -2.4840  1.4346 -2.4952
 2900TIP3    H230192   5.349   4.919   3.185 -2.2375 -0.4233  1.4292
 2901TIP3   OH230193   2.638   5.867  10.888 -0.3877  0.0864  0.5381
 2901TIP3    H130194   2.687   5.938  10.931  0.2838 -0.1784  0.2289
 2901TIP3    H230195   2.553   5.867  10.932 -0.4482  1.1655  0.4647
 2902TIP3   OH230196   0.876   2.540  14.924 -0.4893 -0.3404  0.1380
 2902TIP3    H130197   0.816   2.612  14.944 -2.4027 -1.3180 -1.6528
 2902TIP3    H230198   0.818   2.466  14.904  1.3726 -1.7747 -0.1987
 2903TIP3   OH230199   3.267   1.915  15.835  0.5416 -0.1222  0.6882
 2903TIP3    H130200   3.200   1.897  15.902  1.2866  1.1952  1.8433
 2903TIP3    H230201   3.232   1.875  15.755 -0.2380 -2.0560  1.9111
 2904TIP3   OH230202   5.359   2.596   2.170 -0.1968 -0.0233  0.3299
 2904TIP3    H130203   5.325   2.685   2.169 -1.2471 -0.4100  0.8609
 2904TIP3    H230204   5.400   2.586   2.256 -1.2932 -0.4820  0.8193
 2905TIP3   OH230205   3.485   4.824   3.556 -0.0025 -0.2352  0.1311
 2905TIP3    H130206   3.472   4.909   3.597 -3.2818  0.1272 -1.3645
 2905TIP3    H230207   3.433   4.763   3.608 -2.0894 -0.2314 -1.7933
 2906TIP3   OH230208   4.673   2.770  16.961  0.0362 -0.0853 -0.5290
 2906TIP3    H130209   4.597   2.724  16.924  0.2875  0.9305 -2.4365
 2906TIP3    H230210   4.636   2.850  16.998 -0.0226 -0.4230  0.1687
 2907TIP3   OH230211   1.046   4.479  10.767 -0.0426  0.6925  0.4701
 2907TIP3    H130212   1.051   4.538  10.842 -0.0576  1.3828 -0.0596
 2907TIP3    H230213   1.048   4.391  10.805 -0.2281  1.0313  1.2859
 2908TIP3   OH230214   5.354   4.461  16.353  0.1014 -0.5447 -0.0400
 2908TIP3    H130215   5.270   4.433  16.389 -1.4828  3.1043 -0.4333
 2908TIP3    H230216   5.353   4.430  16.262  0.5158 -2.8975  0.7029
 2909TIP3   OH230217   5.876   0.006   2.808  0.1566 -0.4392  0.2569
 2909TIP3    H130218   5.927   0.084   2.788  2.0658 -1.6567  0.1126
 2909TIP3    H230219   5.816   0.034   2.878 -0.7785  1.6832 -1.2900
 2910TIP3   OH230220   3.174   6.207   2.997  0.1331 -0.2963  0.5516
 2910TIP3    H130221   3.084   6.199   3.027 -0.7297  1.9196 -1.1636
 2910TIP3    H230222   3.186   6.133   2.937 -0.6909 -0.4003  0.4989
 2911TIP3   OH230223   1.831   3.393  11.411  0.0883  0.3825  0.0775
 2911TIP3    H130224   1.798   3.316  11.364  1.5454 -0.4981  0.4579
 2911TIP3    H230225   1.816   3.374  11.503  0.3336  0.6174  0.1687
 2912TIP3   OH230226   2.189   1.290  11.303 -0.4566  0.2459 -0.1421
 2912TIP3    H130227   2.125   1.338  11.355 -0.8035 -1.2813  0.9015
 2912TIP3    H230228   2.240   1.241  11.367  0.6309  0.1037 -1.0865
 2913TIP3   OH230229   3.511   3.969  16.586 -0.0914 -0.7549  0.0019
 2913TIP3    H130230   3.440   3.990  16.646 -2.0604  0.9021 -2.6652
 2913TIP3    H230231   3.562   4.050  16.580  0.7373 -1.2530  0.2604
 2914TIP3   OH230232   0.224   5.135   5.838  0.1265  0.1296 -0.4588
 2914TIP3    H130233   0.215   5.134   5.934 -1.2094  1.4168 -0.5276
 2914TIP3    H230234   0.318   5.137   5.823  0.3526  0.6249  0.8598
 2915TIP3   OH230235   0.800   1.003   3.094 -0.0996 -0.5157 -0.2514
 2915TIP3    H130236   0.806   0.940   3.165  0.7823  0.6412  0.7492
 2915TIP3    H230237   0.816   1.088   3.136  0.1625  0.2288 -1.7903
 2916TIP3   OH230238   6.849   3.344   1.996  0.7393 -0.0258  0.0581
 2916TIP3    H130239   6.785   3.408   1.967 -0.2137 -0.4642  1.0855
 2916TIP3    H230240   6.804   3.295   2.065  2.2279 -0.2602  0.9217
 2917TIP3   OH230241   5.825   3.173  12.867 -0.0423 -0.3946  0.1194
 2917TIP3    H130242   5.879   3.251  12.880 -0.3660 -0.0083 -0.7683
 2917TIP3    H230243   5.762   3.176  12.939 -0.3508  0.4326 -0.1738
 2918TIP3   OH230244   6.494   0.262  16.767  0.2412  0.9152 -0.4243
 2918TIP3    H130245   6.404   0.269  16.797  0.7796 -0.2901  1.7553
 2918TIP3    H230246   6.516   0.350  16.736 -1.5462  1.3149 -0.6602
 2919TIP3   OH230247   1.920   5.665   1.002  0.3306 -0.2321  0.0721
 2919TIP3    H130248   1.979   5.622   0.941 -0.8899 -3.3899  0.9188
 2919TIP3    H230249   1.966   5.663   1.086  0.7233  1.2667 -0.0744
 2920TIP3   OH230250   3.700   2.668   5.812  0.3262  0.1643  0.0018
 2920TIP3    H130251   3.757   2.666   5.889 -0.9797  1.6978  1.0896
 2920TIP3    H230252   3.628   2.726   5.837 -1.3194 -1.0582 -1.5843
 2921TIP3   OH230253   4.424   0.795  13.757  0.0556 -0.0197 -0.0346
 2921TIP3    H130254   4.350   0.747  13.795  0.5515  0.3827  1.5163
 2921TIP3    H230255   4.482   0.812  13.831  0.6994  1.5038 -0.8410
 2922TIP3   OH230256   0.757   3.696  14.660  0.1201  0.8532  0.2400
 2922TIP3    H130257   0.667   3.687  14.690  0.2237  2.4522  1.1639
 2922TIP3    H230258   0.810   3.664  14.733  0.3138  0.5188 -0.0454
 2923TIP3   OH230259   2.503   6.750   3.146 -0.2036  0.3229  0.8952
 2923TIP3    H130260   2.455   6.674   3.177  0.2799 -0.0647  0.7030
 2923TIP3    H230261   2.435   6.814   3.124 -0.8445 -1.2012 -2.0335
 2924TIP3   OH230262   1.310   2.965  11.204 -0.7495 -0.6493  0.3033
 2924TIP3    H130263   1.221   2.995  11.220 -0.8329 -0.1093 -1.0468
 2924TIP3    H230264   1.331   2.998  11.117  0.9258 -0.4145  0.7605
 2925TIP3   OH230265   6.074   4.667   1.109  0.3770 -0.4800  0.3110
 2925TIP3    H130266   6.033   4.582   1.128  0.4961 -0.5878  0.0859
 2925TIP3    H230267   6.114   4.694   1.192 -0.1623 -0.3677  0.5398
 2926TIP3   OH230268   5.443   0.344  16.773 -0.2832 -0.0387 -0.4104
 2926TIP3    H130269   5.361   0.372  16.734  0.2795 -0.4285 -1.9612
 2926TIP3    H230270   5.456   0.402  16.848 -1.1854  1.0769 -1.0908
 2927TIP3   OH230271   3.843   6.431  16.089  0.1888 -0.2082  1.0117
 2927TIP3    H130272   3.893   6.358  16.125  1.7297  0.4132  0.2182
 2927TIP3    H230273   3.907   6.482  16.039 -1.4316  0.0658 -0.9080
 2928TIP3   OH230274   0.630   0.365  11.512 -0.4887  0.0183  0.5401
 2928TIP3    H130275   0.718   0.390  11.483 -1.0753  2.4773  0.6532
 2928TIP3    H230276   0.644   0.322  11.596  0.6927 -1.0470 -0.1519
 2929TIP3   OH230277   0.254   3.530   3.299 -0.4022 -1.0852 -0.2279
 2929TIP3    H130278   0.178   3.550   3.244 -0.5405  0.0157  0.3337
 2929TIP3    H230279   0.272   3.438   3.282 -1.4954 -1.2095 -0.8203
 2930TIP3   OH230280   5.036   2.502   2.166  0.1699  0.1896  0.2693
 2930TIP3    H130281   5.089   2.573   2.203 -0.1705 -0.1779  1.5108
 2930TIP3    H230282   4.982   2.545   2.099 -0.8987  1.3711  1.8141
 2931TIP3   OH230283   6.513   3.933  17.013  0.6388 -0.0466 -0.0771
 2931TIP3    H130284   6.598   3.962  16.980  0.8968  0.1043  0.7018
 2931TIP3    H230285   6.534   3.859  17.071  0.2633  0.1345  0.2919
 2932TIP3   OH230286   0.369   4.695   1.250 -0.1612 -0.3943 -0.0981
 2932TIP3    H130287   0.384   4.603   1.230 -0.6060 -0.3806 -0.5044
 2932TIP3    H230288   0.290   4.718   1.201 -0.0821  0.1908  0.0413
 2933TIP3   OH230289   2.620   4.192  10.342  0.2268 -0.2576 -0.1766
 2933TIP3    H130290   2.710   4.183  10.373  0.5538  0.5357 -0.8578
 2933TIP3    H230291   2.600   4.285  10.353 -0.9797 -0.6422  1.1924
 2934TIP3   OH230292   5.076   3.920   1.867  0.1216  0.6426  0.2320
 2934TIP3    H130293   4.995   3.941   1.822 -1.0373 -0.9211  1.4875
 2934TIP3    H230294   5.116   3.851   1.814 -0.2934  0.1393  0.5643
 2935TIP3   OH230295   0.331   2.329  15.624  0.7859  0.1070 -0.0010
 2935TIP3    H130296   0.410   2.316  15.677 -0.0293  0.0980  1.2588
 2935TIP3    H230297   0.323   2.424  15.616  1.1207  0.0979 -0.4307
 2936TIP3   OH230298   3.770   2.280  11.413 -0.6124 -0.5032 -0.3719
 2936TIP3    H130299   3.771   2.187  11.389 -1.2511 -0.3544 -1.0186
 2936TIP3    H230300   3.762   2.280  11.508 -1.5980 -1.1215 -0.4373
 2937TIP3   OH230301   5.155   1.938  16.718  0.0394  0.4145  0.2804
 2937TIP3    H130302   5.163   2.026  16.682  0.9146  0.6682  1.0533
 2937TIP3    H230303   5.061   1.919  16.713 -0.1366  1.3211 -0.0518
 2938TIP3   OH230304   4.213   4.068   0.316  0.0760  0.5312  0.2024
 2938TIP3    H130305   4.137   4.069   0.258  0.7492  0.3414 -0.7116
 2938TIP3    H230306   4.277   4.013   0.271  0.4372 -0.0713  1.3860
 2939TIP3   OH230307   0.689   0.606   3.610 -0.0587  0.6173 -0.3522
 2939TIP3    H130308   0.736   0.645   3.684 -1.5903 -1.2417  1.7407
 2939TIP3    H230309   0.713   0.513   3.613 -2.3425 -0.0140 -0.3955
 2940TIP3   OH230310   4.267   6.148   1.417 -0.1617 -0.3768  0.0250
 2940TIP3    H130311   4.275   6.238   1.386 -1.0680 -0.1774  0.3244
 2940TIP3    H230312   4.278   6.094   1.339  0.9739 -0.0466 -0.0640
 2941TIP3   OH230313   0.905   2.555  13.347 -0.1731 -0.7789  0.0167
 2941TIP3    H130314   0.814   2.572  13.372 -0.7823 -1.3380 -1.6739
 2941TIP3    H230315   0.905   2.464  13.319  0.3904 -0.2233 -1.9970
 2942TIP3   OH230316   2.223   5.718  12.598 -0.7244  0.6998  0.1689
 2942TIP3    H130317   2.190   5.792  12.649 -0.3532 -0.1437  1.6791
 2942TIP3    H230318   2.307   5.696  12.639 -0.0752  0.4343 -1.2566
 2943TIP3   OH230319   4.561   0.331   4.283 -0.2895 -0.5874 -0.1699
 2943TIP3    H130320   4.515   0.320   4.365 -2.7435 -0.4724 -1.4508
 2943TIP3    H230321   4.511   0.397   4.236  0.9073 -0.8113 -1.8434
 2944TIP3   OH230322   4.401   6.195  15.152 -0.4908 -0.3817  0.5709
 2944TIP3    H130323   4.480   6.168  15.106 -1.2324 -0.3595 -0.7511
 2944TIP3    H230324   4.330   6.151  15.106 -1.1552 -1.6164  2.6621
 2945TIP3   OH230325   5.727   3.410  13.911  0.0199  0.1254  0.2760
 2945TIP3    H130326   5.788   3.448  13.974  0.3874 -0.4225  0.2563
 2945TIP3    H230327   5.656   3.375  13.964  0.3564 -0.3847  0.3932
 2946TIP3   OH230328   1.649   0.694  13.947 -0.2482  0.5948  0.0265
 2946TIP3    H130329   1.683   0.654  14.027  1.1967  1.5658 -0.0580
 2946TIP3    H230330   1.569   0.739  13.975  0.5101  1.3579  1.0636
 2947TIP3   OH230331   0.487   0.452  12.948 -0.5045 -0.1513 -0.5598
 2947TIP3    H130332   0.579   0.465  12.925 -0.4436 -0.7506 -0.6704
 2947TIP3    H230333   0.488   0.434  13.042 -0.7034  1.7765 -0.1615
 2948TIP3   OH230334   3.683   6.260  17.078 -0.1983 -0.3144  0.6118
 2948TIP3    H130335   3.732   6.293  17.003  0.1762 -1.1587  0.4692
 2948TIP3    H230336   3.593   6.288  17.063  0.3285  1.9005  1.2408
 2949TIP3   OH230337   5.794   2.383   4.616  0.0554  0.2750  0.0560
 2949TIP3    H130338   5.865   2.396   4.679  1.1615  2.0036 -1.4759
 2949TIP3    H230339   5.772   2.290   4.624 -0.1778  0.4977  3.2929
 2950TIP3   OH230340   4.161   1.319  10.587 -0.0199 -0.2315  0.3417
 2950TIP3    H130341   4.126   1.408  10.594  1.2096  0.3210 -0.3545
 2950TIP3    H230342   4.125   1.274  10.664 -0.5667  0.8891  0.7707
 2951TIP3   OH230343   2.696   6.614   1.055 -0.8772  0.0574 -0.3548
 2951TIP3    H130344   2.660   6.702   1.070 -2.0993 -0.0530 -2.2579
 2951TIP3    H230345   2.751   6.624   0.978 -0.4617 -0.7223 -0.1666
 2952TIP3   OH230346   4.810   3.181   2.507  0.1077  0.5777  0.1331
 2952TIP3    H130347   4.818   3.126   2.429  0.6032 -0.0696  0.6329
 2952TIP3    H230348   4.884   3.242   2.501  1.8505 -1.2810  1.4941
 2953TIP3   OH230349   2.764   6.399  12.646  0.7391 -0.0856 -0.3654
 2953TIP3    H130350   2.740   6.447  12.726 -0.2481 -0.1039 -0.6351
 2953TIP3    H230351   2.841   6.446  12.613 -0.9420  2.2050 -1.3300
 2954TIP3   OH230352   6.410   5.008   5.591 -0.5020 -0.1817 -0.2714
 2954TIP3    H130353   6.423   5.095   5.554  2.0801 -0.0858  0.6587
 2954TIP3    H230354   6.340   5.020   5.655 -1.7384  0.6659 -1.7097
 2955TIP3   OH230355   2.364   0.093   6.154  0.4510  0.3425  0.3039
 2955TIP3    H130356   2.350   0.169   6.098 -0.0601 -0.5536 -0.8293
 2955TIP3    H230357   2.457   0.072   6.143  0.8758  1.4885  1.5437
 2956TIP3   OH230358   4.460   4.568   3.863  0.5041  0.3532 -0.3180
 2956TIP3    H130359   4.436   4.617   3.942  0.1348 -1.6685  0.8866
 2956TIP3    H230360   4.546   4.531   3.882  1.7078  2.0801 -2.0112
 2957TIP3   OH230361   2.969   3.466  16.364 -0.5129  0.0055  0.1266
 2957TIP3    H130362   2.915   3.390  16.340 -0.3720  0.2308 -0.9894
 2957TIP3    H230363   3.033   3.472  16.293  0.4993  0.2101  1.0324
 2958TIP3   OH230364   6.736   5.816   1.243 -0.3700  0.4274 -0.0990
 2958TIP3    H130365   6.670   5.808   1.312  0.4922  1.1621  0.8497
 2958TIP3    H230366   6.814   5.848   1.288  0.1243  1.2828 -1.4789
 2959TIP3   OH230367   1.230   5.713   0.046  0.4713 -0.3155 -0.2388
 2959TIP3    H130368   1.217   5.716  -0.049 -1.3641 -0.5630 -0.0293
 2959TIP3    H230369   1.208   5.624   0.071 -0.4787  0.1288  0.5800
 2960TIP3   OH230370   5.213   4.283  15.185  0.6070  0.0919 -0.5089
 2960TIP3    H130371   5.266   4.257  15.261  0.8032  0.9984 -0.3102
 2960TIP3    H230372   5.167   4.204  15.158 -0.0929 -0.0893  1.0722
 2961TIP3   OH230373   0.130   3.434  11.764 -0.0376 -0.5464  1.0047
 2961TIP3    H130374   0.085   3.355  11.796 -1.8188 -0.4315 -0.9852
 2961TIP3    H230375   0.220   3.406  11.750 -1.0251 -2.9720 -1.6197
 2962TIP3   OH230376   5.852   4.525   5.734 -0.2644 -0.6229  0.1318
 2962TIP3    H130377   5.869   4.611   5.774 -0.3290 -0.2733 -0.5831
 2962TIP3    H230378   5.790   4.483   5.793 -0.6561  0.0413  0.2052
 2963TIP3   OH230379   6.459   5.724  10.463 -0.0613 -0.4277 -0.7808
 2963TIP3    H130380   6.450   5.634  10.493  2.1228 -0.2160  0.7350
 2963TIP3    H230381   6.399   5.774  10.519  0.7959 -0.6177  0.3494
 2964TIP3   OH230382   0.397   0.645   3.341  0.4303 -0.3322  0.4431
 2964TIP3    H130383   0.434   0.621   3.256 -2.0489 -0.9978 -0.5246
 2964TIP3    H230384   0.308   0.609   3.340 -0.3606  1.3463  2.5365
 2965TIP3   OH230385   1.558   4.969   6.190 -0.0587  0.0022  0.3228
 2965TIP3    H130386   1.517   4.886   6.210  0.0215 -0.2381 -0.5002
 2965TIP3    H230387   1.630   4.976   6.254  2.0418 -2.1226 -1.6341
 2966TIP3   OH230388   3.325   5.257  12.982  0.1389 -0.2093 -0.1221
 2966TIP3    H130389   3.388   5.187  12.968 -2.1010 -2.2876 -0.5726
 2966TIP3    H230390   3.242   5.221  12.949 -1.3759  2.2056  0.7933
 2967TIP3   OH230391   4.747   5.217  12.633 -0.5225 -0.2205 -0.2949
 2967TIP3    H130392   4.681   5.166  12.586 -0.3535 -0.8172  0.1188
 2967TIP3    H230393   4.819   5.156  12.649 -0.6335 -0.0756  0.8672
 2968TIP3   OH230394   1.129   0.456  13.099 -0.0439 -0.2943 -0.0761
 2968TIP3    H130395   1.059   0.405  13.140 -0.9482  1.9301  1.2932
 2968TIP3    H230396   1.100   0.547  13.104  3.4353  0.9142  1.6653
 2969TIP3   OH230397   6.411   5.315   4.476 -0.4514  0.6974  0.6520
 2969TIP3    H130398   6.459   5.398   4.479  1.7195 -0.4637  0.7684
 2969TIP3    H230399   6.438   5.275   4.393 -0.9543 -0.1436  0.8818
 2970TIP3   OH230400   1.947   2.971   4.905 -0.4251  0.9570  1.0050
 2970TIP3    H130401   1.887   2.901   4.878  0.1156 -0.5196  3.2465
 2970TIP3    H230402   1.904   3.052   4.877 -1.6271 -0.1971 -0.7219
 2971TIP3   OH230403   1.713   2.263   3.674  0.1140 -0.0369  0.1894
 2971TIP3    H130404   1.649   2.247   3.743 -2.0675  0.4145 -1.6005
 2971TIP3    H230405   1.715   2.182   3.623  0.9663 -0.0220  0.1721
 2972TIP3   OH230406   4.631   2.484  10.398 -0.1697  0.6804 -0.1702
 2972TIP3    H130407   4.668   2.544  10.463  0.5734  1.2304 -1.0765
 2972TIP3    H230408   4.537   2.482  10.418  0.1219  0.4251  1.2358
 2973TIP3   OH230409   1.179   1.971  12.863 -0.1958 -0.0970 -0.7695
 2973TIP3    H130410   1.256   1.983  12.808 -1.0574  0.7132 -1.8645
 2973TIP3    H230411   1.205   2.004  12.949  0.5011  0.7228 -1.2786
 2974TIP3   OH230412   5.409   5.653  12.569 -0.1295  0.5244 -0.2261
 2974TIP3    H130413   5.502   5.674  12.571  0.8099 -2.7490 -2.0936
 2974TIP3    H230414   5.374   5.707  12.498  0.7051  0.5921 -0.6032
 2975TIP3   OH230415   2.371   3.625  14.501  0.0246  0.1067 -0.0003
 2975TIP3    H130416   2.372   3.687  14.428 -0.8114  0.7223  0.4943
 2975TIP3    H230417   2.402   3.543  14.463  2.1000  1.0320 -0.4513
 2976TIP3   OH230418   2.526   6.315  16.744  0.1306 -0.0123 -0.0030
 2976TIP3    H130419   2.595   6.294  16.806 -1.0660 -2.7951  0.5493
 2976TIP3    H230420   2.561   6.289  16.659  0.4834  0.4697 -0.0053
 2977TIP3   OH230421   6.743   3.230   2.227 -0.2536 -0.1416 -0.4497
 2977TIP3    H130422   6.720   3.141   2.255 -0.3070  0.5932  2.1330
 2977TIP3    H230423   6.810   3.258   2.289 -0.0197  1.5308 -1.3944
 2978TIP3   OH230424   0.231   1.419  12.955 -0.0717 -0.4177  0.5200
 2978TIP3    H130425   0.319   1.444  12.928  1.0113 -2.7861  1.5714
 2978TIP3    H230426   0.174   1.460  12.890  1.8669  0.2738 -0.8587
 2979TIP3   OH230427   2.296   6.628   4.369 -0.1775  0.3708 -0.6594
 2979TIP3    H130428   2.225   6.670   4.417 -0.1989 -1.4727  1.0530
 2979TIP3    H230429   2.255   6.596   4.289 -1.2686 -0.4719  0.2034
 2980TIP3   OH230430   5.673   6.765   3.210 -0.3075 -0.3109 -0.0233
 2980TIP3    H130431   5.638   6.723   3.289 -1.9049 -1.5009 -1.3068
 2980TIP3    H230432   5.609   6.834   3.189 -0.1137 -0.2723 -0.5004
 2981TIP3   OH230433   1.315   3.059  10.952  0.6014 -0.2302 -0.2079
 2981TIP3    H130434   1.400   3.075  10.912  0.8658  0.5087  0.6106
 2981TIP3    H230435   1.291   2.970  10.924  0.9545  0.1041 -1.6248
 2982TIP3   OH230436   0.102   0.285   3.020 -0.3727 -0.3953 -0.2381
 2982TIP3    H130437   0.174   0.231   2.987 -0.9313 -0.2656 -1.7349
 2982TIP3    H230438   0.041   0.291   2.947 -2.2568 -1.0735  1.1970
 2983TIP3   OH230439   5.924   2.300   2.524 -0.2957 -0.0795 -0.5456
 2983TIP3    H130440   5.833   2.308   2.550 -0.7385 -2.0992 -1.2794
 2983TIP3    H230441   5.937   2.206   2.509  1.9233  0.1409 -0.4081
 2984TIP3   OH230442   1.185   2.112  15.465 -0.4693 -0.0951 -0.1279
 2984TIP3    H130443   1.217   2.106  15.555 -3.3680  0.6958  1.0472
 2984TIP3    H230444   1.190   2.022  15.432 -1.1787 -0.7838  1.5255
 2985TIP3   OH230445   2.881   1.088   2.037  0.1120 -0.3618 -0.0618
 2985TIP3    H130446   2.950   1.127   1.983 -0.2320 -0.2704 -0.4452
 2985TIP3    H230447   2.920   1.079   2.123 -0.5245  3.1326  0.7530
 2986TIP3   OH230448   0.400   3.327   4.938 -0.7088 -0.4099 -0.1472
 2986TIP3    H130449   0.496   3.324   4.932 -0.6209 -0.1725  0.9891
 2986TIP3    H230450   0.378   3.258   5.000 -1.2999 -0.5888 -0.5468
 2987TIP3   OH230451   4.998   2.759  13.615 -0.0417 -0.0238 -0.4185
 2987TIP3    H130452   5.032   2.769  13.526 -1.5353 -0.1215 -1.0435
 2987TIP3    H230453   5.056   2.695  13.656  1.1016  0.5632 -1.0714
 2988TIP3   OH230454   3.758   0.785  11.838 -0.0057 -0.0587  0.1228
 2988TIP3    H130455   3.779   0.702  11.795 -0.5397 -0.8695  1.3767
 2988TIP3    H230456   3.735   0.844  11.766  1.6270 -0.6004 -0.8938
 2989TIP3   OH230457   6.546   6.398   2.003  0.3588 -0.0525  0.9049
 2989TIP3    H130458   6.485   6.408   2.076  0.6163 -0.5080  1.1910
 2989TIP3    H230459   6.570   6.305   2.005 -0.4172 -0.3107 -0.3970
 2990TIP3   OH230460   5.828   0.152   1.304  0.2748 -0.0408  0.1346
 2990TIP3    H130461   5.906   0.100   1.321  0.5039 -0.4546 -1.9695
 2990TIP3    H230462   5.768   0.093   1.258  0.5466  1.4496 -2.3135
 2991TIP3   OH230463   4.181   5.725  16.333 -0.1855  0.6772  0.2514
 2991TIP3    H130464   4.237   5.750  16.407 -1.2637  2.0588  0.6459
 2991TIP3    H230465   4.234   5.744  16.255  0.1785  1.2470  0.6316
 2992TIP3   OH230466   5.243   1.870  10.438  0.0516  0.0447 -0.2933
 2992TIP3    H130467   5.212   1.809  10.504 -0.4647 -1.2811 -1.6946
 2992TIP3    H230468   5.183   1.859  10.364 -0.0171  2.2318 -0.6289
 2993TIP3   OH230469   1.120   6.194  15.446  0.0328  0.9690  0.1542
 2993TIP3    H130470   1.079   6.139  15.381  1.1545 -2.1912  1.9039
 2993TIP3    H230471   1.078   6.279  15.436 -2.4584 -0.3929 -2.1372
 2994TIP3   OH230472   0.924   3.875  14.559 -0.6703 -0.5695  0.4978
 2994TIP3    H130473   0.913   3.969  14.570  0.8322 -0.2376 -0.4784
 2994TIP3    H230474   0.848   3.836  14.603 -1.1271  1.0658  1.2266
 2995TIP3   OH230475   4.977   2.597   4.596  0.0216  0.4300 -0.5914
 2995TIP3    H130476   4.907   2.572   4.536 -0.3160  1.0331 -0.4609
 2995TIP3    H230477   4.934   2.652   4.662  0.5569  0.5311 -0.3191
 2996TIP3   OH230478   2.767   4.959   6.018  0.3900  0.3758  0.2150
 2996TIP3    H130479   2.787   4.969   6.111  1.1411  1.7676 -0.0655
 2996TIP3    H230480   2.704   5.029   6.000  0.0604 -0.0407 -0.2730
 2997TIP3   OH230481   3.541   6.162   2.812 -0.0295 -0.0450  0.4786
 2997TIP3    H130482   3.550   6.222   2.886 -0.4070 -0.2142  0.6662
 2997TIP3    H230483   3.563   6.076   2.847 -0.4125 -0.1572  0.4502
 2998TIP3   OH230484   1.520   4.642  16.114  0.9897 -0.3451 -0.1323
 2998TIP3    H130485   1.469   4.709  16.160  0.1147  0.0252 -1.5568
 2998TIP3    H230486   1.611   4.669  16.126  0.7615 -0.0155  0.9795
 2999TIP3   OH230487   1.808   5.617  11.057 -0.4072  0.3069  0.4487
 2999TIP3    H130488   1.898   5.650  11.064  0.0047 -0.0297 -2.2385
 2999TIP3    H230489   1.760   5.689  11.015 -1.1919  0.1361  1.0367
 3000TIP3   OH230490   0.457   6.051   0.526  0.0497 -0.0617  0.5173
 3000TIP3    H130491   0.416   5.967   0.505 -1.2094 -0.4041  3.8002
 3000TIP3    H230492   0.484   6.087   0.441 -0.1369 -3.3506 -1.0673
 3001TIP3   OH230493   1.558   5.126   5.413  0.1059 -0.0945  0.3359
 3001TIP3    H130494   1.495   5.198   5.404  0.8121  0.7735  1.8929
 3001TIP3    H230495   1.588   5.109   5.324 -2.3060 -0.5456 -0.4713
 3002TIP3   OH230496   4.273   4.148  15.084 -0.2229 -0.2243  0.1589
 3002TIP3    H130497   4.311   4.095  15.015  0.1947 -1.2821  1.1626
 3002TIP3    H230498   4.325   4.228  15.084 -0.2627 -0.1888 -0.7720
 3003TIP3   OH230499   1.195   3.097  15.277  0.1693  0.3284 -0.0077
 3003TIP3    H130500   1.139   3.098  15.355 -1.6042  0.2063 -1.2025
 3003TIP3    H230501   1.160   3.026  15.223 -0.4741  2.1243 -2.1143
 3004TIP3   OH230502   1.857   6.415   5.095  0.2776  0.0261 -0.3564
 3004TIP3    H130503   1.931   6.458   5.137  0.9405  1.0803 -2.4643
 3004TIP3    H230504   1.792   6.484   5.085 -0.7580 -0.7326  0.8561
 3005TIP3   OH230505   3.670   4.660  11.422 -0.1414  0.3977 -0.3967
 3005TIP3    H130506   3.716   4.735  11.382 -1.6253  1.2949 -0.5026
 3005TIP3    H230507   3.639   4.609  11.348 -0.8228  0.7541 -0.3610
 3006TIP3   OH230508   4.971   2.591   2.944 -0.1435  1.1160  0.4233
 3006TIP3    H130509   5.063   2.571   2.961  0.1390  0.0790 -1.9500
 3006TIP3    H230510   4.968   2.687   2.942  0.4328  1.2368  2.4337
 3007TIP3   OH230511   3.736   2.888  14.641  0.2978 -0.3075 -0.2929
 3007TIP3    H130512   3.822   2.893  14.682  0.6272  1.0608 -1.0685
 3007TIP3    H230513   3.684   2.953  14.687  0.3624  0.4700 -1.2625
 3008TIP3   OH230514   5.868   4.414   1.420 -0.2152  0.3041  0.0433
 3008TIP3    H130515   5.802   4.347   1.436 -1.3929  1.6155  0.9603
 3008TIP3    H230516   5.878   4.459   1.504  1.6658  0.3240 -0.1526
 3009TIP3   OH230517   5.520   5.644  12.098 -0.0070 -0.1700 -0.0881
 3009TIP3    H130518   5.561   5.709  12.154 -0.4512 -1.1413  1.4179
 3009TIP3    H230519   5.591   5.585  12.073  0.3558  0.7360 -1.2931
 3010TIP3   OH230520   3.911   5.263   5.397  0.1824 -0.0479  0.0772
 3010TIP3    H130521   3.909   5.285   5.490  0.0397 -1.6036  0.4582
 3010TIP3    H230522   3.882   5.344   5.354  1.0027  0.9597  1.3095
 3011TIP3   OH230523   2.673   5.555  11.725  0.7405 -0.1314 -0.5523
 3011TIP3    H130524   2.707   5.643  11.745  0.1396  0.3355 -1.4869
 3011TIP3    H230525   2.638   5.563  11.636 -1.0495 -0.8215  0.0469
 3012TIP3   OH230526   4.862   2.108  12.176 -0.4112 -0.2816 -0.3390
 3012TIP3    H130527   4.896   2.034  12.228  2.8140  1.1846 -0.0922
 3012TIP3    H230528   4.923   2.115  12.102 -1.2214  1.5335 -0.8961
 3013TIP3   OH230529   0.563   0.966   0.614  0.8401 -0.3662  0.2362
 3013TIP3    H130530   0.636   1.016   0.577  0.5427  0.6977  1.0551
 3013TIP3    H230531   0.583   0.960   0.708 -0.2732  0.2027  0.5192
 3014TIP3   OH230532   3.942   0.947   3.372  0.3265 -0.4229  0.8630
 3014TIP3    H130533   3.936   0.898   3.454  0.8077 -0.4006  0.9123
 3014TIP3    H230534   3.901   1.031   3.392 -2.4701 -1.5135  0.1811
 3015TIP3   OH230535   0.013   1.104  15.993 -1.0431  0.1583  0.0282
 3015TIP3    H130536  -0.047   1.155  15.940 -1.4767 -1.9942 -1.7006
 3015TIP3    H230537  -0.018   1.014  15.986  1.4527 -0.8309  0.3213
 3016TIP3   OH230538   3.856   4.805  15.602 -0.4988 -0.1398 -0.8239
 3016TIP3    H130539   3.845   4.789  15.509  0.0533 -0.1144 -0.8967
 3016TIP3    H230540   3.854   4.900  15.611  1.6430 -0.0177 -1.1179
 3017TIP3   OH230541   2.503   4.965   0.069 -0.2417  0.3380  0.1010
 3017TIP3    H130542   2.575   4.907   0.093  0.4565  0.5630 -1.3074
 3017TIP3    H230543   2.441   4.909   0.022  0.3713  0.6570 -1.1444
 3018TIP3   OH230544   2.035   2.858  10.896 -0.5280 -0.3126  0.3099
 3018TIP3    H130545   2.116   2.831  10.939  0.7386  1.6928 -0.6764
 3018TIP3    H230546   2.029   2.952  10.911 -0.4737  0.3596 -2.9686
 3019TIP3   OH230547   1.526   2.037  16.211 -0.0620  0.4345  0.2908
 3019TIP3    H130548   1.510   1.973  16.280 -0.1093 -1.3894 -1.3336
 3019TIP3    H230549   1.593   2.095  16.247  0.2127 -0.7226  1.7179
 3020TIP3   OH230550   4.975   1.211  11.879  0.0543 -0.6449  0.0358
 3020TIP3    H130551   4.926   1.227  11.960 -0.2109 -0.2162 -0.1989
 3020TIP3    H230552   4.996   1.299  11.847  1.6475 -0.8372  0.5161
 3021TIP3   OH230553   2.373   3.830  11.647 -0.1317 -0.4060 -0.1537
 3021TIP3    H130554   2.321   3.759  11.608 -0.4732 -1.0303  1.3175
 3021TIP3    H230555   2.387   3.801  11.738 -1.3259  1.9417  0.8745
 3022TIP3   OH230556   1.229   1.307   2.347 -0.4774 -0.5929  0.1568
 3022TIP3    H130557   1.144   1.289   2.387  0.0060 -0.7067  1.1661
 3022TIP3    H230558   1.291   1.255   2.398  0.4812  1.1554  0.8356
 3023TIP3   OH230559   5.827   6.382  11.662 -0.2196 -0.5367 -0.4473
 3023TIP3    H130560   5.818   6.321  11.589 -0.1214 -1.7933  0.5584
 3023TIP3    H230561   5.744   6.428  11.666 -1.2952 -2.4458  0.3600
 3024TIP3   OH230562   4.365   3.967  16.309 -0.2557  0.3927 -0.2113
 3024TIP3    H130563   4.273   3.943  16.322 -0.0939  0.5632  1.4107
 3024TIP3    H230564   4.414   3.891  16.339  0.1557  0.8565  0.3183
 3025TIP3   OH230565   3.810   4.311   4.008  0.5294  0.7474  0.2760
 3025TIP3    H130566   3.773   4.396   3.984 -3.4289 -0.3956  1.6351
 3025TIP3    H230567   3.808   4.310   4.103 -1.9980 -1.7104  0.3079
 3026TIP3   OH230568   4.701   2.042   0.431 -0.0674  0.8205 -0.5814
 3026TIP3    H130569   4.771   2.107   0.436 -0.8065  1.7491 -1.6962
 3026TIP3    H230570   4.649   2.057   0.510 -0.6898  2.1724 -1.2050
 3027TIP3   OH230571   1.318   1.514  16.915  0.4253  0.1510  0.1947
 3027TIP3    H130572   1.387   1.450  16.927  0.5068  0.1852 -0.0785
 3027TIP3    H230573   1.255   1.471  16.857 -0.6679 -0.5520  1.8436
 3028TIP3   OH230574   5.395   2.403  12.322 -0.5539  0.3888  0.0219
 3028TIP3    H130575   5.420   2.315  12.349  1.9239  0.2812 -2.1856
 3028TIP3    H230576   5.345   2.389  12.242 -0.0733  0.9440 -0.3849
 3029TIP3   OH230577   3.142   3.482   1.585 -0.1048  0.3122  0.0490
 3029TIP3    H130578   3.095   3.541   1.645 -0.6264  0.9538 -0.9493
 3029TIP3    H230579   3.218   3.532   1.557 -0.3669  0.3920 -0.5409
 3030TIP3   OH230580   0.631   5.085   1.390  0.5026  0.0415  0.3487
 3030TIP3    H130581   0.701   5.131   1.344 -0.0407 -0.9279 -1.5884
 3030TIP3    H230582   0.599   5.021   1.326 -0.3488 -1.3826  2.1007
 3031TIP3   OH230583   5.669   1.585  16.905 -0.4094 -0.2455 -0.0907
 3031TIP3    H130584   5.633   1.610  16.820  1.2740  0.9347 -0.4992
 3031TIP3    H230585   5.759   1.560  16.886  0.5555  1.7155  1.5352
 3032TIP3   OH230586   2.596   3.346   0.372 -0.1339  0.1242 -0.2631
 3032TIP3    H130587   2.558   3.418   0.422 -1.2927 -0.6021 -0.0563
 3032TIP3    H230588   2.655   3.388   0.309  2.3344  1.0216  2.4230
 3033TIP3   OH230589   0.412   6.713   4.519 -0.2090  0.0599  0.6618
 3033TIP3    H130590   0.399   6.783   4.455  1.0675 -0.8347 -0.6447
 3033TIP3    H230591   0.475   6.749   4.582 -0.0136  0.2939  0.3356
 3034TIP3   OH230592   0.132   5.094  13.320  0.3251  0.2259  0.2513
 3034TIP3    H130593   0.193   5.078  13.393 -0.8924 -0.2217  1.1934
 3034TIP3    H230594   0.136   5.014  13.268 -1.0203 -0.6916  1.4904
 3035TIP3   OH230595   0.612   4.645  12.692  0.2993  0.2809  0.2861
 3035TIP3    H130596   0.581   4.693  12.769 -2.7036 -2.5131  1.0437
 3035TIP3    H230597   0.557   4.678  12.621  2.0465  1.7731 -0.4623
 3036TIP3   OH230598   1.427   6.189  13.174  0.0455 -0.2336  0.4187
 3036TIP3    H130599   1.364   6.179  13.103  0.6870  2.4766 -0.6441
 3036TIP3    H230600   1.378   6.233  13.243  0.1798 -0.1690  0.4727
 3037TIP3   OH230601   4.383   5.577   6.906  0.0396 -0.1003  0.1405
 3037TIP3    H130602   4.332   5.510   6.861  0.7542 -0.1548 -0.6011
 3037TIP3    H230603   4.461   5.589   6.852 -0.5550  2.1027 -0.3171
 3038TIP3   OH230604   2.047   3.707  14.203  0.7951  0.5038 -0.2369
 3038TIP3    H130605   1.981   3.746  14.146  0.9980  1.4568  0.1592
 3038TIP3    H230606   2.114   3.673  14.144  0.7104  0.9477 -0.5955
 3039TIP3   OH230607   3.692   6.028   6.069  0.1819  0.0878 -0.0121
 3039TIP3    H130608   3.633   5.958   6.100  1.7626 -2.2539 -1.9199
 3039TIP3    H230609   3.633   6.097   6.039 -1.5506 -1.1748  0.3060
 3040TIP3   OH230610   2.963   5.544  11.498 -0.2088  0.1049  0.1636
 3040TIP3    H130611   2.927   5.457  11.483 -0.4190  0.2790 -0.3932
 3040TIP3    H230612   3.022   5.534  11.572  0.0158 -0.5729 -0.1044
 3041TIP3   OH230613   1.950   5.814  16.252  0.1300 -0.1129 -0.0036
 3041TIP3    H130614   1.859   5.793  16.269  0.0044 -0.5742 -1.1964
 3041TIP3    H230615   1.990   5.820  16.339 -0.6153 -1.7468  0.4723
 3042TIP3   OH230616   2.493   5.021   3.735 -0.4404 -0.2879  0.1031
 3042TIP3    H130617   2.475   5.063   3.650 -0.3761 -0.1983  0.1333
 3042TIP3    H230618   2.559   4.955   3.715  0.5793  0.6370  0.3069
 3043TIP3   OH230619   3.352   2.030  16.878 -0.3370  0.2871 -0.4288
 3043TIP3    H130620   3.407   2.106  16.899  0.5010  0.0005 -1.4871
 3043TIP3    H230621   3.298   2.059  16.804 -0.2445 -0.0339 -0.6254
 3044TIP3   OH230622   2.171   0.684  11.224 -0.3310 -0.1318  0.0400
 3044TIP3    H130623   2.236   0.651  11.286 -0.7386 -0.3225  0.3728
 3044TIP3    H230624   2.184   0.778  11.224  1.6981 -0.3376 -1.8722
 3045TIP3   OH230625   5.634   3.241  13.678  0.9165  0.0842  0.5031
 3045TIP3    H130626   5.582   3.186  13.737  2.7393 -1.9150  0.3933
 3045TIP3    H230627   5.706   3.272  13.733  0.9233  0.8101  0.0844
 3046TIP3   OH230628   4.266   6.354   3.677  0.0082  0.3581 -0.2966
 3046TIP3    H130629   4.286   6.316   3.591 -3.9269  2.6678 -2.5070
 3046TIP3    H230630   4.335   6.419   3.690  2.2130 -1.8176 -0.2344
 3047TIP3   OH230631   2.759   5.223   5.135  0.4583 -0.5226 -0.4776
 3047TIP3    H130632   2.830   5.233   5.199 -0.2813 -0.3295  0.3321
 3047TIP3    H230633   2.777   5.290   5.069  2.0700 -1.7031 -1.3027
 3048TIP3   OH230634   5.946   2.154   3.492  0.0966 -0.2375 -0.0370
 3048TIP3    H130635   5.907   2.241   3.491  2.1575  0.9563 -4.5088
 3048TIP3    H230636   5.878   2.097   3.457 -0.9526 -0.3587  2.0532
 3049TIP3   OH230637   6.218   2.342  11.314 -0.3308  0.7671 -0.6973
 3049TIP3    H130638   6.188   2.333  11.224 -1.0198 -2.0449 -0.3030
 3049TIP3    H230639   6.308   2.308  11.313 -0.8745 -0.8123 -0.1407
 3050TIP3   OH230640   2.771   2.053  16.107 -0.3054 -0.4066  0.1752
 3050TIP3    H130641   2.776   2.148  16.095 -1.3726 -0.3128  0.3036
 3050TIP3    H230642   2.737   2.042  16.196  1.6553 -0.9642  0.8987
 3051TIP3   OH230643   5.101   1.957   2.420 -0.1469 -0.0211 -0.6614
 3051TIP3    H130644   5.078   1.953   2.327 -0.4719 -0.4214 -0.5693
 3051TIP3    H230645   5.151   2.037   2.429  0.4661 -0.3238 -1.3093
 3052TIP3   OH230646   5.122   0.747  12.229 -0.1249 -0.0576 -0.2211
 3052TIP3    H130647   5.174   0.817  12.190 -0.0015 -0.1433 -0.2123
 3052TIP3    H230648   5.098   0.781  12.316  0.7548 -0.4133  0.1662
 3053TIP3   OH230649   1.754   0.290   5.095  0.1756  0.5051  0.3336
 3053TIP3    H130650   1.823   0.356   5.093  0.1032  0.6388  1.6054
 3053TIP3    H230651   1.724   0.289   5.186  0.7206 -1.8455  0.5379
 3054TIP3   OH230652   4.677   0.008   3.928 -0.0086 -0.5887 -0.2238
 3054TIP3    H130653   4.720  -0.076   3.947  0.1433 -0.2750  0.8542
 3054TIP3    H230654   4.619   0.023   4.003 -0.7949 -0.2064 -0.8841
 3055TIP3   OH230655   1.189   0.605  16.182  0.4424  0.2838 -0.1624
 3055TIP3    H130656   1.203   0.673  16.248  0.1023 -0.9217  1.2047
 3055TIP3    H230657   1.172   0.653  16.101  0.9025  1.8075  0.6077
 3056TIP3   OH230658   0.158   0.115  11.928 -0.3249 -0.5467 -0.2786
 3056TIP3    H130659   0.085   0.055  11.943 -1.5158  0.3201 -2.2328
 3056TIP3    H230660   0.193   0.132  12.015 -1.8524 -1.7231  0.6198
 3057TIP3   OH230661   6.576   1.342  11.843  0.8661 -0.2209  0.4830
 3057TIP3    H130662   6.558   1.366  11.752 -1.2819  1.2149  1.2125
 3057TIP3    H230663   6.672   1.334  11.847  1.1891  1.6741 -1.4323
 3058TIP3   OH230664   4.886   0.530   3.058  0.2029  0.6082  0.1294
 3058TIP3    H130665   4.851   0.444   3.079  1.0722 -0.0352 -0.9567
 3058TIP3    H230666   4.810   0.580   3.026  0.1083 -0.5398 -1.5335
 3059TIP3   OH230667   0.448   1.226   4.826  0.3008 -1.0103  0.2508
 3059TIP3    H130668   0.445   1.319   4.807  0.1269 -1.5149 -2.6988
 3059TIP3    H230669   0.490   1.220   4.911  3.2300  1.6204 -0.8289
 3060TIP3   OH230670   0.527   1.409  13.998 -0.3076  0.0475  0.2074
 3060TIP3    H130671   0.465   1.338  13.981 -0.2539  0.0371  0.0576
 3060TIP3    H230672   0.488   1.486  13.959 -0.5664  0.1910  0.7357
 3061TIP3   OH230673   4.392   4.288  11.561 -0.2400 -0.0211  0.1256
 3061TIP3    H130674   4.402   4.294  11.467  2.2192 -0.6058  0.2784
 3061TIP3    H230675   4.320   4.347  11.582  0.9094  2.2084 -1.8313
 3062TIP3   OH230676   3.610   5.301  13.845  0.3213 -0.1039 -0.3911
 3062TIP3    H130677   3.634   5.218  13.804 -0.8284  0.0256 -1.3814
 3062TIP3    H230678   3.539   5.278  13.905  0.0913  0.1280 -0.5701
 3063TIP3   OH230679   6.071   2.474  12.429  0.0417  0.7206 -0.6177
 3063TIP3    H130680   6.106   2.488  12.517  1.7328 -0.6461 -1.0339
 3063TIP3    H230681   6.051   2.381  12.425  0.7275  0.6119 -1.9295
 3064TIP3   OH230682   3.266   3.882   3.032  0.5349 -0.0104  0.2534
 3064TIP3    H130683   3.310   3.966   3.017 -0.9121  0.3522 -2.6500
 3064TIP3    H230684   3.192   3.904   3.090 -0.3660  0.9703 -1.2020
 3065TIP3   OH230685   3.851   2.028   1.726 -0.3690  0.0722  0.3839
 3065TIP3    H130686   3.786   2.084   1.683  0.8657  0.3911 -1.1560
 3065TIP3    H230687   3.920   2.089   1.753  0.6647 -0.5692 -0.6841
 3066TIP3   OH230688   0.016   6.456  16.160 -0.0963 -0.5824 -0.1751
 3066TIP3    H130689   0.021   6.504  16.243  0.8378 -2.2604  0.7822
 3066TIP3    H230690  -0.078   6.448  16.142 -0.2889  1.4301 -0.3088
 3067TIP3   OH230691   4.216   2.322  16.470 -0.3790  0.6571  0.3551
 3067TIP3    H130692   4.156   2.381  16.424 -2.3465 -0.3359  1.4654
 3067TIP3    H230693   4.158   2.254  16.506  1.6477 -1.3231  0.0733
 3068TIP3   OH230694   4.229   4.714  12.751 -0.5845 -0.6485 -0.1025
 3068TIP3    H130695   4.174   4.720  12.830  0.6759  0.7279  0.7264
 3068TIP3    H230696   4.319   4.716  12.784  0.0998 -3.9073 -1.3405
 3069TIP3   OH230697   6.669   2.863  13.120 -0.1724 -0.3633  0.1882
 3069TIP3    H130698   6.761   2.847  13.144  0.1398 -1.5459 -1.6567
 3069TIP3    H230699   6.661   2.831  13.030 -2.4801 -0.5340  0.3927
 3070TIP3   OH230700   0.867   3.932  16.770  0.1566  0.2565 -0.0815
 3070TIP3    H130701   0.936   3.924  16.836  1.7089 -2.5604 -1.8582
 3070TIP3    H230702   0.904   3.990  16.703 -0.2219  0.6693  0.0532
 3071TIP3   OH230703   0.944   1.714   1.114 -0.5104 -0.1988  0.0065
 3071TIP3    H130704   0.926   1.775   1.186  0.0647 -0.0618  0.0390
 3071TIP3    H230705   0.895   1.635   1.136  0.1476 -0.3809  0.8620
 3072TIP3   OH230706   5.906   3.932  13.719 -0.0740  0.8144 -0.1314
 3072TIP3    H130707   5.956   4.014  13.728  1.5555 -0.2178  0.6522
 3072TIP3    H230708   5.952   3.883  13.652  0.6059 -0.5899  1.3128
 3073TIP3   OH230709   1.473   0.028  16.025 -0.5869 -0.3190  0.9311
 3073TIP3    H130710   1.531   0.086  16.074  0.5784  0.4844 -1.2704
 3073TIP3    H230711   1.527  -0.006  15.953 -2.1360 -1.6132  0.3103
 3074TIP3   OH230712   4.787   5.804  15.646 -0.2963 -0.2162  0.0836
 3074TIP3    H130713   4.773   5.899  15.650  0.3148 -0.1588  1.8341
 3074TIP3    H230714   4.818   5.781  15.734 -0.8249 -2.1074 -0.1839
 3075TIP3   OH230715   0.900   6.798   0.463 -0.1269 -0.5723  0.2581
 3075TIP3    H130716   0.879   6.705   0.465 -0.4537 -0.5130 -0.2667
 3075TIP3    H230717   0.836   6.836   0.403  1.7442 -0.4642 -1.8071
 3076TIP3   OH230718   5.131   3.498   4.729 -0.4903  0.3081  0.0793
 3076TIP3    H130719   5.150   3.582   4.690 -1.4187  0.2385 -0.5491
 3076TIP3    H230720   5.041   3.479   4.703 -1.6891  0.8738  3.3006
 3077TIP3   OH230721   5.795   1.220   4.407 -0.2018 -0.1128 -0.0389
 3077TIP3    H130722   5.814   1.196   4.498 -0.3334 -0.2240 -0.0403
 3077TIP3    H230723   5.848   1.160   4.355 -0.4487 -0.3321 -0.0411
 3078TIP3   OH230724   1.096   5.000  12.794  0.0743 -0.3589  0.3739
 3078TIP3    H130725   1.007   4.965  12.800 -0.2233  0.3759  0.4435
 3078TIP3    H230726   1.140   4.966  12.872 -0.3036 -0.3115  0.6135
 3079TIP3   OH230727   1.681   5.042   0.190 -0.0402  0.4560  0.1978
 3079TIP3    H130728   1.686   5.111   0.124  0.2603 -0.0658 -0.3299
 3079TIP3    H230729   1.609   4.986   0.161 -0.4708  0.6975  0.7767
 3080TIP3   OH230730   5.671   0.318  13.572  0.0779 -0.3708  0.2520
 3080TIP3    H130731   5.662   0.244  13.513 -0.2359 -0.1220 -0.0172
 3080TIP3    H230732   5.637   0.393  13.522  1.8868  0.2695 -0.1167
 3081TIP3   OH230733   2.201   6.708   3.129 -0.1342  0.5022  0.8287
 3081TIP3    H130734   2.152   6.635   3.168 -1.3075  0.9810  0.2830
 3081TIP3    H230735   2.181   6.783   3.184 -0.9635  0.9517 -0.0509
 3082TIP3   OH230736   1.089   6.806  15.070  0.2560 -0.3041  1.0339
 3082TIP3    H130737   1.116   6.731  15.123 -1.3333 -0.4618  1.6926
 3082TIP3    H230738   0.998   6.788  15.048  0.7803 -0.1024 -1.5722
 3083TIP3   OH230739   5.960   5.443  17.108 -0.1972  0.6709  0.3426
 3083TIP3    H130740   6.014   5.378  17.062 -0.4588 -0.4639  1.5880
 3083TIP3    H230741   5.927   5.500  17.039 -0.2914 -0.7683 -0.8357
 3084TIP3   OH230742   3.123   4.119  12.849  0.0195 -0.1305  0.2284
 3084TIP3    H130743   3.211   4.149  12.826  0.1764 -0.3576  0.5211
 3084TIP3    H230744   3.115   4.138  12.943  0.3747 -1.5849  0.5770
 3085TIP3   OH230745   3.988   6.376  13.647  0.1858 -0.1397 -0.1221
 3085TIP3    H130746   3.905   6.355  13.691  0.9129 -2.1094  0.4094
 3085TIP3    H230747   3.962   6.402  13.558 -1.1186  1.2877  0.6354
 3086TIP3   OH230748   3.444   0.341  13.431  0.1495  0.0508 -0.3912
 3086TIP3    H130749   3.539   0.331  13.425  0.0743 -0.9044 -0.0482
 3086TIP3    H230750   3.410   0.252  13.431 -0.7459  0.3841 -0.4297
 3087TIP3   OH230751   6.767   2.216  15.953  0.1675  0.1552 -0.0999
 3087TIP3    H130752   6.672   2.211  15.939  0.3380  0.2887 -1.3529
 3087TIP3    H230753   6.775   2.257  16.039 -0.9261 -1.6194  0.9176
 3088TIP3   OH230754   1.042   1.289  15.869 -0.2626  0.0158  0.2103
 3088TIP3    H130755   1.022   1.227  15.939 -2.4532  1.3761  0.9311
 3088TIP3    H230756   1.137   1.293  15.865 -0.0591 -2.9386  0.4767
 3089TIP3   OH230757   6.413   1.446   2.837  0.0340  0.1083  0.5262
 3089TIP3    H130758   6.428   1.351   2.838 -1.7016 -0.2257 -0.7372
 3089TIP3    H230759   6.437   1.473   2.749  0.3119  0.8131  0.8138
 3090TIP3   OH230760   0.724   2.910  14.229 -0.0527  0.0603  0.5919
 3090TIP3    H130761   0.725   2.966  14.151  0.2631  1.1555  1.3536
 3090TIP3    H230762   0.817   2.895  14.249 -0.1369 -0.8783  0.3050
 3091TIP3   OH230763   0.793   3.812  14.957 -0.2116 -0.4523 -0.7102
 3091TIP3    H130764   0.787   3.721  14.928  0.9084 -0.8238  0.1637
 3091TIP3    H230765   0.771   3.863  14.879  1.2454 -1.4332 -1.8294
 3092TIP3   OH230766   3.794   0.863  14.203  0.2208 -0.1256  0.0099
 3092TIP3    H130767   3.755   0.789  14.157  0.1436  0.1209 -0.3333
 3092TIP3    H230768   3.800   0.835  14.294 -1.7278  0.1884  0.2870
 3093TIP3   OH230769   0.779   1.548   3.361  0.0434 -0.3424 -0.0675
 3093TIP3    H130770   0.818   1.612   3.420 -0.3500 -0.7857  0.6784
 3093TIP3    H230771   0.836   1.472   3.368 -0.6433 -0.8001  0.6160
 3094TIP3   OH230772   6.692   2.609  14.708  0.0919 -0.3586  0.1175
 3094TIP3    H130773   6.632   2.674  14.745 -0.1339 -1.3614  1.6292
 3094TIP3    H230774   6.634   2.539  14.676  0.3904 -0.5512 -0.0057
 3095TIP3   OH230775   1.893   3.645  16.443  0.1807  0.1447  0.4075
 3095TIP3    H130776   1.878   3.740  16.441 -0.4862  0.0412  0.3823
 3095TIP3    H230777   1.943   3.627  16.363  0.0975  0.4393  0.2883
 3096TIP3   OH230778   5.858   0.225  11.853  0.0450 -0.2738  0.1160
 3096TIP3    H130779   5.798   0.293  11.883  1.4683  1.6247 -1.1006
 3096TIP3    H230780   5.927   0.224  11.919 -0.2246 -0.9387  0.3991
 3097TIP3   OH230781   1.835   4.688  14.861  0.3573  0.0823  0.5123
 3097TIP3    H130782   1.783   4.678  14.941 -1.0163 -1.4370 -0.5271
 3097TIP3    H230783   1.925   4.670  14.889  0.1521  1.2262  2.0301
 3098TIP3   OH230784   3.755   2.603   2.883 -0.0666  0.4917 -0.5954
 3098TIP3    H130785   3.746   2.633   2.793  0.1363  2.4960  0.0121
 3098TIP3    H230786   3.700   2.663   2.934 -0.0920 -0.5350  0.6388
 3099TIP3   OH230787   3.024   3.420  14.560 -0.4485 -0.2002  0.5298
 3099TIP3    H130788   3.001   3.352  14.497  1.5420  0.2807 -0.8524
 3099TIP3    H230789   3.002   3.502  14.515 -0.1650  0.1198  0.9673
 3100TIP3   OH230790   5.125   5.986  16.613 -0.1667 -0.2615  0.2163
 3100TIP3    H130791   5.166   6.062  16.655 -1.6044  0.0854  1.0451
 3100TIP3    H230792   5.037   6.015  16.590  0.2187 -0.7732 -2.1619
 3101TIP3   OH230793   5.844   0.499  11.604 -0.1802 -0.1422 -0.3695
 3101TIP3    H130794   5.777   0.431  11.617  1.0893 -1.2738  0.6546
 3101TIP3    H230795   5.910   0.457  11.548  0.9134 -0.0148  0.7714
 3102TIP3   OH230796   3.897   1.107   3.894 -0.3950 -0.2624 -0.6733
 3102TIP3    H130797   3.818   1.155   3.919 -1.3391 -1.9782 -0.1895
 3102TIP3    H230798   3.946   1.168   3.840 -2.0148  0.8850 -0.9146
 3103TIP3   OH230799   1.363   0.716   2.270  0.3455 -0.4234 -0.3951
 3103TIP3    H130800   1.394   0.798   2.233  0.7120 -1.2750 -2.0728
 3103TIP3    H230801   1.382   0.651   2.203 -1.7660 -1.5694  0.0413
 3104TIP3   OH230802   3.672   3.464   0.518  0.8937 -0.0934 -0.0806
 3104TIP3    H130803   3.635   3.552   0.513  1.5245  0.1783 -0.0050
 3104TIP3    H230804   3.766   3.477   0.528  0.8828 -0.7679  1.0609
 3105TIP3   OH230805   0.750   2.339   5.718  0.0549  0.5125 -0.2144
 3105TIP3    H130806   0.799   2.401   5.665  2.2009 -1.8155 -1.1815
 3105TIP3    H230807   0.787   2.253   5.694 -1.5678 -0.9937  2.2484
 3106TIP3   OH230808   4.695   2.167  13.919  0.5808  0.6281 -0.2690
 3106TIP3    H130809   4.765   2.228  13.896 -0.9907  1.9860 -1.7351
 3106TIP3    H230810   4.637   2.218  13.975 -0.5818  0.3984 -1.2269
 3107TIP3   OH230811   1.681   2.747   1.591  0.4197 -0.4709  0.1594
 3107TIP3    H130812   1.710   2.784   1.675 -0.2566  0.4909 -0.0237
 3107TIP3    H230813   1.604   2.694   1.614  0.3404 -0.3515  0.1658
 3108TIP3   OH230814   3.124   1.909   1.953  0.6094 -0.3851  0.5802
 3108TIP3    H130815   3.178   1.986   1.964  0.3397  0.1023 -1.3031
 3108TIP3    H230816   3.034   1.940   1.966  0.4963 -0.3596 -0.2278
 3109TIP3   OH230817   1.911   4.950   1.751 -0.0914 -0.4649  0.7990
 3109TIP3    H130818   1.893   5.022   1.690 -1.8615  0.0798  1.8833
 3109TIP3    H230819   1.979   4.985   1.809 -0.0759 -0.1238  0.5829
 3110TIP3   OH230820   1.251   4.131  10.501  0.1686 -0.4587 -0.1888
 3110TIP3    H130821   1.170   4.110  10.453 -0.5295  2.2959 -0.3817
 3110TIP3    H230822   1.318   4.077  10.460 -0.9302 -0.2154 -2.4509
 3111TIP3   OH230823   5.573   4.566  10.860 -0.2407 -0.7712  0.3067
 3111TIP3    H130824   5.513   4.632  10.825 -1.3093 -0.5980  2.2752
 3111TIP3    H230825   5.524   4.484  10.856 -0.8759 -0.5455  2.3838
 3112TIP3   OH230826   6.112   3.503  10.643 -0.6901  0.2811  0.0574
 3112TIP3    H130827   6.197   3.542  10.623 -0.5722  0.1879  0.3643
 3112TIP3    H230828   6.058   3.577  10.672 -0.4892  0.2339  0.5668
 3113TIP3   OH230829   4.968   5.335  16.456  0.2289 -0.6158  0.1109
 3113TIP3    H130830   5.021   5.322  16.377  0.1576 -0.6003  0.0614
 3113TIP3    H230831   5.032   5.345  16.526  0.2926 -0.7684  0.0776
 3114TIP3   OH230832   5.557   5.548   4.040 -0.8450  0.1189 -0.3035
 3114TIP3    H130833   5.547   5.489   3.965 -1.4432  0.2444 -0.3234
 3114TIP3    H230834   5.540   5.492   4.116 -1.0989  0.1975 -0.3048
 3115TIP3   OH230835   6.555   0.745   4.559  0.3499  0.0529 -0.3075
 3115TIP3    H130836   6.637   0.700   4.536  0.0653 -1.4407  1.3889
 3115TIP3    H230837   6.523   0.780   4.476  0.9499 -2.3582 -1.6426
 3116TIP3   OH230838   1.094   1.984   1.006  0.5406  0.1879  0.8874
 3116TIP3    H130839   1.021   2.007   1.064  0.5123 -2.4861  2.0588
 3116TIP3    H230840   1.058   1.990   0.918 -1.3100 -1.4651  1.4568
 3117TIP3   OH230841   3.057   4.531   3.708  0.5457  0.4392  0.1049
 3117TIP3    H130842   3.006   4.568   3.780 -0.8638  0.5847 -0.9297
 3117TIP3    H230843   3.001   4.542   3.631  1.5774 -0.6644 -0.8353
 3118TIP3   OH230844   3.077   6.084   5.147  0.5836  0.3367  0.0235
 3118TIP3    H130845   3.108   6.094   5.057 -1.9188  1.0440 -0.8437
 3118TIP3    H230846   3.156   6.063   5.197  2.6305  2.9597 -1.7897
 3119TIP3   OH230847   3.890   2.676  14.458 -0.1324  0.1643  0.2372
 3119TIP3    H130848   3.892   2.756  14.405 -1.4944 -0.3797 -0.6934
 3119TIP3    H230849   3.944   2.613  14.409 -1.3784 -0.3336 -0.5576
 3120TIP3   OH230850   0.952   2.689   1.520 -0.6560 -0.9231  0.3316
 3120TIP3    H130851   0.938   2.783   1.508 -0.1304 -0.7840  0.7908
 3120TIP3    H230852   1.033   2.671   1.472 -0.5083 -1.0551  0.6341
 3121TIP3   OH230853   3.461   6.372  14.139 -0.3101 -0.0420 -0.1919
 3121TIP3    H130854   3.458   6.301  14.075  0.2988  0.4063 -0.7323
 3121TIP3    H230855   3.493   6.447  14.090  0.1085  0.3270  0.6236
 3122TIP3   OH230856   0.796   5.748  15.990  0.1043 -0.2749 -0.2992
 3122TIP3    H130857   0.725   5.684  15.984  0.7520 -0.8668 -3.2067
 3122TIP3    H230858   0.866   5.711  15.937  1.5695  1.5751  0.2297
 3123TIP3   OH230859   4.079   4.691  11.562  0.0571  0.0386  0.2494
 3123TIP3    H130860   4.171   4.681  11.586 -0.5007 -2.7124  1.6513
 3123TIP3    H230861   4.079   4.693  11.466  1.6499  1.4396  0.2516
 3124TIP3   OH230862   4.414   2.268  12.080  0.7402  0.1518 -0.7283
 3124TIP3    H130863   4.501   2.294  12.050  1.3436 -1.2149 -0.2824
 3124TIP3    H230864   4.389   2.335  12.143  2.5354 -0.6071  0.9197
 3125TIP3   OH230865   1.546   3.344  12.840 -0.0413  0.4924 -0.4101
 3125TIP3    H130866   1.529   3.347  12.745 -0.1910 -0.1558 -0.4051
 3125TIP3    H230867   1.565   3.252  12.858 -1.7435  0.2836  0.4866
 3126TIP3   OH230868   0.959   0.385  13.927 -0.3762 -0.5316  0.5855
 3126TIP3    H130869   1.037   0.331  13.923  0.1307  0.2846 -1.7294
 3126TIP3    H230870   0.978   0.460  13.871 -2.9526 -0.5170 -0.4216
 3127TIP3   OH230871   3.075   3.684  10.987 -0.1650  0.5023 -0.1825
 3127TIP3    H130872   3.065   3.628  11.064  0.7589 -0.0862 -0.4795
 3127TIP3    H230873   2.986   3.715  10.968 -0.3461  1.0682  1.4084
 3128TIP3   OH230874   5.012   3.995  15.462  0.2483 -0.0249  0.3647
 3128TIP3    H130875   4.980   4.084  15.474  0.2162  0.0741 -0.4455
 3128TIP3    H230876   5.063   3.997  15.382 -1.4588 -1.1709 -0.8349
 3129TIP3   OH230877   4.213   5.271   5.751 -0.2123  0.7090 -0.3347
 3129TIP3    H130878   4.157   5.348   5.748 -0.4223  0.5187 -3.0979
 3129TIP3    H230879   4.302   5.305   5.740 -0.4428  0.5190 -3.5026
 3130TIP3   OH230880   6.810   4.426   1.160 -0.0354 -0.1339 -0.3485
 3130TIP3    H130881   6.736   4.414   1.219 -2.2892  0.8522 -2.7684
 3130TIP3    H230882   6.861   4.345   1.167 -3.1022 -2.2617 -0.8620
 3131TIP3   OH230883   0.047   6.786   3.195  0.1171 -0.2046 -0.1371
 3131TIP3    H130884   0.120   6.847   3.188  0.7052 -1.0760 -2.8482
 3131TIP3    H230885  -0.024   6.826   3.145 -0.1019 -0.9017 -0.4059
 3132TIP3   OH230886   1.044   3.859  12.420 -0.3556  0.5242 -0.0617
 3132TIP3    H130887   1.066   3.913  12.496  1.8898  0.4260 -0.5643
 3132TIP3    H230888   1.097   3.894  12.349 -1.4077 -0.2250 -1.2716
 3133TIP3   OH230889   1.116   6.585   2.038 -0.3994  0.2285  0.6877
 3133TIP3    H130890   1.196   6.610   1.991 -1.5704  1.4859 -0.7364
 3133TIP3    H230891   1.127   6.492   2.058  0.7194 -0.0066 -0.9246
 3134TIP3   OH230892   3.354   2.938   3.138  0.0397  0.6973  0.8143
 3134TIP3    H130893   3.397   3.022   3.158  0.6398 -0.2498  3.9221
 3134TIP3    H230894   3.261   2.958   3.138  0.2094  1.9374 -1.8185
 3135TIP3   OH230895   5.831   2.405   3.504 -0.0869  0.0681 -0.4945
 3135TIP3    H130896   5.759   2.394   3.566  0.0770 -0.0036 -0.3199
 3135TIP3    H230897   5.787   2.422   3.420 -0.3352 -1.1485 -0.6274
 3136TIP3   OH230898   2.054   3.289   2.146  0.3521  0.0134  0.1758
 3136TIP3    H130899   2.061   3.378   2.179  2.2029 -0.7377  2.0832
 3136TIP3    H230900   2.018   3.239   2.220  1.8115 -1.2201  0.1155
 3137TIP3   OH230901   3.308   3.684   1.000  0.5860 -0.0512  0.3241
 3137TIP3    H130902   3.260   3.757   0.961  0.0066 -0.5753  0.0297
 3137TIP3    H230903   3.384   3.673   0.944 -0.0883 -0.6064 -0.4990
 3138TIP3   OH230904   5.437   5.456  14.635 -0.0644  0.3597  0.3236
 3138TIP3    H130905   5.477   5.535  14.601 -1.3276  0.6643 -0.5461
 3138TIP3    H230906   5.343   5.467  14.618 -0.4463 -0.6524  1.5561
 3139TIP3   OH230907   1.572   0.326   3.042  0.0477  0.0423  0.9211
 3139TIP3    H130908   1.484   0.304   3.070 -0.6066 -0.1940 -1.1902
 3139TIP3    H230909   1.563   0.351   2.950  2.4335 -1.9228  0.0462
 3140TIP3   OH230910   2.934   2.678   2.068 -0.1922 -0.5122  0.6049
 3140TIP3    H130911   3.015   2.708   2.025  0.1037  0.6461  1.9065
 3140TIP3    H230912   2.965   2.631   2.146 -0.7616 -1.1301  0.4632
 3141TIP3   OH230913   2.902   4.899   0.485 -0.1669 -0.8205 -0.5058
 3141TIP3    H130914   2.966   4.942   0.427 -0.9693  1.3933  0.1311
 3141TIP3    H230915   2.951   4.884   0.566  0.1692 -1.2871 -0.7885
 3142TIP3   OH230916   3.577   0.024   5.524 -0.1937  0.2326  0.4049
 3142TIP3    H130917   3.641  -0.017   5.583  2.1504  0.1113 -2.0133
 3142TIP3    H230918   3.551   0.104   5.568 -1.4869 -1.5744  3.2451
 3143TIP3   OH230919   2.581   4.591  16.708  0.8473 -0.3420  0.1663
 3143TIP3    H130920   2.657   4.648  16.709 -0.7393  1.9830 -1.2081
 3143TIP3    H230921   2.566   4.573  16.615  0.5354 -1.9816  0.5017
 3144TIP3   OH230922   4.735   6.694  14.228  0.0198  0.3776 -0.0221
 3144TIP3    H130923   4.776   6.775  14.199 -1.5301  1.2393  0.0392
 3144TIP3    H230924   4.645   6.720  14.252 -1.0572 -1.6219 -1.5678
 3145TIP3   OH230925   5.216   4.503  12.501 -0.2727  0.1123 -0.0211
 3145TIP3    H130926   5.230   4.408  12.491  1.0983  0.3197 -0.3068
 3145TIP3    H230927   5.305   4.540  12.503 -0.7386  1.6542 -2.6201
 3146TIP3   OH230928   0.054   6.822  13.061  0.2161  0.6971 -0.5256
 3146TIP3    H130929   0.063   6.799  12.968  0.4820 -0.8640 -0.1429
 3146TIP3    H230930   0.144   6.824  13.094  0.0701  0.0411 -0.0536
 3147TIP3   OH230931   4.007   5.067  12.162  0.0914  0.1524 -0.6140
 3147TIP3    H130932   4.007   5.034  12.252 -1.1236 -0.3038 -0.7602
 3147TIP3    H230933   4.089   5.036  12.125  0.5731  0.2860  0.3162
 3148TIP3   OH230934   1.021   4.436   3.959 -0.4206  0.5597  0.4152
 3148TIP3    H130935   1.025   4.508   4.021  3.2369  1.2263 -0.4169
 3148TIP3    H230936   0.995   4.476   3.876 -1.0020  0.4230  0.5257
 3149TIP3   OH230937   4.434   2.128   1.437 -0.0859  0.4601  0.3871
 3149TIP3    H130938   4.501   2.068   1.467 -0.1234  1.7373  3.3855
 3149TIP3    H230939   4.472   2.171   1.361  0.4319 -2.3268 -1.0415
 3150TIP3   OH230940   0.491   0.576   5.485  0.0645  0.0428  0.0278
 3150TIP3    H130941   0.459   0.486   5.488  1.4057 -0.4390  1.4331
 3150TIP3    H230942   0.586   0.568   5.497  0.2367  1.6275 -0.0159
 3151TIP3   OH230943   3.045   3.911   3.473 -0.0898  0.6370 -0.3782
 3151TIP3    H130944   3.138   3.914   3.493 -0.2086  0.2978  0.2853
 3151TIP3    H230945   3.039   3.866   3.389  0.3276  0.4342 -0.3004
 3152TIP3   OH230946   5.059   1.013   5.818 -0.3401 -0.1053  0.0270
 3152TIP3    H130947   5.089   0.922   5.818 -0.4979 -0.1594  0.2448
 3152TIP3    H230948   5.139   1.065   5.832 -0.2677 -0.2165  0.0231
 3153TIP3   OH230949   6.771   2.716  15.526 -0.0216 -0.1189  0.1379
 3153TIP3    H130950   6.861   2.744  15.510 -0.9312  2.2989 -1.2560
 3153TIP3    H230951   6.755   2.740  15.618  0.5170  0.1203  0.1727
 3154TIP3   OH230952   5.147   6.431  13.190  0.2541 -0.1474  0.5811
 3154TIP3    H130953   5.053   6.450  13.192 -0.2771 -2.4008 -0.1326
 3154TIP3    H230954   5.188   6.517  13.179 -1.8578  0.7283 -1.6452
 3155TIP3   OH230955   1.602   0.509  15.741  0.2149 -0.2195  0.4001
 3155TIP3    H130956   1.534   0.572  15.717  0.4309 -0.4277 -0.8392
 3155TIP3    H230957   1.556   0.440  15.787 -0.2163  0.2501  0.6809
 3156TIP3   OH230958   5.966   0.971  15.023 -0.5680 -0.4677 -0.1406
 3156TIP3    H130959   5.946   0.883  15.053  0.2842 -1.2862 -1.8817
 3156TIP3    H230960   6.059   0.984  15.043 -0.4816 -0.2821 -0.6479
 3157TIP3   OH230961   4.991   1.828  16.088  0.7448  0.2228  0.4403
 3157TIP3    H130962   5.003   1.871  16.003  1.7914  0.0470  0.4847
 3157TIP3    H230963   4.899   1.801  16.089  0.9223 -0.4968 -0.9781
 3158TIP3   OH230964   1.740   4.470   0.861 -0.2494  0.1086 -0.0757
 3158TIP3    H130965   1.807   4.536   0.875 -0.6071  0.8804 -1.7849
 3158TIP3    H230966   1.788   4.388   0.850  0.2009  0.0445  1.9357
 3159TIP3   OH230967   4.388   1.083  12.130  0.6776  0.0011 -0.0037
 3159TIP3    H130968   4.404   1.003  12.179  0.8865 -0.3870 -0.6944
 3159TIP3    H230969   4.308   1.064  12.080 -0.0550  0.7153  0.8574
 3160TIP3   OH230970   2.023   6.428  13.459  0.2503  0.0888 -0.2634
 3160TIP3    H130971   1.996   6.369  13.389  1.3808  0.4181 -1.0035
 3160TIP3    H230972   1.967   6.404  13.533 -1.3434  0.0816 -1.4059
 3161TIP3   OH230973   1.555   3.201  16.224  0.0853  0.3235  0.0256
 3161TIP3    H130974   1.471   3.159  16.209  0.0123  0.6742 -0.5857
 3161TIP3    H230975   1.533   3.290  16.251  0.2603  0.5041 -0.4207
 3162TIP3   OH230976   3.934   3.240  10.980  0.1998 -0.2607  0.4162
 3162TIP3    H130977   3.848   3.198  10.982 -0.8146  1.7285  1.5322
 3162TIP3    H230978   3.928   3.302  10.908  1.1077 -0.8327 -0.1736
 3163TIP3   OH230979   6.285   3.128   2.919 -0.1955 -0.1204 -0.6862
 3163TIP3    H130980   6.362   3.182   2.898 -0.3186  0.2174 -0.2996
 3163TIP3    H230981   6.307   3.090   3.004 -0.5331  0.1291 -0.4856
 3164TIP3   OH230982   0.427   0.513   1.042  0.2886 -0.2037 -0.1415
 3164TIP3    H130983   0.373   0.535   1.118  1.7433  1.7598  0.4255
 3164TIP3    H230984   0.429   0.593   0.990  2.8668 -0.0581  0.0484
 3165TIP3   OH230985   1.234   2.104   0.521 -0.3134 -0.3979  0.1350
 3165TIP3    H130986   1.197   2.086   0.607 -0.9042  0.2140  0.0283
 3165TIP3    H230987   1.319   2.144   0.539  0.3474 -1.8489  0.3863
 3166TIP3   OH230988   3.070   5.758  11.818 -0.2066  0.2010 -0.5214
 3166TIP3    H130989   3.157   5.773  11.856 -0.9865  1.1425  0.9517
 3166TIP3    H230990   3.052   5.838  11.768 -0.3083  0.0658 -0.7025
 3167TIP3   OH230991   5.747   2.571  12.310 -0.0232  0.3973 -0.3452
 3167TIP3    H130992   5.699   2.489  12.302 -0.1107  0.4297 -0.1608
 3167TIP3    H230993   5.837   2.549  12.285 -0.0270  0.2266 -0.2083
 3168TIP3   OH230994   3.598   4.298  12.687 -0.2385  0.1420 -0.0678
 3168TIP3    H130995   3.660   4.248  12.633 -0.1799  0.7716 -0.5970
 3168TIP3    H230996   3.515   4.251  12.676 -0.1179 -0.0225 -0.3124
 3169TIP3   OH230997   3.515   1.582   3.274  0.3425 -0.4458 -0.5695
 3169TIP3    H130998   3.430   1.559   3.312  0.5975 -2.6019 -1.1619
 3169TIP3    H230999   3.532   1.513   3.210  2.7669 -0.3225 -0.1478
 3170TIP3   OH231000   5.759   3.319   5.903  0.2833  0.5957  0.4316
 3170TIP3    H131001   5.681   3.303   5.851  0.2432  0.5382  0.5091
 3170TIP3    H231002   5.802   3.234   5.909 -0.1511  0.4243  1.2019
 3171TIP3   OH231003   2.970   2.924  16.388  0.6076 -0.2559 -0.4639
 3171TIP3    H131004   3.036   2.855  16.392 -1.0806 -1.9427 -0.2577
 3171TIP3    H231005   2.995   2.976  16.311  2.3131 -0.6462 -0.2191
 3172TIP3   OH231006   4.445   4.531  11.127 -0.7338  0.0178 -0.5644
 3172TIP3    H131007   4.507   4.537  11.054 -2.8522  2.4428 -2.3688
 3172TIP3    H231008   4.471   4.600  11.187  1.5256 -2.5105  1.6281
 3173TIP3   OH231009   2.300   4.565  14.205  0.2768 -0.0749  0.6384
 3173TIP3    H131010   2.236   4.634  14.186 -0.0871  0.1392  2.4539
 3173TIP3    H231011   2.340   4.591  14.288  0.2986 -1.9223  1.2637
 3174TIP3   OH231012   5.541   6.439  12.774 -0.7762  0.2640 -0.1853
 3174TIP3    H131013   5.454   6.440  12.736 -1.1572  2.1031  0.6278
 3174TIP3    H231014   5.532   6.486  12.857  0.7050 -0.7433  0.6175
 3175TIP3   OH231015   5.967   0.128   5.179  0.4535  0.3046 -0.0198
 3175TIP3    H131016   5.922   0.114   5.096  1.8447  0.8664 -0.8912
 3175TIP3    H231017   6.058   0.144   5.155  1.2720 -1.3831  1.7235
 3176TIP3   OH231018   5.520   1.969  16.903  0.0110 -0.4433 -0.2654
 3176TIP3    H131019   5.611   1.938  16.902 -0.1145 -0.8600 -2.3118
 3176TIP3    H231020   5.486   1.947  16.817 -1.3238  1.8323 -0.3965
 3177TIP3   OH231021   0.830   0.261   5.402  0.6179 -0.0832 -0.2386
 3177TIP3    H131022   0.827   0.260   5.498 -0.4100  0.4862 -0.2484
 3177TIP3    H231023   0.755   0.208   5.376  1.8476 -1.6488 -0.7581
 3178TIP3   OH231024   1.998   0.251  16.404 -0.4328  0.3265 -0.1703
 3178TIP3    H131025   2.016   0.194  16.330 -2.2622  0.4627 -0.7552
 3178TIP3    H231026   1.921   0.302  16.378  0.6890  2.5724  0.6204
 3179TIP3   OH231027   2.706   6.517   4.764  0.3353 -0.1253 -0.1028
 3179TIP3    H131028   2.668   6.438   4.725  1.4721  0.5124 -2.7404
 3179TIP3    H231029   2.776   6.484   4.821 -0.2673 -1.0718  0.1100
 3180TIP3   OH231030   1.013   4.477  16.747 -0.2211  0.0841 -0.8127
 3180TIP3    H131031   1.042   4.394  16.785  1.6849  0.6807 -0.8703
 3180TIP3    H231032   0.954   4.514  16.813  2.7365  0.9430  1.5957
 3181TIP3   OH231033   2.392   5.040  16.617  0.4261 -0.9596 -0.8522
 3181TIP3    H131034   2.482   5.053  16.646  0.1156  0.4173 -0.4614
 3181TIP3    H231035   2.394   4.955  16.574  1.5439 -1.7600  0.6520
 3182TIP3   OH231036   3.215   1.404  10.860 -0.5266 -0.3195  0.4893
 3182TIP3    H131037   3.266   1.405  10.941  0.2915 -0.4245 -0.0159
 3182TIP3    H231038   3.178   1.316  10.854 -1.2820 -0.0648  1.1576
 3183TIP3   OH231039   6.319   3.407   2.709  0.0852 -0.4169 -0.1050
 3183TIP3    H131040   6.321   3.339   2.641 -1.5184  0.3422 -0.9682
 3183TIP3    H231041   6.408   3.440   2.712  0.4311 -1.1909 -1.0990
 3184TIP3   OH231042   6.832   0.079   5.695 -0.7275 -0.2292 -0.0424
 3184TIP3    H131043   6.764   0.112   5.637 -1.6022  0.4608  1.3388
 3184TIP3    H231044   6.807   0.109   5.782 -0.9121 -3.4745  1.1582
 3185TIP3   OH231045   4.959   3.802   4.224  0.1960 -0.7397 -0.3099
 3185TIP3    H131046   4.877   3.844   4.249  0.9441  0.0311  0.9801
 3185TIP3    H231047   5.003   3.866   4.168 -0.3205 -1.3940 -1.4941
 3186TIP3   OH231048   6.744   4.945  11.667 -0.4971  0.2835 -0.4298
 3186TIP3    H131049   6.657   4.984  11.658  0.1929  2.2535  0.7317
 3186TIP3    H231050   6.802   5.019  11.684  1.0596 -1.1899  1.0864
 3187TIP3   OH231051   1.728   3.412   4.292 -0.2117  0.0919  0.1336
 3187TIP3    H131052   1.746   3.459   4.373 -0.0426 -0.8452  0.6555
 3187TIP3    H231053   1.776   3.461   4.225 -1.1731  1.4618  0.4044
 3188TIP3   OH231054   0.878   4.863  14.364  0.0002 -0.2682  0.3468
 3188TIP3    H131055   0.856   4.771  14.352 -0.9919 -0.1180  0.9053
 3188TIP3    H231056   0.973   4.866  14.355 -0.0328 -1.2114 -0.4756
 3189TIP3   OH231057   4.451   6.781   4.750  0.7658 -0.6717  0.0428
 3189TIP3    H131058   4.507   6.755   4.823  0.1450  0.2315  0.8667
 3189TIP3    H231059   4.450   6.705   4.693  2.5240 -0.8418  0.1824
 3190TIP3   OH231060   5.153   4.697  11.496  0.2479 -0.4011 -0.3549
 3190TIP3    H131061   5.087   4.739  11.441 -0.3768 -0.4803  0.3201
 3190TIP3    H231062   5.148   4.744  11.579 -0.2630 -1.5981  0.3239
 3191TIP3   OH231063   2.812   4.800   0.036  0.0497  0.3783 -0.1775
 3191TIP3    H131064   2.891   4.840  -0.001 -0.1325  0.8453 -0.0730
 3191TIP3    H231065   2.837   4.778   0.126  0.6196 -1.1274 -0.6804
 3192TIP3   OH231066   1.043   1.464  16.481  0.1887  0.5129  0.1564
 3192TIP3    H131067   1.054   1.549  16.438  2.1747  0.4457  0.4381
 3192TIP3    H231068   0.953   1.438  16.460 -1.0885  3.4169  1.4075
 3193TIP3   OH231069   0.938   4.481  15.853  0.4910  0.4028 -0.0503
 3193TIP3    H131070   1.025   4.521  15.860  0.8379 -0.4786  0.9905
 3193TIP3    H231071   0.948   4.413  15.787  0.7090  0.0409  0.3491
 3194TIP3   OH231072   3.723   5.295   3.880 -0.1080  0.3385  0.1520
 3194TIP3    H131073   3.778   5.373   3.891  0.4370 -0.1432  0.8905
 3194TIP3    H231074   3.702   5.267   3.969 -1.7890  0.6583 -0.0985
 3195TIP3   OH231075   1.188   3.090  16.048  0.0080  0.2838  0.0120
 3195TIP3    H131076   1.137   3.019  16.009 -0.9063 -0.0670  1.7704
 3195TIP3    H231077   1.124   3.159  16.065  0.8346  1.4862 -1.4122
 3196TIP3   OH231078   4.712   1.243  12.888 -0.5466 -0.3063 -0.1428
 3196TIP3    H131079   4.741   1.203  12.970  3.4801  1.6502 -0.3321
 3196TIP3    H231080   4.716   1.337  12.905 -0.9445  0.1202 -2.1800
 3197TIP3   OH231081   6.026   6.128  16.289  0.5427  0.0979 -0.0266
 3197TIP3    H131082   5.987   6.133  16.201 -2.7170 -2.0482  1.1167
 3197TIP3    H231083   5.984   6.199  16.338  0.2983 -0.3626  0.4459
 3198TIP3   OH231084   0.298   1.552   0.641 -0.2486  0.2992 -0.1487
 3198TIP3    H131085   0.364   1.608   0.601  1.2653 -0.9679  0.4853
 3198TIP3    H231086   0.340   1.516   0.719 -2.2056  0.6112  1.1488
 3199TIP3   OH231087   5.475   4.809   3.891  0.0485 -0.1344 -0.2216
 3199TIP3    H131088   5.392   4.834   3.931 -0.2042 -1.4625  0.1411
 3199TIP3    H231089   5.498   4.726   3.933  0.4449 -0.9102 -1.8631
 3200TIP3   OH231090   0.772   4.975   2.934 -0.1690 -0.0018  0.1512
 3200TIP3    H131091   0.818   4.934   3.007 -0.8781 -0.0616  0.5729
 3200TIP3    H231092   0.777   4.910   2.864  1.3017  0.4255 -0.1694
 3201TIP3   OH231093   2.116   4.912  11.323 -0.1276 -0.3259 -0.0645
 3201TIP3    H131094   2.175   4.985  11.345 -0.7293 -0.1287  0.9990
 3201TIP3    H231095   2.048   4.951  11.268  1.2310 -0.7578 -2.1346
 3202TIP3   OH231096   1.099   5.159  14.533  0.7349 -0.5593 -0.7653
 3202TIP3    H131097   1.083   5.236  14.478  0.2923  0.5750  0.8888
 3202TIP3    H231098   1.028   5.160  14.597  2.0133 -1.0013  0.7128
 3203TIP3   OH231099   1.281   3.514   0.034 -0.2334  0.4883  0.1966
 3203TIP3    H131100   1.254   3.538  -0.055  0.9455  2.2424  0.2644
 3203TIP3    H231101   1.321   3.428   0.024  0.2881  0.8516 -1.0725
 3204TIP3   OH231102   5.783   3.102  10.984 -0.6359 -0.6813  0.4379
 3204TIP3    H131103   5.825   3.167  10.929  1.2899 -0.5852  1.9280
 3204TIP3    H231104   5.812   3.018  10.949  1.4131 -0.6129  1.8055
 3205TIP3   OH231105   3.215   5.966   0.988  0.2764 -0.5584 -0.0273
 3205TIP3    H131106   3.215   5.964   0.893 -0.3349 -0.3165 -0.0367
 3205TIP3    H231107   3.304   5.938   1.013  0.1771 -1.4638 -0.6437
 3206TIP3   OH231108   3.196   4.588   4.327 -0.0456  0.5732 -0.3109
 3206TIP3    H131109   3.207   4.494   4.311 -1.0005  0.4887 -0.5962
 3206TIP3    H231110   3.116   4.610   4.279  0.0505  1.4891 -0.0637
 3207TIP3   OH231111   5.956   3.910  16.442 -0.2550 -0.6211 -0.0837
 3207TIP3    H131112   5.880   3.910  16.383 -0.0490  1.7674 -0.4514
 3207TIP3    H231113   5.941   3.835  16.500 -1.7866 -1.4882 -1.4971
 3208TIP3   OH231114   0.867   6.854  15.301  0.0542 -0.1441 -0.0866
 3208TIP3    H131115   0.892   6.783  15.360 -2.6508 -1.7540 -0.7074
 3208TIP3    H231116   0.773   6.866  15.317 -0.1125  1.4675 -1.9257
 3209TIP3   OH231117   4.720   3.194   5.396 -0.1260  0.6762 -0.6675
 3209TIP3    H131118   4.739   3.202   5.490 -1.3683  0.6388 -0.3911
 3209TIP3    H231119   4.721   3.284   5.364  0.6666  0.6591 -0.6999
 3210TIP3   OH231120   4.397   5.730   4.803 -0.5937 -0.1419 -0.7296
 3210TIP3    H131121   4.318   5.732   4.750 -0.8718  2.6143 -0.3282
 3210TIP3    H231122   4.368   5.761   4.889  0.3200 -2.2399  0.4048
 3211TIP3   OH231123   2.517   1.154   1.109 -0.5187  0.0604  0.2227
 3211TIP3    H131124   2.475   1.164   1.024 -1.5846 -1.2133  0.5778
 3211TIP3    H231125   2.565   1.072   1.103  0.7744  0.7740  0.3250
 3212TIP3   OH231126   3.516   4.479  17.118  0.3747  0.0741  0.4538
 3212TIP3    H131127   3.443   4.436  17.074  0.2196  1.0643 -0.2883
 3212TIP3    H231128   3.482   4.503  17.204 -0.0378  0.1695  0.2623
 3213TIP3   OH231129   5.201   6.626   5.128  0.2973 -0.1222 -0.5236
 3213TIP3    H131130   5.200   6.531   5.119 -0.6971 -0.3505  1.3670
 3213TIP3    H231131   5.109   6.651   5.133  0.4793  1.1663 -2.5268
 3214TIP3   OH231132   3.965   0.147   2.627  0.1293  0.1190  0.4464
 3214TIP3    H131133   3.906   0.072   2.623 -0.4506  0.5733  0.3234
 3214TIP3    H231134   3.916   0.218   2.587  1.1645  0.2591 -0.6336
 3215TIP3   OH231135   3.515   0.378   2.688  0.2684 -0.5932  0.1560
 3215TIP3    H131136   3.500   0.447   2.624  0.3289  0.1573  0.9221
 3215TIP3    H231137   3.547   0.304   2.637 -0.6516 -0.3542 -0.7922
 3216TIP3   OH231138   2.260   5.289   0.550  0.0085  0.0868  0.1617
 3216TIP3    H131139   2.217   5.217   0.503  1.1687 -0.3319 -0.2876
 3216TIP3    H231140   2.268   5.359   0.484  0.4022  0.0025  0.1177
 3217TIP3   OH231141   0.206   6.418   5.811  0.3793  0.5463 -0.5317
 3217TIP3    H131142   0.252   6.496   5.840 -2.8096  2.8550 -1.1137
 3217TIP3    H231143   0.162   6.385   5.890 -0.0293  0.6818 -0.6972
 3218TIP3   OH231144   3.459   5.193  16.008 -0.5830 -0.0497  0.5607
 3218TIP3    H131145   3.453   5.206  16.103 -1.8106  0.2735  0.4599
 3218TIP3    H231146   3.484   5.101  15.998 -0.0826  0.0111  1.2047
 3219TIP3   OH231147   0.478   6.136   6.581  0.5533 -0.4771  0.3938
 3219TIP3    H131148   0.554   6.087   6.614  1.1609 -1.3805 -2.1404
 3219TIP3    H231149   0.404   6.077   6.596  0.6445 -0.4228  1.0847
 3220TIP3   OH231150   1.601   1.589   4.298 -0.2329  0.2285 -0.0697
 3220TIP3    H131151   1.531   1.652   4.283 -1.6283 -1.1076  0.6307
 3220TIP3    H231152   1.621   1.554   4.212 -0.5598  0.4742 -0.2455
 3221TIP3   OH231153   2.912   5.625  13.158 -0.0452 -0.5050 -0.4413
 3221TIP3    H131154   2.843   5.570  13.195 -0.8662  0.5026 -0.4357
 3221TIP3    H231155   2.866   5.702  13.125  1.3909  3.0217  4.4904
 3222TIP3   OH231156   0.420   2.434  14.383  0.1039  0.2870 -0.1450
 3222TIP3    H131157   0.509   2.401  14.394  0.0699  0.0180 -0.6339
 3222TIP3    H231158   0.426   2.527  14.406  0.7001  0.4785 -1.0254
 3223TIP3   OH231159   0.273   5.914   3.517  0.3237  0.0908  0.2087
 3223TIP3    H131160   0.278   6.002   3.555  1.2378  0.3274 -0.4089
 3223TIP3    H231161   0.276   5.929   3.423 -0.6913 -0.5519  0.0603
 3224TIP3   OH231162   0.792   1.591   0.338 -0.7749  0.1628  0.1192
 3224TIP3    H131163   0.806   1.537   0.260 -0.0889 -0.1033  0.4150
 3224TIP3    H231164   0.876   1.588   0.384 -0.9352  0.9483  0.4773
 3225TIP3   OH231165   0.306   2.498   0.651  0.1456  0.2864  0.0682
 3225TIP3    H131166   0.380   2.441   0.669  1.0289  1.4247  0.1594
 3225TIP3    H231167   0.307   2.562   0.723 -1.6839 -0.3931  0.7731
 3226TIP3   OH231168   3.790   2.614   3.347  0.3010 -0.1583 -0.1573
 3226TIP3    H131169   3.815   2.699   3.382 -0.1727  0.0846 -0.3839
 3226TIP3    H231170   3.733   2.636   3.272  0.2216 -0.6720 -0.2482
 3227TIP3   OH231171   5.116   4.759  14.853  1.0858 -0.0584  0.1739
 3227TIP3    H131172   5.055   4.829  14.832  1.1690 -0.3264 -1.0685
 3227TIP3    H231173   5.098   4.737  14.944  0.3983  0.9102  0.2859
 3228TIP3   OH231174   0.370   3.509   6.392  0.3163  0.6577 -0.8917
 3228TIP3    H131175   0.316   3.535   6.467  0.4759  0.1474 -0.5983
 3228TIP3    H231176   0.355   3.415   6.382  0.0227  0.7822 -1.7248
 3229TIP3   OH231177   0.726   0.493  12.807  0.4402 -0.2516 -0.5208
 3229TIP3    H131178   0.736   0.530  12.720 -1.3912 -2.9088 -2.0122
 3229TIP3    H231179   0.781   0.415  12.807  1.5495  0.4520  1.2886
 3230TIP3   OH231180   2.235   2.008   5.779  0.1303 -0.5607  0.4088
 3230TIP3    H131181   2.265   1.989   5.690 -0.8919  1.3799 -0.4097
 3230TIP3    H231182   2.316   2.013   5.831  1.0887  1.5709 -1.1209
 3231TIP3   OH231183   3.079   2.541  14.224 -0.6183  0.5007  0.3689
 3231TIP3    H131184   3.130   2.515  14.301  0.5324  0.7091 -0.2903
 3231TIP3    H231185   3.006   2.480  14.222 -1.6302  1.5308  2.5636
 3232TIP3   OH231186   4.493   3.783   3.445 -0.1267  0.3530 -0.1550
 3232TIP3    H131187   4.516   3.835   3.522 -2.1064 -1.9085  2.1508
 3232TIP3    H231188   4.433   3.839   3.395 -0.0156  1.3239  0.7597
 3233TIP3   OH231189   3.797   4.590  15.141 -0.5165  0.0989  0.3267
 3233TIP3    H131190   3.852   4.534  15.086  1.0864  0.6138  1.3307
 3233TIP3    H231191   3.714   4.542  15.149 -0.0140 -0.9936 -0.7404
 3234TIP3   OH231192   2.492   6.542  14.275 -0.3639 -0.0119 -0.0513
 3234TIP3    H131193   2.563   6.562  14.214 -0.0693 -0.6483  0.0798
 3234TIP3    H231194   2.412   6.562  14.225 -0.1059  0.8132 -0.1614
 3235TIP3   OH231195   4.517   5.176  16.466  0.3507 -0.4665  0.6720
 3235TIP3    H131196   4.558   5.092  16.487  2.0864 -0.3476 -1.7784
 3235TIP3    H231197   4.486   5.166  16.376 -1.3531  0.8570  1.0602
 3236TIP3   OH231198   1.654   2.257   2.996 -0.3117 -0.1916  0.4018
 3236TIP3    H131199   1.622   2.310   3.068  0.1781 -1.2437  1.4237
 3236TIP3    H231200   1.582   2.257   2.933  0.2340  2.9704 -0.4253
 3237TIP3   OH231201   6.820   0.565   0.352  0.0968 -0.2364  0.2384
 3237TIP3    H131202   6.838   0.495   0.290 -2.0488 -1.6195  1.0435
 3237TIP3    H231203   6.844   0.528   0.437  3.4812  1.8004  0.3463
 3238TIP3   OH231204   0.714   6.046  16.647 -0.0867 -0.4153  0.0502
 3238TIP3    H131205   0.687   6.050  16.555 -0.0513 -1.5228 -0.0173
 3238TIP3    H231206   0.800   6.004  16.645  0.7981  1.2559  0.4463
 3239TIP3   OH231207   4.918   5.977   3.257 -0.0738 -0.0400  0.5669
 3239TIP3    H131208   4.889   6.064   3.282 -1.0626 -0.1599 -0.1316
 3239TIP3    H231209   4.851   5.918   3.291  0.1693 -0.4652  0.3234
 3240TIP3   OH231210   3.164   5.700  12.396  0.2485  0.0635  0.0185
 3240TIP3    H131211   3.240   5.643  12.408  1.6926  1.9149  0.0607
 3240TIP3    H231212   3.151   5.702  12.301  1.6669  1.4563 -0.1759
 3241TIP3   OH231213   0.262   2.987   6.008 -0.0943 -0.0541 -0.1169
 3241TIP3    H131214   0.278   2.949   6.094 -0.6129  0.8682  0.4103
 3241TIP3    H231215   0.298   2.924   5.946  0.9715 -0.3815  0.8082
 3242TIP3   OH231216   3.381   4.678  15.793  0.6341  0.0371 -0.4037
 3242TIP3    H131217   3.457   4.725  15.759  1.7666 -1.6472 -0.2601
 3242TIP3    H231218   3.416   4.614  15.854 -1.1082  0.7784  1.5208
 3243TIP3   OH231219   0.985   3.945  11.721  0.1305 -0.1264 -0.3110
 3243TIP3    H131220   0.945   3.951  11.634  0.5252  0.6202 -0.4588
 3243TIP3    H231221   1.079   3.954  11.704  0.5053 -2.9859 -0.0832
 3244TIP3   OH231222   3.521   1.940  10.687  0.6052 -0.1278  0.1494
 3244TIP3    H131223   3.451   1.905  10.742  0.4527 -0.8747 -0.5050
 3244TIP3    H231224   3.479   1.960  10.604  1.1949 -0.7533 -0.3131
 3245TIP3   OH231225   0.882   6.308  11.996  0.3192 -0.2767 -0.8653
 3245TIP3    H131226   0.809   6.326  12.055 -0.7047 -1.2813 -1.7713
 3245TIP3    H231227   0.916   6.223  12.024  1.4224  0.3551 -0.2055
 3246TIP3   OH231228   0.518   4.337   5.492 -0.8089 -0.0524 -0.1054
 3246TIP3    H131229   0.563   4.321   5.575  0.5575  1.7498 -0.4392
 3246TIP3    H231230   0.530   4.430   5.475 -2.6255  0.0030 -1.4576
 3247TIP3   OH231231   1.750   2.613  14.706  0.2015  0.2781  0.2988
 3247TIP3    H131232   1.782   2.658  14.784  1.3727  0.9050 -0.5032
 3247TIP3    H231233   1.773   2.521  14.719  0.0125  0.3123  0.8723
 3248TIP3   OH231234   3.881   1.700  14.371  0.1068  0.0770 -0.0798
 3248TIP3    H131235   3.966   1.668  14.401 -0.3228 -1.1753 -0.1520
 3248TIP3    H231236   3.888   1.702  14.276  0.2033  0.4267 -0.0677
 3249TIP3   OH231237   1.404   6.308   6.111 -0.0992  0.5452 -0.8432
 3249TIP3    H131238   1.465   6.238   6.135  2.2426  2.7885  0.2100
 3249TIP3    H231239   1.387   6.294   6.018  3.4724  0.7353 -1.6658
 3250TIP3   OH231240   3.372   6.656  13.113 -0.2276 -0.0298 -0.3392
 3250TIP3    H131241   3.405   6.704  13.189  1.0059 -0.1551 -0.7599
 3250TIP3    H231242   3.340   6.573  13.149 -4.1615  1.7322  0.6608
 3251TIP3   OH231243   3.356   0.875  16.964  0.0977 -0.0622  0.3294
 3251TIP3    H131244   3.262   0.882  16.953 -0.3411 -1.5957  2.3917
 3251TIP3    H231245   3.380   0.797  16.914  0.7276  1.5576 -2.0544
 3252TIP3   OH231246   4.395   1.435  17.014 -0.3699  0.0614  0.7933
 3252TIP3    H131247   4.414   1.433  17.108 -0.6687  1.5017  0.9063
 3252TIP3    H231248   4.465   1.490  16.977 -2.2233  2.5639  0.7305
 3253TIP3   OH231249   5.772   5.991   0.765 -0.9310  0.6809  0.2969
 3253TIP3    H131250   5.831   6.066   0.774  1.3788 -0.9789 -0.4192
 3253TIP3    H231251   5.778   5.966   0.673 -1.8900 -0.2622  0.4699
 3254TIP3   OH231252   5.641   2.386  16.058  0.1353  0.0499 -0.4413
 3254TIP3    H131253   5.612   2.406  16.147  0.6191 -0.1779 -0.2328
 3254TIP3    H231254   5.640   2.471  16.014 -1.0940  0.0190 -0.5210
 3255TIP3   OH231255   5.068   4.405   6.785 -0.1485 -0.3890 -0.3493
 3255TIP3    H131256   5.114   4.488   6.795 -1.0488  0.3553 -1.9206
 3255TIP3    H231257   4.977   4.430   6.770 -0.8309 -1.7556  1.2027
 3256TIP3   OH231258   5.493   5.895   0.261 -0.0337  0.4017  0.1312
 3256TIP3    H131259   5.450   5.979   0.244 -2.0906 -0.5185  0.4556
 3256TIP3    H231260   5.579   5.904   0.222 -0.0905  2.7480  0.3851
 3257TIP3   OH231261   1.590   3.880  14.366  1.0481  0.8914 -0.3221
 3257TIP3    H131262   1.613   3.787  14.366 -0.2163  0.4642  2.6339
 3257TIP3    H231263   1.666   3.924  14.328  3.2234 -1.0922  1.4184
 3258TIP3   OH231264   5.125   3.064  12.871  0.6377 -0.7273 -0.1464
 3258TIP3    H131265   5.083   3.123  12.933 -1.0110 -2.8513  0.9169
 3258TIP3    H231266   5.079   3.078  12.788 -2.2726 -2.8431  0.9389
 3259TIP3   OH231267   1.945   1.085  14.319 -0.9127  0.4917  0.6789
 3259TIP3    H131268   1.917   1.169  14.283 -1.3644  0.5125  1.0729
 3259TIP3    H231269   1.994   1.108  14.399  0.1086  0.4480  0.0841
 3260TIP3   OH231270   0.839   0.633  11.580  0.1871  0.0397 -0.1314
 3260TIP3    H131271   0.778   0.654  11.651  0.2887  1.3289 -0.3906
 3260TIP3    H231272   0.789   0.653  11.500  0.3147 -0.7137 -0.4008
 3261TIP3   OH231273   3.882   2.346   3.019 -0.1120 -0.6527 -0.2064
 3261TIP3    H131274   3.965   2.391   3.038  0.2527 -1.4747  0.1893
 3261TIP3    H231275   3.837   2.404   2.957  0.4454  0.1435  0.1166
 3262TIP3   OH231276   3.616   0.980   1.500  1.0087  0.0545 -0.0703
 3262TIP3    H131277   3.710   0.999   1.510  0.6341  1.1933  1.5239
 3262TIP3    H231278   3.600   0.907   1.560  1.2121 -1.4872 -1.7775
 3263TIP3   OH231279   6.731   4.858   2.156 -0.2683  0.0870 -0.1987
 3263TIP3    H131280   6.800   4.803   2.120 -0.7046 -1.2176  0.8657
 3263TIP3    H231281   6.741   4.850   2.251 -0.7203  1.3974 -0.0064
 3264TIP3   OH231282   2.585   2.543  12.216 -0.5209  0.0966  0.0919
 3264TIP3    H131283   2.564   2.627  12.257  0.3870  0.3687  0.0217
 3264TIP3    H231284   2.678   2.549  12.196 -1.2244  0.7090 -3.7236
 3265TIP3   OH231285   0.581   0.867  12.474  0.1599 -0.9197 -0.2580
 3265TIP3    H131286   0.646   0.936  12.461  0.2839 -0.7852  0.9806
 3265TIP3    H231287   0.512   0.887  12.410  0.1124  0.4645  0.1961
 3266TIP3   OH231288   4.556   2.528  16.270 -0.4368 -0.3047  0.4312
 3266TIP3    H131289   4.541   2.597  16.334  0.6944 -0.4928  0.9251
 3266TIP3    H231290   4.475   2.523  16.221 -1.7954 -0.9259  2.5885
 3267TIP3   OH231291   4.006   5.788   5.096  0.4236 -0.0004  0.1760
 3267TIP3    H131292   4.033   5.877   5.073 -1.8290  1.0811  1.3849
 3267TIP3    H231293   3.975   5.751   5.014  0.5501  0.6523 -0.1765
 3268TIP3   OH231294   3.297   1.171  11.862 -0.2048 -0.8937 -0.2258
 3268TIP3    H131295   3.280   1.246  11.919  1.0086 -1.6968  1.2709
 3268TIP3    H231296   3.305   1.097  11.922 -1.5574 -2.3005 -1.6771
 3269TIP3   OH231297   2.285   6.731  11.246  0.4842  0.2592 -0.2879
 3269TIP3    H131298   2.213   6.696  11.193 -0.8541  1.6288  0.5480
 3269TIP3    H231299   2.276   6.688  11.331  0.4318  0.7037 -0.0669
 3270TIP3   OH231300   6.850   0.718   4.921 -0.0586  0.0130  0.0136
 3270TIP3    H131301   6.792   0.794   4.930 -0.8969 -0.3899 -1.5869
 3270TIP3    H231302   6.888   0.727   4.833  0.0481 -1.2575 -0.0889
 3271TIP3   OH231303   2.606   6.126  14.235 -0.2901 -0.1647  0.1626
 3271TIP3    H131304   2.668   6.128  14.307 -0.4064  0.5748  0.2536
 3271TIP3    H231305   2.660   6.125  14.156 -0.1643 -0.4971  0.2534
 3272TIP3   OH231306   6.094   0.674  13.316  0.2871 -0.3989 -0.1068
 3272TIP3    H131307   6.017   0.618  13.327  0.6989 -0.8023  0.8419
 3272TIP3    H231308   6.114   0.704  13.405  0.7049  0.4096 -0.4638
 3273TIP3   OH231309   3.450   3.435   4.362 -0.0897  0.3463  0.0501
 3273TIP3    H131310   3.542   3.424   4.383  0.2265  2.0099 -0.2912
 3273TIP3    H231311   3.437   3.382   4.283  0.4637 -0.2346  0.3435
 3274TIP3   OH231312   5.676   0.523   5.708 -0.3550  0.1707  0.0752
 3274TIP3    H131313   5.704   0.591   5.769 -0.5770 -2.9928  4.0993
 3274TIP3    H231314   5.749   0.516   5.645  1.3314  1.6168  1.7579
 3275TIP3   OH231315   4.790   1.412  11.584 -0.5463  0.1160  0.2276
 3275TIP3    H131316   4.816   1.449  11.668  0.9728  2.0570 -1.0189
 3275TIP3    H231317   4.865   1.360  11.556  0.6025  2.5730 -1.5990
 3276TIP3   OH231318   5.785   4.885   5.346  0.2359  0.5916 -0.9302
 3276TIP3    H131319   5.836   4.918   5.420 -2.1151  1.2001  0.5218
 3276TIP3    H231320   5.755   4.798   5.374  0.6322  0.1305 -1.8741
 3277TIP3   OH231321   2.980   2.152   4.731 -0.1492  0.7482  0.1840
 3277TIP3    H131322   3.001   2.135   4.639 -0.0213 -1.0555  0.4979
 3277TIP3    H231323   2.999   2.245   4.744  3.8195  0.2196 -0.5678
 3278TIP3   OH231324   2.084   4.137   1.257  0.6229  0.3780 -0.0409
 3278TIP3    H131325   2.122   4.049   1.244 -0.7187 -0.0447 -1.3496
 3278TIP3    H231326   2.061   4.139   1.350  2.4138  0.1006  0.4644
 3279TIP3   OH231327   3.483   0.915  15.684  0.2913  0.6000 -0.4943
 3279TIP3    H131328   3.568   0.915  15.729 -0.1901  1.9175  0.5019
 3279TIP3    H231329   3.421   0.944  15.751 -0.9064 -0.0510 -1.2850
 3280TIP3   OH231330   5.279   6.202  13.268  0.1800  0.4562 -0.2723
 3280TIP3    H131331   5.369   6.200  13.235  1.0191  1.1190  1.7987
 3280TIP3    H231332   5.239   6.277  13.225  0.5404  0.0198 -1.3870
 3281TIP3   OH231333   5.654   6.289   4.916  0.0524 -0.0136 -0.0467
 3281TIP3    H131334   5.731   6.246   4.879 -0.5308 -0.6212 -0.5830
 3281TIP3    H231335   5.653   6.264   5.008  0.1046 -0.5883 -0.1986
 3282TIP3   OH231336   3.575   2.101   0.340  0.1888  0.0284  0.0894
 3282TIP3    H131337   3.517   2.036   0.301  0.9803 -1.0485  0.6344
 3282TIP3    H231338   3.613   2.057   0.416 -0.2538  1.5901  1.2807
 3283TIP3   OH231339   4.134   0.147   3.803  0.4373  1.0543  0.2762
 3283TIP3    H131340   4.157   0.142   3.710 -0.8185  0.5447 -0.0309
 3283TIP3    H231341   4.191   0.215   3.839  3.6974 -1.2791 -0.0076
 3284TIP3   OH231342   3.018   5.279   2.109 -0.5455 -0.1230 -0.1397
 3284TIP3    H131343   3.017   5.207   2.047 -0.9538  0.2261 -0.5449
 3284TIP3    H231344   3.088   5.337   2.076 -0.7517  0.0541 -0.2679
 3285TIP3   OH231345   3.726   1.644   2.642 -0.2704 -0.4032 -0.8865
 3285TIP3    H131346   3.780   1.566   2.625 -1.0403 -0.7925 -1.6157
 3285TIP3    H231347   3.682   1.624   2.724  0.6762 -0.0770 -0.2756
 3286TIP3   OH231348   4.122   5.725  16.633  0.5540 -0.2140 -0.7227
 3286TIP3    H131349   4.104   5.635  16.607  2.2163 -0.5234 -0.9109
 3286TIP3    H231350   4.180   5.717  16.709 -0.5279  0.7090  0.2402
 3287TIP3   OH231351   4.745   2.683   1.307 -0.4864  0.4536 -0.2756
 3287TIP3    H131352   4.689   2.724   1.373  2.6081  0.3646  2.6210
 3287TIP3    H231353   4.746   2.590   1.330 -0.6613  0.1229 -1.5150
 3288TIP3   OH231354   6.432   1.385   0.372  0.7323 -0.2081  0.4441
 3288TIP3    H131355   6.503   1.403   0.310 -1.4088 -1.9323 -2.8579
 3288TIP3    H231356   6.384   1.467   0.379  1.1799  0.0994 -0.0317
 3289TIP3   OH231357   0.504   6.205  13.939 -0.5020  1.0378  0.2000
 3289TIP3    H131358   0.576   6.268  13.938  0.5351 -0.1304 -0.3461
 3289TIP3    H231359   0.462   6.219  14.024  1.9263  0.0638  1.6718
 3290TIP3   OH231360   2.029   6.714   3.809  0.3403 -0.2862 -0.1679
 3290TIP3    H131361   2.107   6.757   3.845  0.5552  1.3104 -2.2604
 3290TIP3    H231362   2.063   6.658   3.739 -0.1284 -2.5781  1.3316
 3291TIP3   OH231363   5.153   1.305   0.815 -0.0714  0.5841 -0.5477
 3291TIP3    H131364   5.107   1.221   0.816  3.1616 -1.4349  1.7616
 3291TIP3    H231365   5.148   1.335   0.724 -1.0256 -2.3327 -1.5721
 3292TIP3   OH231366   4.659   2.427  12.313  0.1432 -0.3221 -0.1425
 3292TIP3    H131367   4.617   2.453  12.395  2.7417  1.1760  0.8249
 3292TIP3    H231368   4.631   2.336  12.300  0.4729 -1.0018  3.0225
 3293TIP3   OH231369   0.318   6.169   4.875 -0.0696  0.0330 -0.1330
 3293TIP3    H131370   0.247   6.215   4.918 -0.2959 -0.7221  0.3201
 3293TIP3    H231371   0.280   6.138   4.793 -0.4928 -1.0005  0.4390
 3294TIP3   OH231372   3.301   3.864   1.835  0.7807 -0.0549  0.5968
 3294TIP3    H131373   3.225   3.920   1.849  0.5700 -0.0029 -0.6672
 3294TIP3    H231374   3.304   3.808   1.912 -0.8213 -0.3659  0.4550
 3295TIP3   OH231375   2.413   0.819  12.784  0.8511  0.7259  0.0845
 3295TIP3    H131376   2.487   0.859  12.829 -0.0363  1.9789  0.5011
 3295TIP3    H231377   2.340   0.830  12.845  0.3762 -0.7267 -0.1974
 3296TIP3   OH231378   3.821   3.002   0.904 -0.3723  0.4258 -0.2349
 3296TIP3    H131379   3.833   2.918   0.859  2.3733  0.9922 -0.7028
 3296TIP3    H231380   3.726   3.010   0.912 -0.7708 -2.4040 -0.7556
 3297TIP3   OH231381   1.247   5.863   3.252 -0.5458  0.3704  0.0734
 3297TIP3    H131382   1.163   5.907   3.263 -0.8683  0.1703 -1.4558
 3297TIP3    H231383   1.298   5.890   3.329 -1.4783  1.6875  0.2553
 3298TIP3   OH231384   1.008   6.427  15.400 -0.3186 -0.4913 -0.2316
 3298TIP3    H131385   0.951   6.492  15.440  0.4527 -0.2376  0.4899
 3298TIP3    H231386   0.959   6.394  15.325 -0.5771  1.1651 -0.8203
 3299TIP3   OH231387   2.009   1.274   4.553 -0.6082  0.1906 -0.0513
 3299TIP3    H131388   2.082   1.336   4.561  0.9172 -1.2486 -1.7271
 3299TIP3    H231389   1.987   1.250   4.643  1.6134  0.0427  0.5087
 3300TIP3   OH231390   0.650   6.786   4.343 -0.0704 -0.0882  1.0446
 3300TIP3    H131391   0.590   6.843   4.296  2.1283  1.5740  0.0351
 3300TIP3    H231392   0.601   6.705   4.358 -2.6628  1.3566  0.7920
 3301TIP3   OH231393   5.291   6.051   2.927  0.2215  0.1553  0.6782
 3301TIP3    H131394   5.351   5.981   2.901  1.5409  1.4509  0.0770
 3301TIP3    H231395   5.328   6.130   2.888 -1.7762  1.0529  0.5001
 3302TIP3   OH231396   4.977   5.576   3.915  0.0045 -0.4451 -0.1719
 3302TIP3    H131397   4.888   5.597   3.888 -0.4771  0.7897  2.0351
 3302TIP3    H231398   4.977   5.592   4.010  2.0690 -2.2742  0.2194
 3303TIP3   OH231399   0.703   5.756  14.974  0.2916 -0.1601  0.1818
 3303TIP3    H131400   0.667   5.806  14.901  0.4395  0.4320  0.5133
 3303TIP3    H231401   0.670   5.667  14.960  0.4161 -0.0804 -0.6726
 3304TIP3   OH231402   1.003   6.030  15.241  0.1939 -0.1690  0.0049
 3304TIP3    H131403   1.006   6.049  15.147  0.7233 -0.1117  0.0311
 3304TIP3    H231404   0.917   5.990  15.255  0.3114 -0.6368 -0.5888
 3305TIP3   OH231405   3.464   0.939   2.676 -0.7631  0.2584  0.0801
 3305TIP3    H131406   3.536   0.920   2.616  0.4338 -1.5481  1.9720
 3305TIP3    H231407   3.422   1.017   2.639  1.4236  0.6900 -1.7035
 3306TIP3   OH231408   5.422   1.309   4.027  0.1799 -0.3238 -0.2789
 3306TIP3    H131409   5.494   1.316   4.091 -0.3268  2.0337  0.1109
 3306TIP3    H231410   5.451   1.362   3.953 -1.0856  0.5493 -0.1723
 3307TIP3   OH231411   1.917   4.756   4.727 -0.2857  0.2522  0.0949
 3307TIP3    H131412   1.949   4.841   4.697 -0.2443 -0.0919 -0.8677
 3307TIP3    H231413   1.862   4.776   4.803 -2.6987  1.4515 -1.8495
 3308TIP3   OH231414   5.174   0.415  14.341  0.2011 -0.2464 -0.5769
 3308TIP3    H131415   5.125   0.399  14.421 -1.8677  0.5933 -1.6051
 3308TIP3    H231416   5.131   0.491  14.301  2.5029  0.6814 -1.4506
 3309TIP3   OH231417   3.499   2.701  11.975 -0.8007  0.1487 -0.0931
 3309TIP3    H131418   3.543   2.618  11.954 -1.6555 -1.0592  2.5290
 3309TIP3    H231419   3.569   2.758  12.008 -0.9017 -1.6004  3.6087
 3310TIP3   OH231420   5.901   5.081   6.122  0.3536  0.1681  0.1340
 3310TIP3    H131421   5.922   5.099   6.031  1.6707  0.3145  0.4403
 3310TIP3    H231422   5.806   5.089   6.127 -0.0860 -2.4616 -1.7823
 3311TIP3   OH231423   6.543   4.762   0.846  0.2971  0.2918 -0.2903
 3311TIP3    H131424   6.453   4.735   0.865  0.1717  1.6995  1.2600
 3311TIP3    H231425   6.593   4.737   0.924  0.4621  3.0052  0.5768
 3312TIP3   OH231426   6.454   3.403  14.712 -0.4074 -0.2733 -0.4873
 3312TIP3    H131427   6.461   3.339  14.642  0.1348 -1.7989  0.9052
 3312TIP3    H231428   6.492   3.360  14.789 -1.5167  1.0913  0.9037
 3313TIP3   OH231429   1.454   6.622   4.204 -0.1708 -0.2054 -0.4676
 3313TIP3    H131430   1.398   6.569   4.260 -0.0194 -0.4741 -0.5729
 3313TIP3    H231431   1.393   6.684   4.162 -0.4053 -0.5558 -0.6520
 3314TIP3   OH231432   5.765   1.426   2.079  0.0437 -0.3050 -0.0621
 3314TIP3    H131433   5.721   1.341   2.074  0.9252 -0.7701 -0.1321
 3314TIP3    H231434   5.854   1.409   2.049  0.2931  0.6052  0.1186
 3315TIP3   OH231435   3.784   6.589   0.444  0.3162  0.2170 -0.5480
 3315TIP3    H131436   3.716   6.656   0.436 -1.0658 -1.0729  0.1775
 3315TIP3    H231437   3.741   6.507   0.423  1.9243 -0.5291 -1.1402
 3316TIP3   OH231438   0.201   6.682   2.331  0.1169 -0.3807  0.5147
 3316TIP3    H131439   0.258   6.660   2.405 -0.1454 -0.8452  0.5832
 3316TIP3    H231440   0.242   6.640   2.256  0.6879  0.5530  0.2837
 3317TIP3   OH231441   1.114   1.525   5.139  1.0001 -0.0497 -0.7171
 3317TIP3    H131442   1.038   1.566   5.097 -0.4924 -2.2310 -0.3207
 3317TIP3    H231443   1.101   1.540   5.233  1.6872  0.5315 -0.7046
 3318TIP3   OH231444   0.770   5.842   5.201 -0.0423 -0.2857  0.2830
 3318TIP3    H131445   0.832   5.816   5.270 -0.9934 -0.1624  1.2176
 3318TIP3    H231446   0.750   5.760   5.155  1.5235 -0.1703 -0.6538
 3319TIP3   OH231447   2.306   1.342  10.623 -0.4773  0.6630 -0.3708
 3319TIP3    H131448   2.377   1.351  10.560 -1.0970  0.4055 -1.1198
 3319TIP3    H231449   2.345   1.367  10.707  0.3081  1.1844 -0.8789
 3320TIP3   OH231450   5.257   1.104  12.458 -0.1441 -0.3852  0.9180
 3320TIP3    H131451   5.191   1.036  12.475 -1.3425  0.9395  1.7790
 3320TIP3    H231452   5.253   1.118  12.363 -0.5748 -0.8338  0.8654
 3321TIP3   OH231453   4.133   3.100  14.027  0.8476  0.6515 -0.3085
 3321TIP3    H131454   4.188   3.052  13.965 -0.9371 -1.2383 -0.5323
 3321TIP3    H231455   4.080   3.158  13.972  0.7144  0.4788 -0.3634
 3322TIP3   OH231456   5.386   1.040  13.282 -0.2499 -0.1745 -0.1664
 3322TIP3    H131457   5.400   1.072  13.193  1.1315  1.2049  0.5073
 3322TIP3    H231458   5.315   1.095  13.316  0.3294  0.4094  0.1126
 3323TIP3   OH231459   3.075   6.645   2.076  0.6506 -0.6011  0.2857
 3323TIP3    H131460   3.165   6.637   2.108  0.9623  0.6616 -0.2279
 3323TIP3    H231461   3.024   6.667   2.153  1.0580  0.3121  0.3058
 3324TIP3   OH231462   3.874   1.554  16.948  0.4385  0.0629 -0.2928
 3324TIP3    H131463   3.951   1.501  16.928 -0.1766 -1.5464  1.3123
 3324TIP3    H231464   3.821   1.550  16.868  0.3762 -1.8813 -0.2137
 3325TIP3   OH231465   3.400   3.851   3.843  0.1968  0.4026  0.2024
 3325TIP3    H131466   3.319   3.886   3.805 -0.5015 -1.9634 -0.7435
 3325TIP3    H231467   3.391   3.756   3.833  2.4439 -0.0171  1.4725
 3326TIP3   OH231468   5.450   5.023  16.994  0.3198 -0.1738  0.5937
 3326TIP3    H131469   5.459   5.090  16.927  0.5132 -1.9421 -1.2628
 3326TIP3    H231470   5.539   5.012  17.029  0.5668 -0.3619 -0.0613
 3327TIP3   OH231471   5.447   6.658  14.465  0.2406  0.3178  0.0066
 3327TIP3    H131472   5.461   6.736  14.519 -3.1230  0.0413  1.5162
 3327TIP3    H231473   5.486   6.587  14.516 -0.7420  0.4039  0.9060
 3328TIP3   OH231474   3.425   0.525   4.679  0.2318  0.0969 -0.0501
 3328TIP3    H131475   3.472   0.515   4.762 -0.3742 -0.8537  0.1868
 3328TIP3    H231476   3.333   0.509   4.700 -0.3745  2.8254 -0.3478
 3329TIP3   OH231477   3.972   5.738  17.005 -0.7118 -0.3220 -0.0819
 3329TIP3    H131478   4.048   5.717  16.951 -0.3863  0.9883 -0.1665
 3329TIP3    H231479   3.979   5.832  17.020 -0.9438 -0.6006  2.0275
 3330TIP3   OH231480   3.076   1.205   1.916 -0.0713 -0.5472  0.4550
 3330TIP3    H131481   3.145   1.146   1.886  0.0403 -1.0317  1.6313
 3330TIP3    H231482   3.065   1.267   1.843  0.1797 -1.6756 -0.5772
 3331TIP3   OH231483   5.107   3.837   1.190 -0.3125 -0.0841  0.4050
 3331TIP3    H131484   5.099   3.898   1.117 -0.6525  0.6597  1.0519
 3331TIP3    H231485   5.186   3.864   1.236 -0.8011  0.2900  1.0555
 3332TIP3   OH231486   0.963   5.277   0.022  0.8950  0.5872  0.1966
 3332TIP3    H131487   0.992   5.206   0.079 -0.5651 -1.5380 -1.4836
 3332TIP3    H231488   0.870   5.287   0.042  0.5528  0.3754 -1.1326
 3333TIP3   OH231489   2.387   2.606  14.097  0.0507 -0.0933  0.3341
 3333TIP3    H131490   2.315   2.644  14.146  0.3763  0.1667  0.6145
 3333TIP3    H231491   2.412   2.529  14.147  2.0327  1.5232  1.9986
 3334TIP3   OH231492   1.250   0.471  11.915 -0.3096 -0.3182 -0.2261
 3334TIP3    H131493   1.317   0.480  11.847 -0.9204  1.6020 -0.6284
 3334TIP3    H231494   1.168   0.495  11.872 -0.7723  0.4880  1.0510
 3335TIP3   OH231495   2.962   2.091  16.835  0.3102  0.1106 -0.0268
 3335TIP3    H131496   2.979   2.006  16.874 -0.9461 -0.3405 -0.4145
 3335TIP3    H231497   3.016   2.152  16.885  0.3779 -0.7516  0.9745
 3336TIP3   OH231498   0.085   3.863  15.991 -0.1896 -0.5912 -0.0380
 3336TIP3    H131499   0.111   3.772  16.005 -0.7218 -0.9588 -1.3638
 3336TIP3    H231500   0.071   3.871  15.897  1.2621  1.2562 -0.1788
 3337TIP3   OH231501   0.153   5.854  11.827 -0.0363  0.0308  0.7423
 3337TIP3    H131502   0.229   5.815  11.785  1.1157  0.4760  2.3249
 3337TIP3    H231503   0.088   5.863  11.756  1.9869  1.2958 -1.0494
 3338TIP3   OH231504   6.086   5.513   0.599 -0.1076  0.2485 -0.1057
 3338TIP3    H131505   6.008   5.479   0.643  0.5149 -1.2265 -0.0572
 3338TIP3    H231506   6.130   5.434   0.566  1.3669  1.0466 -0.1040
 3339TIP3   OH231507   2.990   1.152   0.839 -0.0513 -0.2815 -0.2591
 3339TIP3    H131508   3.084   1.156   0.820 -0.1418 -1.1484 -0.9109
 3339TIP3    H231509   2.948   1.176   0.756 -0.4150 -1.2126 -0.3552
 3340TIP3   OH231510   0.037   0.080  12.650 -0.0588 -0.7905 -0.6237
 3340TIP3    H131511   0.060   0.006  12.707 -0.5898 -0.1387  0.4628
 3340TIP3    H231512  -0.053   0.101  12.674  0.2471  0.5197 -0.5564
 3341TIP3   OH231513   2.655   6.162   6.264  0.5682 -0.2466 -0.3641
 3341TIP3    H131514   2.720   6.145   6.332  0.4985  0.5411 -0.0926
 3341TIP3    H231515   2.632   6.075   6.231  0.5914 -0.6407  0.6215
 3342TIP3   OH231516   0.869   2.547  17.000 -0.4884  0.7745 -0.1297
 3342TIP3    H131517   0.874   2.642  16.993  0.1984  0.6062 -2.6834
 3342TIP3    H231518   0.869   2.530  17.095  1.2153  3.2149  0.3938
 3343TIP3   OH231519   4.571   2.023  16.116  0.1483  0.0052  0.3465
 3343TIP3    H131520   4.594   1.955  16.179 -1.9164 -0.7108  0.3763
 3343TIP3    H231521   4.487   2.056  16.145  0.7074  2.0228 -0.1624
 3344TIP3   OH231522   3.344   2.765  13.911 -0.1393  0.2741  0.0986
 3344TIP3    H131523   3.375   2.853  13.932 -1.9341  0.5518  1.9032
 3344TIP3    H231524   3.270   2.778  13.852  1.2965 -0.2367 -1.9205
 3345TIP3   OH231525   4.710   2.811   2.354  0.6127 -0.3688  0.0763
 3345TIP3    H131526   4.750   2.790   2.269  0.3469 -0.0931 -0.1192
 3345TIP3    H231527   4.775   2.866   2.397 -0.0245  1.0659 -0.7229
 3346TIP3   OH231528   4.599   0.330   1.106 -0.3361  0.0694  0.4641
 3346TIP3    H131529   4.558   0.408   1.069 -0.3078 -0.6567 -1.1881
 3346TIP3    H231530   4.535   0.260   1.094  0.5421 -0.6421 -0.2542
 3347TIP3   OH231531   5.240   6.534   2.663 -0.2044  0.2156 -0.2866
 3347TIP3    H131532   5.235   6.491   2.577 -1.4777 -0.3963  0.0628
 3347TIP3    H231533   5.220   6.626   2.644 -1.4433 -0.0786 -0.5583
 3348TIP3   OH231534   2.088   0.502   5.888  0.2795 -0.3565 -0.0041
 3348TIP3    H131535   2.011   0.494   5.831  0.5161 -0.1274 -0.3579
 3348TIP3    H231536   2.064   0.455   5.967 -0.0780 -0.6280 -0.2709
 3349TIP3   OH231537   1.131   4.075  12.616 -0.7710  0.3618 -0.1990
 3349TIP3    H131538   1.161   4.129  12.543  0.3047  0.9852  0.6709
 3349TIP3    H231539   1.052   4.118  12.647 -1.3703 -0.0384 -1.1217
 3350TIP3   OH231540   0.279   1.899  16.369 -0.0129  0.2262  0.0280
 3350TIP3    H131541   0.232   1.858  16.442  0.2682 -0.1474 -0.0007
 3350TIP3    H231542   0.258   1.844  16.293  1.8922 -1.0067  0.3375
 3351TIP3   OH231543   5.391   2.755  10.806  0.2214  0.2025 -0.0054
 3351TIP3    H131544   5.350   2.841  10.795  0.2286  0.0716 -1.1358
 3351TIP3    H231545   5.453   2.748  10.734  3.1459  0.8641  2.2800
 3352TIP3   OH231546   0.947   6.122   1.093  0.6220  0.4793  0.2814
 3352TIP3    H131547   0.875   6.182   1.110 -0.1691 -0.4230  0.2082
 3352TIP3    H231548   0.923   6.078   1.012  1.4178  0.3929  0.0826
 3353TIP3   OH231549   2.304   3.794   4.111 -0.3219  0.3957 -0.1129
 3353TIP3    H131550   2.287   3.878   4.068  0.0904  0.0280 -1.0128
 3353TIP3    H231551   2.231   3.738   4.083  0.9562 -0.4407 -1.9943
 3354TIP3   OH231552   6.380   2.212   5.860  0.1947 -0.1306  0.4372
 3354TIP3    H131553   6.396   2.132   5.810  0.6679 -0.3786  0.9758
 3354TIP3    H231554   6.297   2.196   5.905 -0.1961  0.0645 -0.1992
 3355TIP3   OH231555   6.689   4.582   6.488  0.1819  1.0960 -0.1994
 3355TIP3    H131556   6.695   4.493   6.454 -0.4920  0.1673  1.8967
 3355TIP3    H231557   6.610   4.618   6.448 -1.2234 -0.3532  1.1054
 3356TIP3   OH231558   0.863   1.949  12.979 -0.1354 -0.3490  0.1291
 3356TIP3    H131559   0.856   2.025  13.037 -1.5174  0.1586 -0.6488
 3356TIP3    H231560   0.954   1.949  12.951 -0.5374  2.3737 -1.5585
 3357TIP3   OH231561   6.682   3.443   5.565  0.3531  0.9728 -0.3388
 3357TIP3    H131562   6.610   3.384   5.588  0.6765  1.7565  3.1766
 3357TIP3    H231563   6.756   3.386   5.547 -0.1283  0.2674 -0.1006
 3358TIP3   OH231564   1.620   2.680  16.342 -0.2222  0.1733  0.4258
 3358TIP3    H131565   1.528   2.665  16.362  0.3366 -0.6147  2.7519
 3358TIP3    H231566   1.650   2.738  16.412  1.3338 -0.6432  0.4688
 3359TIP3   OH231567   6.691   2.531   0.582 -0.0402 -0.6376  0.2712
 3359TIP3    H131568   6.606   2.575   0.578  1.4857  2.4890 -1.7306
 3359TIP3    H231569   6.736   2.575   0.654  0.8112 -0.2562 -0.4758
 3360TIP3   OH231570   1.312   4.163   4.935  0.2132 -0.5689 -0.7534
 3360TIP3    H131571   1.292   4.070   4.946  3.9835 -1.5832 -1.3048
 3360TIP3    H231572   1.229   4.202   4.907 -1.1983 -3.9722 -1.7651
 3361TIP3   OH231573   2.388   6.567   2.251  0.7091  0.1725 -0.1445
 3361TIP3    H131574   2.354   6.566   2.341 -1.6431  2.3321 -0.8858
 3361TIP3    H231575   2.358   6.485   2.213  2.0977 -0.9676  1.1156
 3362TIP3   OH231576   6.066   4.442  11.516  0.3155  0.3322 -0.6311
 3362TIP3    H131577   6.065   4.408  11.427 -4.0135  2.1321 -1.5277
 3362TIP3    H231578   6.005   4.386  11.563 -2.3509  3.0268 -0.6129
 3363TIP3   OH231579   6.552   1.845   2.443  0.0724  0.3156  0.0920
 3363TIP3    H131580   6.496   1.786   2.493 -1.3723  2.4622  1.1902
 3363TIP3    H231581   6.640   1.831   2.479 -0.2296 -1.1251  0.3094
 3364TIP3   OH231582   5.530   4.782   6.591 -0.1383  0.1661 -0.5243
 3364TIP3    H131583   5.493   4.723   6.657  0.4087 -1.6645 -1.7770
 3364TIP3    H231584   5.478   4.861   6.598 -1.6606 -0.8716  0.4700
 3365TIP3   OH231585   4.076   4.718  12.359  0.0292  0.1040 -0.2968
 3365TIP3    H131586   4.161   4.690  12.393  0.0593 -1.0633 -1.2694
 3365TIP3    H231587   4.086   4.716  12.264 -0.3482  2.3879 -0.4418
 3366TIP3   OH231588   5.470   2.305   4.019  0.0385  0.0232 -0.5140
 3366TIP3    H131589   5.462   2.400   4.030  1.1685  0.0773 -0.1039
 3366TIP3    H231590   5.410   2.269   4.085  1.2723  0.4448  0.8858
 3367TIP3   OH231591   5.741   4.733  11.920 -0.2283 -0.4138 -0.2240
 3367TIP3    H131592   5.777   4.811  11.962 -1.4297  0.6063 -0.9999
 3367TIP3    H231593   5.818   4.686  11.888  0.5121  0.6414 -0.0643
 3368TIP3   OH231594   1.937   4.904   0.154 -0.0524  0.4751  0.3986
 3368TIP3    H131595   1.867   4.942   0.208  1.0558 -0.1736  2.4082
 3368TIP3    H231596   2.017   4.930   0.199  0.9935  0.7009 -1.5313
 3369TIP3   OH231597   4.628   2.743  11.848 -0.1901 -0.5964 -0.1556
 3369TIP3    H131598   4.613   2.696  11.930  0.0785 -1.7852 -0.7734
 3369TIP3    H231599   4.550   2.727  11.796 -0.1759 -0.1979 -0.3056
 3370TIP3   OH231600   5.509   2.753  13.454 -0.4579  0.0221  0.3935
 3370TIP3    H131601   5.555   2.735  13.372 -0.1182  0.4666  0.4829
 3370TIP3    H231602   5.534   2.842  13.476 -0.0267 -0.3162  1.3231
 3371TIP3   OH231603   3.718   0.193  13.384 -0.2015 -0.2960 -0.0029
 3371TIP3    H131604   3.768   0.131  13.331  1.7396  0.3553  1.0014
 3371TIP3    H231605   3.766   0.275  13.377 -0.7810  0.2098  1.5064
 3372TIP3   OH231606   0.175   5.631  16.098 -0.5707 -0.1693  0.0816
 3372TIP3    H131607   0.122   5.572  16.043 -1.1755  0.1085  0.3487
 3372TIP3    H231608   0.227   5.682  16.036 -0.6028 -0.4652 -0.1879
 3373TIP3   OH231609   1.812   0.529  10.657  0.0978  0.0345 -0.2981
 3373TIP3    H131610   1.888   0.472  10.674 -0.2094 -0.2089  0.2857
 3373TIP3    H231611   1.740   0.486  10.702  0.0848  1.4828  1.1192
 3374TIP3   OH231612   2.363   5.330   2.428 -0.7693 -0.0498  0.5640
 3374TIP3    H131613   2.275   5.346   2.393 -1.0610  0.3851  1.4745
 3374TIP3    H231614   2.354   5.250   2.480 -0.4821 -0.3231  0.2087
 3375TIP3   OH231615   3.473   0.746  12.791  0.4803 -0.3469 -0.4045
 3375TIP3    H131616   3.459   0.686  12.863  0.0836  0.6753  0.3940
 3375TIP3    H231617   3.540   0.807  12.822  1.6573 -0.9582 -1.5892
 3376TIP3   OH231618   2.348   0.715  12.274 -0.2476  1.1825 -0.0236
 3376TIP3    H131619   2.431   0.677  12.246 -0.6112  0.0166  0.4220
 3376TIP3    H231620   2.370   0.760  12.356 -0.6418 -2.1124  2.0740
 3377TIP3   OH231621   1.723   4.715  13.740  0.4729  0.0861  0.0180
 3377TIP3    H131622   1.787   4.682  13.803 -0.5814  1.5095  1.9236
 3377TIP3    H231623   1.752   4.804  13.720  0.1601  0.0509 -0.6458
 3378TIP3   OH231624   3.734   5.588  11.710  0.0045 -0.5000  0.2393
 3378TIP3    H131625   3.656   5.551  11.669 -1.6858  1.0950  1.8237
 3378TIP3    H231626   3.760   5.524  11.776  0.0110 -1.0099 -0.2527
 3379TIP3   OH231627   1.729   4.378  12.106 -0.8578  0.0162 -0.1624
 3379TIP3    H131628   1.675   4.441  12.153  0.8314  1.0020  0.5518
 3379TIP3    H231629   1.753   4.423  12.025  0.8189  0.5769  0.6014
 3380TIP3   OH231630   2.252   1.539   3.314  0.2841 -0.4875 -0.2496
 3380TIP3    H131631   2.291   1.466   3.362  0.6077 -1.2871 -1.6765
 3380TIP3    H231632   2.168   1.505   3.283  0.9724 -0.7086 -1.9677
 3381TIP3   OH231633   0.728   6.756  13.891  0.1869  0.5681  0.0957
 3381TIP3    H131634   0.797   6.815  13.920 -0.4741  0.9759  0.9016
 3381TIP3    H231635   0.716   6.777  13.798  1.4851  0.1264 -0.1794
 3382TIP3   OH231636   2.684   3.300   6.059 -0.2271 -0.1124 -0.0520
 3382TIP3    H131637   2.630   3.269   5.986 -0.2974  0.9995 -0.4935
 3382TIP3    H231638   2.642   3.381   6.088  2.1182  1.7853 -1.5575
 3383TIP3   OH231639   4.782   6.047  14.849  0.5474  0.8078  0.2602
 3383TIP3    H131640   4.749   5.960  14.872 -1.1922  1.1969 -0.5692
 3383TIP3    H231641   4.876   6.035  14.837  0.1868 -1.2005 -0.9257
 3384TIP3   OH231642   4.821   2.240  15.778 -0.2020  0.0852 -0.4899
 3384TIP3    H131643   4.767   2.319  15.779  0.0159  0.2387  1.2686
 3384TIP3    H231644   4.788   2.190  15.703 -2.0574  0.6758 -0.1264
 3385TIP3   OH231645   1.886   5.990   5.269  0.0417 -0.4263 -0.4515
 3385TIP3    H131646   1.896   5.901   5.303 -1.1125 -0.7571 -0.9416
 3385TIP3    H231647   1.946   6.043   5.322  3.5391 -2.0271 -2.5085
 3386TIP3   OH231648   6.429   6.583   6.088 -0.1613  0.4410 -0.1251
 3386TIP3    H131649   6.440   6.555   6.179  1.2793  1.9123  0.2031
 3386TIP3    H231650   6.342   6.622   6.085  0.2436  1.5003  0.9648
 3387TIP3   OH231651   4.891   4.142   1.992  0.2928  0.1602  0.7567
 3387TIP3    H131652   4.960   4.177   1.936 -2.1484 -0.2003 -2.7799
 3387TIP3    H231653   4.925   4.058   2.024  1.8954  0.5306  0.0945
 3388TIP3   OH231654   3.433   2.275   2.901 -0.1902 -0.1523  0.3170
 3388TIP3    H131655   3.407   2.295   2.991 -1.3249 -2.2994  0.5368
 3388TIP3    H231656   3.516   2.229   2.909 -0.9079 -1.4635  0.3982
 3389TIP3   OH231657   3.899   2.347  16.422  0.0990  0.5274 -0.5235
 3389TIP3    H131658   3.946   2.425  16.393  0.8275  0.5649  0.6856
 3389TIP3    H231659   3.868   2.305  16.341  0.1753  1.7638 -1.2094
 3390TIP3   OH231660   3.915   2.468  11.273  0.2803  0.1062 -0.1890
 3390TIP3    H131661   3.861   2.470  11.194  0.5905 -1.7468 -0.4900
 3390TIP3    H231662   3.867   2.411  11.333  0.3534  1.0150  0.7566
 3391TIP3   OH231663   5.089   0.001   3.827 -0.3771  0.1355 -0.1766
 3391TIP3    H131664   5.042  -0.017   3.909  0.0446 -2.5824 -0.4313
 3391TIP3    H231665   5.179   0.019   3.855 -0.0562 -1.5358 -0.0136
 3392TIP3   OH231666   5.208   6.373   2.882 -0.2063 -0.3789 -0.2500
 3392TIP3    H131667   5.118   6.340   2.888 -0.3315 -0.0465 -0.2586
 3392TIP3    H231668   5.211   6.420   2.798 -0.2339  0.2270  0.0868
 3393TIP3   OH231669   0.824   6.066  14.049  0.1840 -0.2086  0.1387
 3393TIP3    H131670   0.767   6.010  14.101  0.1538 -1.6253 -1.3291
 3393TIP3    H231671   0.802   6.045  13.958  1.9424  0.3485 -0.4658
 3394TIP3   OH231672   6.214   2.626  11.338  0.5728 -0.5860 -0.2981
 3394TIP3    H131673   6.242   2.558  11.399  0.9546 -0.8872 -0.7999
 3394TIP3    H231674   6.131   2.594  11.303 -1.3721  1.0675  2.4201
 3395TIP3   OH231675   4.543   3.074  13.963  0.0801 -0.8902  0.7949
 3395TIP3    H131676   4.609   3.072  14.033  1.0691  1.7901  0.0612
 3395TIP3    H231677   4.476   3.133  13.996  0.2441 -0.1038 -0.2403
 3396TIP3   OH231678   3.428   6.784   2.274 -0.4631  0.2364 -0.3564
 3396TIP3    H131679   3.447   6.865   2.226  0.4951 -0.0685 -0.5215
 3396TIP3    H231680   3.333   6.778   2.277 -0.6821 -1.0591 -4.5235
 3397TIP3   OH231681   0.262   2.166  15.012 -0.0388  0.3293 -0.0878
 3397TIP3    H131682   0.235   2.257  14.997  0.2583  0.6118  1.0156
 3397TIP3    H231683   0.286   2.163  15.104 -0.1580 -0.9100 -0.0812
 3398TIP3   OH231684   1.580   3.615  14.325 -0.5748 -0.2772  0.0214
 3398TIP3    H131685   1.642   3.575  14.386 -0.7133 -1.7479 -0.7537
 3398TIP3    H231686   1.624   3.610  14.240 -0.8145  0.7861 -0.1730
 3399TIP3   OH231687   4.126   1.875   5.569 -0.2273 -0.3455  0.1757
 3399TIP3    H131688   4.177   1.902   5.645 -0.7313 -0.7966  0.6756
 3399TIP3    H231689   4.166   1.792   5.543 -0.4974 -0.5356  0.3683
 3400TIP3   OH231690   5.983   4.416  15.939  0.3342 -0.1622 -0.2108
 3400TIP3    H131691   6.007   4.508  15.928  0.1652 -0.2179 -1.1647
 3400TIP3    H231692   6.005   4.396  16.030 -0.8105  1.1752  0.4042
 3401TIP3   OH231693   5.609   0.622   3.694  0.1442  0.0512  0.5310
 3401TIP3    H131694   5.700   0.625   3.722  0.4083  1.1861 -0.3751
 3401TIP3    H231695   5.576   0.711   3.707 -0.2062  0.1944 -1.0867
 3402TIP3   OH231696   4.031   4.199  14.784  0.4241 -0.0354  0.4435
 3402TIP3    H131697   4.031   4.114  14.829 -0.5051 -0.5876 -0.5555
 3402TIP3    H231698   3.939   4.225  14.782  0.4044 -0.1300 -1.2800
 3403TIP3   OH231699   2.577   5.657  11.201  0.2562 -0.3121  0.3814
 3403TIP3    H131700   2.520   5.693  11.133  1.1927  0.1186 -0.1919
 3403TIP3    H231701   2.630   5.591  11.156  0.9356  0.0242  0.6693
 3404TIP3   OH231702   1.858   6.368  15.111  0.6930 -0.2697 -0.4589
 3404TIP3    H131703   1.949   6.386  15.088  0.8418 -0.3952  0.0166
 3404TIP3    H231704   1.860   6.279  15.148  0.7112  0.4424  1.3549
 3405TIP3   OH231705   1.989   4.154   5.295 -0.2598  0.1888  0.1293
 3405TIP3    H131706   1.990   4.226   5.231  0.5883 -1.2681 -1.5712
 3405TIP3    H231707   2.082   4.140   5.316 -0.4619 -0.0594  0.8837
 3406TIP3   OH231708   3.992   6.132  15.897  0.1933  0.3919 -0.6807
 3406TIP3    H131709   3.965   6.042  15.915  2.6355 -0.4875 -1.0059
 3406TIP3    H231710   3.964   6.147  15.807  0.8603 -0.5525 -1.0754
 3407TIP3   OH231711   1.148   1.389   6.702 -0.3081  0.7153  0.1269
 3407TIP3    H131712   1.231   1.385   6.654 -0.6622  0.0234 -0.4407
 3407TIP3    H231713   1.135   1.300   6.734 -0.1578  1.1335  1.3839
 3408TIP3   OH231714   4.802   1.629  10.629  0.2829 -0.5518  0.0386
 3408TIP3    H131715   4.738   1.607  10.561 -0.8955 -1.8590  1.4863
 3408TIP3    H231716   4.772   1.713  10.664  1.1888  0.3851 -1.3468
 3409TIP3   OH231717   0.555   1.046  10.826 -0.1566  0.6440  0.0834
 3409TIP3    H131718   0.526   0.968  10.779  2.2008  0.2157 -0.7565
 3409TIP3    H231719   0.594   1.012  10.907  0.3921  0.9943 -0.0325
 3410TIP3   OH231720   2.988   1.589  10.800  0.3273 -0.4327 -0.5187
 3410TIP3    H131721   3.031   1.504  10.802 -0.4664 -0.8701 -1.2846
 3410TIP3    H231722   2.944   1.596  10.885  2.3027  0.2700  0.5109
 3411TIP3   OH231723   6.437   3.025   1.296 -0.1422 -0.3473 -0.0089
 3411TIP3    H131724   6.520   3.066   1.271 -0.3934 -0.9672 -2.0028
 3411TIP3    H231725   6.446   2.933   1.270 -1.1387 -0.6183  0.5270
 3412TIP3   OH231726   6.360   5.013   2.324 -0.8423 -0.2250  0.5089
 3412TIP3    H131727   6.436   5.069   2.306 -0.9750 -0.0868  0.3716
 3412TIP3    H231728   6.340   4.973   2.240 -2.7905  2.0657 -0.2051
 3413TIP3   OH231729   3.546   0.264   4.856 -1.1141  0.0623  1.0489
 3413TIP3    H131730   3.551   0.192   4.918 -0.8257 -2.5347 -1.7382
 3413TIP3    H231731   3.457   0.262   4.822 -0.6100 -0.2087 -0.3457
 3414TIP3   OH231732   1.975   4.518   5.651  0.3245  0.0460  0.5775
 3414TIP3    H131733   2.059   4.520   5.696  1.2474 -0.5310 -1.0531
 3414TIP3    H231734   1.944   4.428   5.661 -0.4102  0.4017  1.6779
 3415TIP3   OH231735   1.140   2.927   0.891  0.0651  0.1140 -0.1352
 3415TIP3    H131736   1.115   3.014   0.921  0.7653  0.8274 -1.5285
 3415TIP3    H231737   1.196   2.943   0.815  0.5636 -1.5446 -0.1585
 3416TIP3   OH231738   1.398   6.372  12.414  0.9895  0.8590  0.0104
 3416TIP3    H131739   1.453   6.450  12.416  1.9888  0.2679 -1.7222
 3416TIP3    H231740   1.455   6.303  12.379 -0.9738  0.3867 -2.6299
 3417TIP3   OH231741   2.156   4.136   4.316  0.5209 -0.1322 -0.8235
 3417TIP3    H131742   2.240   4.139   4.269  1.3729  1.5253  0.7208
 3417TIP3    H231743   2.156   4.213   4.371 -2.4831  0.4409 -1.4529
 3418TIP3   OH231744   6.493   3.756   3.673 -0.0328  1.2990  0.2629
 3418TIP3    H131745   6.558   3.704   3.625 -1.1866  0.4228 -0.4130
 3418TIP3    H231746   6.480   3.709   3.755 -0.4413  0.9634  0.0164
 3419TIP3   OH231747   1.117   0.630   5.937  0.1325 -0.1356 -0.6244
 3419TIP3    H131748   1.127   0.589   6.023 -0.5451 -0.9365 -0.9126
 3419TIP3    H231749   1.105   0.723   5.956  1.3252 -0.1074  0.0658
 3420TIP3   OH231750   4.613   4.092  11.648  0.1603  0.6314  0.0153
 3420TIP3    H131751   4.686   4.126  11.597  0.9410  0.0332  0.6944
 3420TIP3    H231752   4.538   4.144  11.621 -0.0032 -1.1611 -3.4355
 3421TIP3   OH231753   5.150   5.309  12.641  0.3965  0.3258 -0.5282
 3421TIP3    H131754   5.202   5.357  12.577  0.3052  0.4166 -0.5349
 3421TIP3    H231755   5.085   5.263  12.588  1.0219 -0.5002 -0.6028
 3422TIP3   OH231756   6.466   6.804  16.475 -0.1511  0.3241 -0.2531
 3422TIP3    H131757   6.422   6.889  16.484 -0.7630 -0.0237  0.1578
 3422TIP3    H231758   6.477   6.792  16.381 -1.2238  0.2838 -0.3820
 3423TIP3   OH231759   3.919   2.233  13.916  0.0508  0.1850 -0.1720
 3423TIP3    H131760   3.904   2.315  13.964  2.5253  0.5500  0.1078
 3423TIP3    H231761   3.875   2.246  13.832  0.0216  1.6229  0.0418
 3424TIP3   OH231762   4.638   2.781  15.976 -0.6185 -0.5655 -0.2096
 3424TIP3    H131763   4.679   2.733  15.904  1.2790 -2.2054  1.8126
 3424TIP3    H231764   4.707   2.839  16.008 -1.0059 -0.7572  1.0307
 3425TIP3   OH231765   2.602   4.795   6.373  0.1111 -0.1851 -0.9885
 3425TIP3    H131766   2.585   4.703   6.355  0.1287 -0.1946 -0.9564
 3425TIP3    H231767   2.532   4.822   6.432  1.8991 -1.0130  1.6558
 3426TIP3   OH231768   3.549   0.760   1.672 -0.0573 -0.0082  0.3234
 3426TIP3    H131769   3.525   0.672   1.643 -3.1605  0.7618  0.1350
 3426TIP3    H231770   3.496   0.775   1.750 -1.7010  2.5494 -1.0988
 3427TIP3   OH231771   6.655   0.341   4.308 -0.3037  0.3002  0.1626
 3427TIP3    H131772   6.659   0.414   4.246 -2.0445  0.8456  0.6612
 3427TIP3    H231773   6.698   0.373   4.387 -1.1610  0.8523  0.4192
 3428TIP3   OH231774   5.744   2.997  15.960 -0.0241  0.5887 -0.4390
 3428TIP3    H131775   5.702   3.082  15.950 -0.8346  0.5604  1.8901
 3428TIP3    H231776   5.744   2.982  16.055 -0.7793 -2.4052 -0.8009
 3429TIP3   OH231777   3.738   1.622   4.418  0.2985 -0.2235 -0.0875
 3429TIP3    H131778   3.710   1.542   4.462 -2.2883 -0.3975 -1.8783
 3429TIP3    H231779   3.704   1.614   4.329  2.6559  1.5095 -1.2474
 3430TIP3   OH231780   3.127   6.729   5.001  0.4835  0.3556  0.0691
 3430TIP3    H131781   3.155   6.790   5.070  0.0245  2.2980 -1.4026
 3430TIP3    H231782   3.183   6.750   4.926 -0.4135 -0.3053 -0.8129
 3431TIP3   OH231783   4.040   3.113   1.011 -0.0449  0.2432  0.0831
 3431TIP3    H131784   3.979   3.052   0.969 -0.7826  0.9065  0.1758
 3431TIP3    H231785   3.998   3.134   1.095  0.9947 -0.3896  0.7930
 3432TIP3   OH231786   2.477   3.294  11.048  0.0935  0.5504 -0.0586
 3432TIP3    H131787   2.484   3.320  10.956 -1.8407  0.8748 -0.1468
 3432TIP3    H231788   2.494   3.200  11.048 -0.6583  0.4034 -0.8762
 3433TIP3   OH231789   3.229   3.511   4.058  0.3660  0.0829 -0.3462
 3433TIP3    H131790   3.213   3.568   4.134 -1.1236  0.2509 -0.7527
 3433TIP3    H231791   3.146   3.511   4.011  1.2513 -0.0421 -1.9729
 3434TIP3   OH231792   1.510   0.692   0.473  0.0119  0.1610  0.1329
 3434TIP3    H131793   1.451   0.745   0.419 -0.4635  0.3961  0.8723
 3434TIP3    H231794   1.482   0.602   0.459 -1.5035  0.3526  1.5829
 3435TIP3   OH231795   5.424   6.749  14.907 -0.3398 -0.6407  0.0643
 3435TIP3    H131796   5.377   6.666  14.921  0.4357 -0.9602  0.8717
 3435TIP3    H231797   5.424   6.792  14.992 -0.3786 -0.0028 -0.2559
 3436TIP3   OH231798   6.193   5.293   2.148 -0.0878 -0.6358  0.2814
 3436TIP3    H131799   6.162   5.302   2.238 -0.0371  3.3836  0.0517
 3436TIP3    H231800   6.289   5.287   2.157 -0.1488 -1.5304  0.4856
 3437TIP3   OH231801   1.959   1.104   3.763  0.0508  0.2749  0.1759
 3437TIP3    H131802   1.916   1.029   3.804  0.1251  0.1863  0.0904
 3437TIP3    H231803   1.960   1.084   3.670  1.7452 -0.4704  0.3297
 3438TIP3   OH231804   2.346   1.042   1.998 -0.1169 -0.2762 -0.2837
 3438TIP3    H131805   2.397   1.120   2.018 -0.4448 -0.1331  0.0131
 3438TIP3    H231806   2.404   0.969   2.020 -0.2413 -0.1191  0.6153
 3439TIP3   OH231807   5.864   0.337  11.224  0.2666 -1.0042  0.3381
 3439TIP3    H131808   5.928   0.329  11.295 -0.1479 -1.2454  0.6927
 3439TIP3    H231809   5.831   0.427  11.234  0.8072 -0.7518 -0.0765
 3440TIP3   OH231810   1.900   1.863  15.423 -0.0619  0.4181 -0.0714
 3440TIP3    H131811   1.839   1.819  15.364  1.7207 -0.7869 -1.1002
 3440TIP3    H231812   1.980   1.811  15.419 -0.0658 -0.2935  4.1458
 3441TIP3   OH231813   2.511   3.381  10.792 -0.0878  0.1668 -1.3123
 3441TIP3    H131814   2.494   3.355  10.701 -0.4788 -0.4516 -1.0719
 3441TIP3    H231815   2.607   3.389  10.797 -0.1710  2.3823 -2.3406
 3442TIP3   OH231816   0.545   3.761   5.355  0.4923  0.0285 -0.6804
 3442TIP3    H131817   0.567   3.785   5.265  0.3603 -0.4028 -0.8263
 3442TIP3    H231818   0.466   3.708   5.347  0.1856  0.4120 -0.2679
 3443TIP3   OH231819   6.456   6.356   1.439  0.2030  0.0417  0.3198
 3443TIP3    H131820   6.515   6.355   1.364  1.7574 -1.9692  1.4554
 3443TIP3    H231821   6.509   6.395   1.509 -1.1269  1.6383  0.4942
 3444TIP3   OH231822   3.541   3.859  14.786 -0.1486 -0.7188 -0.4386
 3444TIP3    H131823   3.625   3.865  14.831 -0.0538  1.1685 -0.7946
 3444TIP3    H231824   3.515   3.767  14.796  0.4462 -0.6739  2.3521
 3445TIP3   OH231825   6.551   1.086  12.713 -0.5441  0.3947  0.6344
 3445TIP3    H131826   6.488   1.156  12.731 -1.3291  0.1861 -1.0543
 3445TIP3    H231827   6.586   1.108  12.627  1.8889  0.5936  1.6133
 3446TIP3   OH231828   4.146   6.366  13.037 -0.7217  0.0791  0.0025
 3446TIP3    H131829   4.163   6.273  13.048  1.9480  0.6111  1.3150
 3446TIP3    H231830   4.193   6.391  12.958  1.6213  0.8768  1.5527
 3447TIP3   OH231831   4.435   5.386  11.048 -0.3911  0.1200  0.2972
 3447TIP3    H131832   4.396   5.461  11.003 -0.2617  0.8799  1.4044
 3447TIP3    H231833   4.455   5.324  10.979 -1.2458  0.7755 -0.5591
 3448TIP3   OH231834   0.485   0.609  13.738 -0.1169 -0.6578 -0.5883
 3448TIP3    H131835   0.575   0.619  13.769 -0.2604 -2.7764  0.6731
 3448TIP3    H231836   0.437   0.680  13.780  1.0775  1.1001 -2.0289
 3449TIP3   OH231837   1.337   6.645   2.855 -0.2588 -0.1090  0.1436
 3449TIP3    H131838   1.347   6.611   2.944 -0.8319 -1.2996 -0.2223
 3449TIP3    H231839   1.259   6.700   2.859 -0.9510 -1.0543  0.1564
 3450TIP3   OH231840   4.341   2.452   3.347  0.0896 -0.3203 -0.2106
 3450TIP3    H131841   4.323   2.546   3.347 -0.0054 -0.3358 -0.6155
 3450TIP3    H231842   4.323   2.424   3.257  2.4243 -0.2756 -0.7546
 3451TIP3   OH231843   4.233   6.515  11.583  0.1182 -0.6076  0.1790
 3451TIP3    H131844   4.305   6.453  11.596  0.3784 -0.4674 -0.5543
 3451TIP3    H231845   4.254   6.589  11.641  2.7247  1.2549 -2.8223
 3452TIP3   OH231846   5.579   4.284   5.780 -0.0055 -0.6733  0.2577
 3452TIP3    H131847   5.517   4.259   5.848 -1.0728 -1.3763 -0.9449
 3452TIP3    H231848   5.646   4.335   5.826 -1.6277  0.3820  1.5270
 3453TIP3   OH231849   5.084   4.021  14.778  0.3377 -0.2230 -0.3031
 3453TIP3    H131850   5.159   4.000  14.722 -0.5171  1.1514 -2.0735
 3453TIP3    H231851   5.121   4.073  14.849  1.1108  0.2355 -1.0198
 3454TIP3   OH231852   2.329   2.513  12.595  0.2300  0.2068  0.0415
 3454TIP3    H131853   2.271   2.544  12.525  0.8274  1.7193  0.1833
 3454TIP3    H231854   2.293   2.553  12.675  1.0219  0.5280  0.2411
 3455TIP3   OH231855   4.925   4.796  13.550  0.6110 -0.0820  0.5236
 3455TIP3    H131856   4.964   4.748  13.476  0.1834 -1.6524  1.2794
 3455TIP3    H231857   4.996   4.806  13.613  1.2333  2.0926 -0.4230
 3456TIP3   OH231858   4.663   6.560   1.743 -0.2774  0.2037  0.4547
 3456TIP3    H131859   4.662   6.656   1.737  1.1492  0.1557 -0.9570
 3456TIP3    H231860   4.570   6.536   1.746 -0.7101  1.5296 -1.0441
 3457TIP3   OH231861   4.571   4.605   4.992  0.1924 -0.6184  1.0941
 3457TIP3    H131862   4.602   4.654   5.069  0.8914 -0.9115  1.0074
 3457TIP3    H231863   4.478   4.589   5.010 -0.3439  1.6152  0.6491
 3458TIP3   OH231864   1.610   2.423   2.760  0.4828  0.5868  0.0062
 3458TIP3    H131865   1.588   2.446   2.851  0.2196 -0.6260  0.2575
 3458TIP3    H231866   1.701   2.393   2.764  1.5928  3.5019 -0.6781
 3459TIP3   OH231867   4.419   3.300  16.518  0.0488 -0.4797 -0.1912
 3459TIP3    H131868   4.387   3.387  16.495  0.7461 -0.1587  0.0299
 3459TIP3    H231869   4.473   3.273  16.444  1.2994  0.0464  0.4865
 3460TIP3   OH231870   0.880   1.196  17.045 -0.1623  0.3194 -0.1274
 3460TIP3    H131871   0.953   1.255  17.028 -0.8559  1.5131  0.8179
 3460TIP3    H231872   0.908   1.111  17.011  1.4176  0.8823 -0.2863
 3461TIP3   OH231873   4.528   2.051   0.128  0.7459  0.2205 -0.0674
 3461TIP3    H131874   4.528   2.140   0.163 -0.5137 -0.1305  0.8976
 3461TIP3    H231875   4.438   2.037   0.098  1.0034 -0.6328 -0.4872
 3462TIP3   OH231876   6.113   1.363  16.383 -1.1333 -0.8076  0.1130
 3462TIP3    H131877   6.151   1.279  16.356 -0.7649 -0.0838 -1.8159
 3462TIP3    H231878   6.032   1.339  16.428  0.2181 -2.2717  1.9598
 3463TIP3   OH231879   3.198   5.064  16.242 -0.3949  0.1315  0.1908
 3463TIP3    H131880   3.163   4.975  16.233 -1.5780  0.7211 -1.3685
 3463TIP3    H231881   3.292   5.054  16.225 -0.4547 -0.8610  0.3697
 3464TIP3   OH231882   6.112   6.309   1.963 -0.1110  0.1570 -0.3627
 3464TIP3    H131883   6.191   6.260   1.985 -0.8306 -0.2653  1.4800
 3464TIP3    H231884   6.044   6.242   1.952 -0.0910  0.4508 -2.7778
 3465TIP3   OH231885   3.684   0.968   2.038  0.2764 -0.0483  0.0345
 3465TIP3    H131886   3.684   0.880   2.002  0.3409 -0.7495  1.6756
 3465TIP3    H231887   3.696   0.956   2.133 -1.3435  1.6069  0.5208
 3466TIP3   OH231888   3.450   2.611   5.626 -0.1640 -0.5811  0.4882
 3466TIP3    H131889   3.376   2.604   5.565 -1.0566 -1.1216  1.5939
 3466TIP3    H231890   3.413   2.589   5.711  0.7964  1.2673  1.4349
 3467TIP3   OH231891   4.950   1.100  11.078 -0.4268 -0.3642  0.1238
 3467TIP3    H131892   4.931   1.051  10.999 -0.8474 -0.9821  0.5980
 3467TIP3    H231893   4.999   1.039  11.133 -0.9791 -0.2749  0.7339
 3468TIP3   OH231894   1.881   6.032   1.587 -0.5628 -0.1876  0.2441
 3468TIP3    H131895   1.885   6.083   1.668 -0.4468 -0.8801  0.6835
 3468TIP3    H231896   1.834   6.089   1.526  0.1036  0.6928  0.5243
 3469TIP3   OH231897   4.130   2.753   1.760 -0.4578 -0.0593 -0.2905
 3469TIP3    H131898   4.068   2.733   1.830 -0.9223  0.1300 -0.6383
 3469TIP3    H231899   4.194   2.812   1.799 -1.2777  0.8438 -0.2833
 3470TIP3   OH231900   0.659   0.434  16.619  0.0576  0.4288 -0.6775
 3470TIP3    H131901   0.748   0.467  16.608 -0.8566  2.5460 -2.5116
 3470TIP3    H231902   0.636   0.396  16.534 -0.9340  0.2535 -0.3505
 3471TIP3   OH231903   6.213   2.631   5.434 -0.0006 -0.6041  0.0614
 3471TIP3    H131904   6.280   2.654   5.498  0.7603  3.2064 -1.8369
 3471TIP3    H231905   6.247   2.553   5.390  1.0855 -1.2220  1.9060
 3472TIP3   OH231906   2.129   6.786   0.568 -0.1425 -0.2546  0.6270
 3472TIP3    H131907   2.034   6.782   0.557  0.0011 -1.0162 -0.4644
 3472TIP3    H231908   2.163   6.803   0.480  0.8134 -1.6055  0.7012
 3473TIP3   OH231909   3.297   5.601  10.806  0.1280 -0.4909  0.2516
 3473TIP3    H131910   3.383   5.593  10.848 -0.4938 -0.1818  1.6289
 3473TIP3    H231911   3.288   5.694  10.786  0.0655 -0.5015  0.2300
 3474TIP3   OH231912   2.597   3.517  12.090  0.2781 -0.0257  0.3588
 3474TIP3    H131913   2.524   3.579  12.082  0.0504 -0.0909  1.6884
 3474TIP3    H231914   2.555   3.431  12.090  0.2785 -0.0377  1.7808
 3475TIP3   OH231915   5.501   5.429   3.241 -0.0294  0.3941 -0.2621
 3475TIP3    H131916   5.524   5.354   3.186  2.3056  1.6618 -1.1565
 3475TIP3    H231917   5.405   5.434   3.236 -0.1066 -1.4145 -1.6385
 3476TIP3   OH231918   2.169   4.940  14.817 -0.1954 -0.0264  0.2560
 3476TIP3    H131919   2.115   4.938  14.896  0.8474  1.3973  1.0471
 3476TIP3    H231920   2.202   4.850  14.809 -0.6377 -0.2881  1.2072
 3477TIP3   OH231921   0.281   5.979   1.192  0.3640 -0.0479  0.4400
 3477TIP3    H131922   0.346   5.966   1.261  1.2576 -0.7659 -0.5254
 3477TIP3    H231923   0.329   6.017   1.119 -0.7042  1.3265  0.4017
 3478TIP3   OH231924   1.872   0.755  16.897 -0.1469 -0.1212  0.0395
 3478TIP3    H131925   1.787   0.772  16.938 -0.1861 -0.9500  0.3236
 3478TIP3    H231926   1.912   0.841  16.888 -0.5401  0.1669  0.9409
 3479TIP3   OH231927   3.702   1.206   4.882  0.2795  0.6415  0.5334
 3479TIP3    H131928   3.680   1.153   4.958 -1.3744  0.5427  0.0262
 3479TIP3    H231929   3.761   1.152   4.831  1.5874  0.7877  1.8092
 3480TIP3   OH231930   2.644   5.395   4.862 -0.5337  0.6028  0.2979
 3480TIP3    H131931   2.627   5.347   4.781  0.5133  0.2633  0.2657
 3480TIP3    H231932   2.571   5.372   4.919 -2.4395  2.5085 -1.2455
 3481TIP3   OH231933   4.341   0.711   5.083  0.4401  0.3138 -0.6158
 3481TIP3    H131934   4.317   0.626   5.045  0.0219 -0.3672  1.0740
 3481TIP3    H231935   4.332   0.773   5.011 -0.7871 -0.8325 -1.4943
 3482TIP3   OH231936   6.562   5.059  17.100 -0.8402 -0.5073  0.1951
 3482TIP3    H131937   6.499   5.022  17.039  0.2719 -0.7022 -0.8678
 3482TIP3    H231938   6.569   4.993  17.170 -2.0385 -0.3287  0.4997
 3483TIP3   OH231939   5.795   0.081  11.211  0.8555 -0.1267  0.3433
 3483TIP3    H131940   5.817   0.173  11.209 -0.0171  0.1039  0.7622
 3483TIP3    H231941   5.812   0.053  11.301 -0.4970  0.0630  0.6803
 3484TIP3   OH231942   1.767   3.962  13.291 -0.5934  0.0481  0.1519
 3484TIP3    H131943   1.705   4.031  13.314  1.0210  2.2777 -1.7254
 3484TIP3    H231944   1.746   3.940  13.201  0.8672  0.3819 -0.3037
 3485TIP3   OH231945   6.434   0.701   3.036 -0.3687  0.2618  0.0880
 3485TIP3    H131946   6.368   0.764   3.009  0.4738  1.7624  1.3554
 3485TIP3    H231947   6.392   0.616   3.024 -1.4874  1.0147 -1.8176
 3486TIP3   OH231948   2.518   3.251   0.097 -0.2976 -0.3930 -0.1231
 3486TIP3    H131949   2.551   3.262   0.007 -0.3133 -1.0246 -0.2063
 3486TIP3    H231950   2.520   3.340   0.133  0.1604 -0.2038 -0.5908
 3487TIP3   OH231951   0.692   4.870   5.125 -0.2309 -0.0427  0.0642
 3487TIP3    H131952   0.749   4.906   5.193 -1.1690 -0.3736  1.0560
 3487TIP3    H231953   0.751   4.824   5.066  0.6757  0.8183  0.2771
 3488TIP3   OH231954   0.431   5.993   5.043  0.5811 -0.5146 -0.0122
 3488TIP3    H131955   0.463   5.920   4.991  2.9208  1.3852 -1.4455
 3488TIP3    H231956   0.392   6.053   4.979 -0.8938 -0.2380  1.0732
 3489TIP3   OH231957   6.224   6.674  15.769  0.4140  0.4660  0.2688
 3489TIP3    H131958   6.157   6.675  15.701 -0.4761 -2.2708  1.0104
 3489TIP3    H231959   6.178   6.701  15.849  0.9816  1.6624  0.2169
 3490TIP3   OH231960   5.790   0.262  14.746 -0.4315 -0.5861 -0.4616
 3490TIP3    H131961   5.707   0.228  14.780 -0.8033  0.1638 -0.5977
 3490TIP3    H231962   5.786   0.244  14.652 -0.3628 -0.6902 -0.4460
 3491TIP3   OH231963   4.538   2.110  14.953  0.9006 -0.2591  0.2030
 3491TIP3    H131964   4.525   2.040  15.018  1.1609 -0.1819  0.3394
 3491TIP3    H231965   4.566   2.064  14.874 -0.9428 -0.5076 -0.3398
 3492TIP3   OH231966   3.282   0.279   5.485  0.0933  0.4861 -0.3031
 3492TIP3    H131967   3.196   0.303   5.519  0.4620  0.4875  0.6631
 3492TIP3    H231968   3.308   0.355   5.432 -0.4232  0.5472 -0.4802
 3493TIP3   OH231969   2.050   3.639  16.216 -0.2393  0.1916  0.0829
 3493TIP3    H131970   2.131   3.590  16.228 -0.3313 -0.1951 -0.8126
 3493TIP3    H231971   2.001   3.589  16.150 -0.6910  1.0539 -0.2536
 3494TIP3   OH231972   4.809   2.773   2.105  0.2015  0.3703  0.0743
 3494TIP3    H131973   4.800   2.845   2.043  1.0158  1.3292  1.0051
 3494TIP3    H231974   4.827   2.696   2.052 -2.0739  0.5500 -1.0422
 3495TIP3   OH231975   3.968   1.906   0.015 -0.0171  0.3742  0.0439
 3495TIP3    H131976   3.995   1.896  -0.076 -2.5273 -2.0692 -0.5745
 3495TIP3    H231977   3.920   1.989   0.017 -1.5909 -0.4418 -1.3843
 3496TIP3   OH231978   4.317   0.706  14.209 -0.1196  0.0979 -0.4895
 3496TIP3    H131979   4.394   0.651  14.196 -0.6831 -0.8161 -0.0617
 3496TIP3    H231980   4.265   0.693  14.129  0.5945  1.4612 -1.2098
 3497TIP3   OH231981   0.453   2.124   0.629 -0.3716  0.3303 -0.3963
 3497TIP3    H131982   0.403   2.101   0.551 -2.5635  0.6062  0.8496
 3497TIP3    H231983   0.542   2.093   0.610 -0.2271  2.3061 -3.8612
 3498TIP3   OH231984   3.896   2.794   2.446 -0.4037 -0.3681  0.1741
 3498TIP3    H131985   3.952   2.719   2.466 -2.0115 -2.0532 -1.2403
 3498TIP3    H231986   3.894   2.845   2.527  2.9243 -0.3224  0.3568
 3499TIP3   OH231987   1.626   2.703   4.270  0.1114  0.2288 -0.0804
 3499TIP3    H131988   1.568   2.771   4.304 -1.5468 -1.3397  0.3579
 3499TIP3    H231989   1.617   2.709   4.175 -0.9468 -0.1189 -0.0117
 3500TIP3   OH231990   4.085   2.068   0.377 -0.6757 -0.4065 -0.3594
 3500TIP3    H131991   4.117   2.121   0.304  1.2206 -0.7095  0.2013
 3500TIP3    H231992   4.018   2.122   0.418  0.3925  1.0734 -0.4937
 3501TIP3   OH231993   4.079   3.928  16.942 -0.0769  0.6223 -0.7598
 3501TIP3    H131994   4.133   4.008  16.940  0.0693  0.5168 -1.0799
 3501TIP3    H231995   4.143   3.857  16.953 -0.2814  0.6214  0.5868
 3502TIP3   OH231996   0.380   5.525   5.974 -0.0743  0.6880 -0.2372
 3502TIP3    H131997   0.453   5.573   5.937  0.1912  1.3870  1.1190
 3502TIP3    H231998   0.317   5.517   5.902  1.5052 -0.3448 -1.5487
 3503TIP3   OH231999   3.054   3.823  16.247  0.0782  0.2101 -0.3324
 3503TIP3    H132000   2.975   3.848  16.296 -0.0503  0.1526 -0.5078
 3503TIP3    H232001   3.126   3.836  16.309 -0.1783 -0.8086  0.1982
 3504TIP3   OH232002   0.571   4.523  15.733  0.0041 -0.7146  0.2762
 3504TIP3    H132003   0.491   4.489  15.772 -0.2731  0.3644  0.6702
 3504TIP3    H232004   0.634   4.526  15.805 -0.1750  0.2109  0.4118
 3505TIP3   OH232005   4.114   3.706   0.424  0.4285 -0.2254  1.0485
 3505TIP3    H132006   4.083   3.721   0.335  2.2485 -1.0650  0.2030
 3505TIP3    H232007   4.150   3.790   0.452  2.7695 -0.6717 -0.3201
 3506TIP3   OH232008   4.635   6.169   1.955 -0.0448  0.2923  0.7646
 3506TIP3    H132009   4.542   6.191   1.956 -0.2655 -0.5722  1.1628
 3506TIP3    H232010   4.636   6.073   1.945  0.8642  0.5132 -1.8616
 3507TIP3   OH232011   2.503   6.582   0.177  0.0546  0.5263 -0.3862
 3507TIP3    H132012   2.434   6.599   0.114  0.8814  3.4615 -0.6508
 3507TIP3    H232013   2.581   6.622   0.139  0.7283  1.8279  2.1024
 3508TIP3   OH232014   0.202   3.780  10.771  0.3769 -0.6167  0.2055
 3508TIP3    H132015   0.252   3.739  10.841 -0.3385 -1.4625  0.2357
 3508TIP3    H232016   0.142   3.840  10.816  0.5359 -0.4873  0.2468
 3509TIP3   OH232017   2.624   5.391  12.495 -0.2803  0.6901 -0.2079
 3509TIP3    H132018   2.707   5.389  12.447  0.3230  3.0639  0.6178
 3509TIP3    H232019   2.637   5.331  12.568 -0.0918 -0.5574 -1.2140
 3510TIP3   OH232020   3.489   3.497  10.324 -0.2691 -0.1451 -0.5216
 3510TIP3    H132021   3.472   3.434  10.394 -0.9122 -1.0354 -1.4463
 3510TIP3    H232022   3.473   3.448  10.244  0.7965  0.7527 -1.3115
 3511TIP3   OH232023   3.573   2.623  14.742  0.0319  0.7577 -0.4552
 3511TIP3    H132024   3.555   2.634  14.836  0.7000  0.8310 -0.3315
 3511TIP3    H232025   3.607   2.707  14.714 -1.5523  1.2136 -1.1120
 3512TIP3   OH232026   0.828   2.245  12.314  0.3387  0.1322  0.2921
 3512TIP3    H132027   0.747   2.237  12.364 -1.0659 -1.3750 -2.0466
 3512TIP3    H232028   0.892   2.194  12.363 -0.7341 -0.5314  1.0383
 3513TIP3   OH232029   5.683   3.695  11.344 -0.2466  0.1112 -0.0626
 3513TIP3    H132030   5.596   3.707  11.384 -1.0085  0.3706 -1.7103
 3513TIP3    H232031   5.665   3.655  11.260  0.9800  2.5745 -1.6195
 3514TIP3   OH232032   3.189   6.241  14.537  0.2023  0.1707 -0.6900
 3514TIP3    H132033   3.098   6.255  14.566  0.5722  2.1646 -0.3910
 3514TIP3    H232034   3.188   6.261  14.444  0.5018  1.0902 -0.5028
 3515TIP3   OH232035   0.413   6.528   1.348 -0.0052  0.6575 -0.2097
 3515TIP3    H132036   0.436   6.620   1.357  0.0660  0.4891  1.9673
 3515TIP3    H232037   0.471   6.483   1.409  0.9938 -1.0451 -2.2950
 3516TIP3   OH232038   3.094   4.517  14.356  0.0307  0.3427 -0.0490
 3516TIP3    H132039   3.029   4.496  14.290  0.9000  0.3804 -0.9429
 3516TIP3    H232040   3.161   4.450  14.347  1.7117  2.0847 -1.3844
 3517TIP3   OH232041   2.127   2.052   2.228 -0.4192  0.2601  0.0690
 3517TIP3    H132042   2.036   2.021   2.230 -0.5980  0.6367 -1.1873
 3517TIP3    H232043   2.119   2.144   2.202  0.3240  0.3123  0.0199
 3518TIP3   OH232044   1.075   0.985   5.005  0.7074  0.1269  0.0565
 3518TIP3    H132045   1.069   0.956   5.096  0.6843 -1.1566 -0.3373
 3518TIP3    H232046   1.110   1.074   5.010 -0.6937  0.6320  1.3943
 3519TIP3   OH232047   1.653   5.443  13.332 -0.1164  0.5852 -0.3773
 3519TIP3    H132048   1.664   5.348  13.339 -1.2850  0.5419  1.1542
 3519TIP3    H232049   1.586   5.454  13.264  1.0093  0.4125 -1.5674
 3520TIP3   OH232050   0.242   5.110  11.088  0.1637 -0.2930 -0.0338
 3520TIP3    H132051   0.289   5.086  11.168 -0.0065 -2.2583 -0.4692
 3520TIP3    H232052   0.150   5.109  11.113  0.1543 -0.0543 -0.0561
 3521TIP3   OH232053   4.116   1.391   3.002  0.1878  0.0147  0.4100
 3521TIP3    H132054   4.175   1.431   3.065  0.5986  1.8393 -1.0612
 3521TIP3    H232055   4.051   1.346   3.056  0.3765  1.6940  2.1438
 3522TIP3   OH232056   1.880   3.275   1.939 -0.6391  0.1189  0.5197
 3522TIP3    H132057   1.936   3.250   2.013  0.4306  0.8005 -0.0433
 3522TIP3    H232058   1.904   3.366   1.920 -1.1876  0.0806 -0.4196
 3523TIP3   OH232059   4.244   5.064   3.944 -0.4250  0.3090 -0.3738
 3523TIP3    H132060   4.246   5.021   4.029 -0.2701 -0.0675 -0.5681
 3523TIP3    H232061   4.297   5.008   3.887  0.5820  1.2463 -0.3956
 3524TIP3   OH232062   2.980   3.304  14.036  0.2570 -0.0131  0.1827
 3524TIP3    H132063   2.966   3.223  13.986  3.1578 -0.0635 -0.7770
 3524TIP3    H232064   2.913   3.364  14.004  0.1132 -1.0296 -1.5643
 3525TIP3   OH232065   0.231   1.637   5.236  0.0187  0.3628 -0.2732
 3525TIP3    H132066   0.327   1.640   5.235  0.0561 -0.4618 -0.1230
 3525TIP3    H232067   0.210   1.545   5.217 -0.7641  0.7114 -1.1602
 3526TIP3   OH232068   5.422   2.069  12.994 -0.0973 -0.5980  0.4147
 3526TIP3    H132069   5.418   2.165  12.988 -0.2960 -0.6212  0.1761
 3526TIP3    H232070   5.509   2.047  12.962 -0.1610 -0.5189  0.1856
 3527TIP3   OH232071   4.259   2.061  16.171  0.8750 -0.3809 -0.2694
 3527TIP3    H132072   4.170   2.036  16.146  0.2528  0.7741  0.6775
 3527TIP3    H232073   4.291   2.113  16.097 -0.2408  1.3978  0.4274
 3528TIP3   OH232074   4.355   3.456   4.766 -0.0546  0.1836 -0.1663
 3528TIP3    H132075   4.296   3.393   4.723 -0.5800  1.5167 -1.4737
 3528TIP3    H232076   4.315   3.471   4.852  0.3327 -1.5792  0.3613
 3529TIP3   OH232077   4.903   6.200   5.198  0.0021  0.1335  0.3985
 3529TIP3    H132078   4.841   6.191   5.126  0.7419 -0.9121 -0.1250
 3529TIP3    H232079   4.927   6.111   5.221  1.1040  0.5107  0.7748
 3530TIP3   OH232080   6.125   6.101   0.477  0.1763 -0.0649  0.0854
 3530TIP3    H132081   6.182   6.174   0.501  1.2376 -0.6927 -0.4455
 3530TIP3    H232082   6.161   6.026   0.525  0.3595 -0.6570 -0.9652
 3531TIP3   OH232083   0.001   5.287   6.025  0.2582 -0.0452  0.1565
 3531TIP3    H132084  -0.088   5.321   6.030  0.4972  0.4471  1.8446
 3531TIP3    H232085   0.014   5.241   6.108  1.5591 -0.1598 -0.0857
 3532TIP3   OH232086   5.024   5.435   2.406 -0.3228  0.1584 -0.4410
 3532TIP3    H132087   4.981   5.389   2.334  1.8447  0.9938 -2.4051
 3532TIP3    H232088   4.985   5.522   2.405 -1.8185 -0.4565  0.8722
 3533TIP3   OH232089   2.115   0.047  16.988  0.1440  1.0402 -0.0410
 3533TIP3    H132090   2.189   0.021  16.932 -1.4699  2.1552 -2.9129
 3533TIP3    H232091   2.124   0.141  16.998 -1.8393  1.5706 -2.1970
 3534TIP3   OH232092   5.682   0.319   0.924  0.3680  0.3311  0.6733
 3534TIP3    H132093   5.637   0.310   0.840 -0.7556  0.1588  1.2733
 3534TIP3    H232094   5.773   0.297   0.905  0.4723  1.8538 -0.8300
 3535TIP3   OH232095   4.810   1.226   5.060 -0.5329 -0.0159 -0.1528
 3535TIP3    H132096   4.730   1.275   5.075 -1.5682 -1.0050 -2.0317
 3535TIP3    H232097   4.881   1.289   5.072 -1.7530  1.6385 -1.3950
 3536TIP3   OH232098   6.431   2.841   4.145  0.2899 -0.2631 -0.3410
 3536TIP3    H132099   6.438   2.920   4.092  0.6981 -1.0224 -1.4491
 3536TIP3    H232100   6.446   2.872   4.235 -0.7873  1.0968 -0.5988
 3537TIP3   OH232101   4.480   6.459  14.909  0.1569  0.2379 -0.4149
 3537TIP3    H132102   4.412   6.444  14.974  0.7244 -1.7576 -0.1952
 3537TIP3    H232103   4.496   6.372  14.871 -0.7744  1.4630 -3.8901
 3538TIP3   OH232104   6.225   1.710  16.243 -0.3289 -0.3022  0.4395
 3538TIP3    H132105   6.320   1.697  16.249 -0.5503 -2.3449  0.1507
 3538TIP3    H232106   6.188   1.622  16.253 -2.0586  0.0017 -2.3645
 3539TIP3   OH232107   0.252   0.360   4.985 -0.2034  0.4731  0.1795
 3539TIP3    H132108   0.223   0.408   5.062  0.7768  0.6794  0.4326
 3539TIP3    H232109   0.177   0.363   4.925 -1.0245  0.1724  1.1763
 3540TIP3   OH232110   4.439   5.240   1.122  0.1416  0.2548  0.2708
 3540TIP3    H132111   4.406   5.288   1.198 -0.9973 -0.5521  0.3128
 3540TIP3    H232112   4.522   5.203   1.151  0.6106  1.4424  0.5144
 3541TIP3   OH232113   5.723   0.045  16.088 -0.2107 -0.0211  0.3708
 3541TIP3    H132114   5.703   0.005  16.003  0.0606 -1.7618  1.1033
 3541TIP3    H232115   5.654   0.111  16.100 -0.9938 -0.6319 -0.6176
 3542TIP3   OH232116   2.584   3.599  15.960 -0.0122 -0.0482 -0.2885
 3542TIP3    H132117   2.562   3.660  16.031  1.2457 -1.1297  1.0690
 3542TIP3    H232118   2.654   3.643  15.912 -0.0873  0.1801 -0.1952
 3543TIP3   OH232119   6.474   1.310   5.125 -0.1825 -0.5656 -0.7206
 3543TIP3    H132120   6.406   1.274   5.182  0.9523 -1.5973  0.0427
 3543TIP3    H232121   6.449   1.282   5.037 -0.6573 -1.0687 -0.4281
 3544TIP3   OH232122   6.210   0.958  15.977  0.1739  0.1786 -0.2672
 3544TIP3    H132123   6.191   0.934  15.887 -1.3720  2.0390 -0.5210
 3544TIP3    H232124   6.153   0.901  16.029  1.7465 -1.5380 -0.3729
 3545TIP3   OH232125   6.172   1.764  12.292 -0.1159 -0.0640 -0.0473
 3545TIP3    H132126   6.260   1.801  12.288 -0.4884  0.7951 -0.6340
 3545TIP3    H232127   6.156   1.751  12.385  0.2743  0.6806  0.1345
 3546TIP3   OH232128   2.835   3.512  13.777  0.0523  0.1282 -0.2255
 3546TIP3    H132129   2.882   3.434  13.748 -0.4969  0.0261 -0.8806
 3546TIP3    H232130   2.751   3.478  13.810 -0.5951  0.4989 -1.4176
 3547TIP3   OH232131   1.142   3.560   4.838  0.4181 -0.1642 -0.0323
 3547TIP3    H132132   1.194   3.482   4.822  2.6658  0.9549  1.3331
 3547TIP3    H232133   1.120   3.556   4.931 -2.1410 -0.6284 -0.5576
 3548TIP3   OH232134   6.257   6.273  14.336  0.3448 -0.4616  0.2699
 3548TIP3    H132135   6.216   6.271  14.250 -0.4071 -1.2349  0.6273
 3548TIP3    H232136   6.339   6.320  14.322 -0.2493  0.3590 -0.6425
 3549TIP3   OH232137   1.782   3.139   4.325  0.2798  0.0446  0.0118
 3549TIP3    H132138   1.871   3.142   4.359 -0.1191  1.1864  1.0207
 3549TIP3    H232139   1.757   3.231   4.315 -0.4398 -0.2634 -1.2240
 3550TIP3   OH232140   3.458   5.443  12.013 -0.5697  0.5863  0.4369
 3550TIP3    H132141   3.513   5.403  12.079  0.5403  0.7381 -0.3610
 3550TIP3    H232142   3.369   5.437  12.048 -0.0713  0.1851  1.6761
 3551TIP3   OH232143   6.845   5.900  14.134 -0.1337 -0.3617 -0.6111
 3551TIP3    H132144   6.871   5.984  14.096  2.3296 -0.6594  0.2436
 3551TIP3    H232145   6.824   5.845  14.059  0.2730  0.3910 -1.2950
 3552TIP3   OH232146   6.654   5.315   2.808  0.1950  0.2217  0.0350
 3552TIP3    H132147   6.706   5.274   2.877 -1.1689 -1.5479  0.0997
 3552TIP3    H232148   6.668   5.258   2.732 -0.3115  0.7021 -0.4203
 3553TIP3   OH232149   3.847   0.641   2.329  0.5496 -0.1006  0.0253
 3553TIP3    H132150   3.862   0.550   2.307  0.9264  0.1003 -0.5649
 3553TIP3    H232151   3.934   0.680   2.332  0.3342  0.4969 -0.8825
 3554TIP3   OH232152   3.907   2.033   0.668 -0.8155 -0.1249  0.2429
 3554TIP3    H132153   3.825   1.991   0.643 -0.4054 -0.0691 -1.2518
 3554TIP3    H232154   3.912   2.112   0.614  0.4924 -0.4345 -0.1150
 3555TIP3   OH232155   5.624   2.462   3.741 -0.4055  0.1503 -0.1651
 3555TIP3    H132156   5.530   2.479   3.747 -0.3667  0.6294 -0.8100
 3555TIP3    H232157   5.664   2.526   3.800 -0.4562  0.2110 -0.1968
 3556TIP3   OH232158   5.015   2.208   1.838 -0.1738  0.2872 -0.2868
 3556TIP3    H132159   5.077   2.216   1.765 -0.2520  0.0953 -0.3750
 3556TIP3    H232160   4.995   2.114   1.842  1.7475 -0.1107  1.5830
 3557TIP3   OH232161   0.978   5.953  16.721  0.3271 -0.5962 -0.5595
 3557TIP3    H132162   0.997   5.884  16.657  2.0677 -2.5872  1.9067
 3557TIP3    H232163   1.063   5.984  16.749 -0.3844  0.2753  0.7295
 3558TIP3   OH232164   2.907   4.070   1.066  0.2683  0.2086  0.3983
 3558TIP3    H132165   2.852   4.122   1.124 -2.0316 -0.9637 -0.6141
 3558TIP3    H232166   2.886   4.102   0.978 -1.0829 -2.1841 -0.2446
 3559TIP3   OH232167   2.985   0.789   2.114 -0.4355 -0.0489 -0.2489
 3559TIP3    H132168   2.941   0.801   2.199 -0.2334  1.0308 -0.2884
 3559TIP3    H232169   2.913   0.772   2.053 -0.7255  0.6807 -0.1239
 3560TIP3   OH232170   5.007   5.546   4.647  0.2109  0.1480 -0.0312
 3560TIP3    H132171   4.987   5.601   4.723 -0.2356  1.6758 -1.2037
 3560TIP3    H232172   5.098   5.567   4.625  0.6380 -0.9516  0.5655
 3561TIP3   OH232173   6.853   0.577  10.702  0.2980  0.0786  0.4676
 3561TIP3    H132174   6.800   0.652  10.676  0.5103  0.1365  0.1931
 3561TIP3    H232175   6.799   0.501  10.682  1.3127 -0.0168 -2.4056
 3562TIP3   OH232176   3.802   5.504  15.402  0.4841  0.5785  0.0481
 3562TIP3    H132177   3.825   5.460  15.320  0.7884 -0.2183  0.5548
 3562TIP3    H232178   3.758   5.585  15.374 -2.6809 -1.3132 -0.9236
 3563TIP3   OH232179   5.343   4.142  15.904 -0.2520  0.2848  0.4236
 3563TIP3    H132180   5.394   4.098  15.835 -0.1122 -1.1979  1.4186
 3563TIP3    H232181   5.392   4.223  15.922 -0.6057  0.9925 -1.5748
 3564TIP3   OH232182   0.339   3.820   3.670  0.5394  0.1454  0.0213
 3564TIP3    H132183   0.343   3.908   3.709 -0.5610  0.1705  0.0918
 3564TIP3    H232184   0.378   3.763   3.737 -1.3759  0.1823  1.2353
 3565TIP3   OH232185   0.819   0.673  12.252  0.0626 -0.6273  0.1435
 3565TIP3    H132186   0.780   0.758  12.236 -1.7565 -1.2687  0.8931
 3565TIP3    H232187   0.858   0.647  12.169  0.1634  0.6827 -0.2279
 3566TIP3   OH232188   5.484   0.940   1.913  0.4153 -0.5322  0.3608
 3566TIP3    H132189   5.529   1.013   1.870  1.2442 -0.6115  1.0577
 3566TIP3    H232190   5.518   0.862   1.870  0.2293 -0.5497  0.2456
 3567TIP3   OH232191   0.848   4.563  11.698 -0.6257  0.5428 -0.5256
 3567TIP3    H132192   0.851   4.612  11.616 -1.9710  0.5386 -0.6014
 3567TIP3    H232193   0.826   4.629  11.764  2.0190  0.8721  0.1593
 3568TIP3   OH232194   5.667   5.935   3.556  0.1016  0.0583  0.7272
 3568TIP3    H132195   5.671   5.862   3.617 -2.2603 -1.1488 -0.4439
 3568TIP3    H232196   5.582   5.976   3.572  0.8783  1.8610  0.5414
 3569TIP3   OH232197   5.711   6.366   3.988 -0.4547 -0.4007  0.0619
 3569TIP3    H132198   5.687   6.320   3.907  0.2367 -0.9261  0.1483
 3569TIP3    H232199   5.792   6.412   3.967 -1.3031  1.0741 -0.1201
 3570TIP3   OH232200   3.550   4.717   5.739 -0.1203  0.0687 -0.0626
 3570TIP3    H132201   3.521   4.792   5.688 -0.8144 -1.3478 -1.8521
 3570TIP3    H232202   3.489   4.713   5.812  0.1097  1.3906  0.2344
 3571TIP3   OH232203   0.095   5.167   0.424  0.1873  0.3807 -0.3172
 3571TIP3    H132204   0.128   5.227   0.357 -0.6177 -1.0480 -2.0491
 3571TIP3    H232205   0.172   5.121   0.455  0.5737  1.0928 -0.1933
 3572TIP3   OH232206   2.745   3.275  16.274  0.1003 -0.1891  0.3745
 3572TIP3    H132207   2.697   3.269  16.356  0.7288 -0.5247  0.7283
 3572TIP3    H232208   2.686   3.321  16.215  0.0640  1.0392  1.3283
 3573TIP3   OH232209   5.493   0.122   0.903  0.0217  0.8404 -0.0518
 3573TIP3    H132210   5.537   0.188   0.956  0.5401  0.7470 -0.3543
 3573TIP3    H232211   5.437   0.173   0.843 -1.9124  0.8946  1.6998
 3574TIP3   OH232212   1.069   3.482   0.897  0.5165  0.1558 -0.3465
 3574TIP3    H132213   1.135   3.466   0.964  1.1844  2.1920 -0.4423
 3574TIP3    H232214   1.083   3.413   0.832  0.8908 -0.8981  0.8130
 3575TIP3   OH232215   3.739   0.927   1.155  0.0528 -0.1434  0.0087
 3575TIP3    H132216   3.686   1.001   1.125  0.6312 -0.1809 -1.1273
 3575TIP3    H232217   3.817   0.967   1.193  0.0222 -0.1480  0.0771
 3576TIP3   OH232218   5.472   6.592  11.571 -0.2218 -0.1801 -0.7346
 3576TIP3    H132219   5.543   6.565  11.513 -0.8232  1.7973 -2.5216
 3576TIP3    H232220   5.513   6.654  11.632 -0.1405 -0.0627 -0.9070
 3577TIP3   OH232221   6.262   6.695  16.636 -0.2929 -0.8364 -0.5805
 3577TIP3    H132222   6.186   6.723  16.583 -0.9641  0.3762  0.9516
 3577TIP3    H232223   6.334   6.750  16.604 -0.8929  0.5179  0.2856
 3578TIP3   OH232224   5.163   6.763   6.235  0.4626  0.4119 -0.4212
 3578TIP3    H132225   5.171   6.713   6.317  2.1030 -0.4603 -1.0530
 3578TIP3    H232226   5.153   6.696   6.167  0.9005  1.0328 -1.1101
 3579TIP3   OH232227   1.559   6.814  16.793 -0.0813  0.0005  0.0636
 3579TIP3    H132228   1.548   6.837  16.885  0.6871  2.9326 -0.4580
 3579TIP3    H232229   1.625   6.745  16.793 -1.9902 -1.9934  1.7754
 3580TIP3   OH232230   2.808   2.319  13.911  0.9651 -0.1501  0.1513
 3580TIP3    H132231   2.805   2.268  13.830  3.2960  0.5114 -0.4364
 3580TIP3    H232232   2.772   2.404  13.888 -2.1980 -1.1591  0.9341
 3581TIP3   OH232233   0.233   2.728   4.219  0.0212  0.6620 -0.3897
 3581TIP3    H132234   0.227   2.640   4.183 -1.8694  0.9658 -0.9326
 3581TIP3    H232235   0.217   2.717   4.313  1.6693  0.2580 -0.1137
 3582TIP3   OH232236   6.581   5.757  17.052  0.2875  0.1895 -1.1437
 3582TIP3    H132237   6.537   5.838  17.077 -0.7089 -0.1577 -1.6872
 3582TIP3    H232238   6.545   5.691  17.111  0.3922 -0.0153 -1.3083
 3583TIP3   OH232239   0.866   3.358  14.288 -0.5091 -0.0539 -0.1530
 3583TIP3    H132240   0.806   3.366  14.213  0.9552  1.1238 -1.2442
 3583TIP3    H232241   0.855   3.440  14.336 -1.3343 -0.7439  0.9132
 3584TIP3   OH232242   1.341   1.373  13.393 -0.4074  0.2473  0.5804
 3584TIP3    H132243   1.338   1.465  13.421 -0.7671  0.2287  0.6039
 3584TIP3    H232244   1.293   1.373  13.310  0.8924  0.3595 -0.1960
 3585TIP3   OH232245   0.871   5.075   6.160 -0.2841  0.0685  0.1821
 3585TIP3    H132246   0.869   5.020   6.238  2.2227  0.4170  0.5755
 3585TIP3    H232247   0.938   5.140   6.178 -2.4313  2.6879 -0.6931
 3586TIP3   OH232248   0.015   0.845   3.851 -0.3712 -0.2772  0.2285
 3586TIP3    H132249  -0.002   0.752   3.866 -0.5726 -0.5737 -1.6100
 3586TIP3    H232250   0.085   0.847   3.786 -1.2365  0.8167 -0.7271
 3587TIP3   OH232251   6.088   4.764   2.582 -0.0608 -0.2851 -0.1701
 3587TIP3    H132252   6.167   4.774   2.635  1.3665 -2.2699 -1.8199
 3587TIP3    H232253   6.065   4.672   2.590 -1.8678  0.1156 -0.2602
 3588TIP3   OH232254   3.489   3.666   0.574 -0.4345  0.0589 -0.5240
 3588TIP3    H132255   3.394   3.673   0.578 -0.3123  1.4680  1.5379
 3588TIP3    H232256   3.521   3.743   0.622  1.6381 -3.2779  4.2388
 3589TIP3   OH232257   4.742   4.472  14.626 -0.6026  0.6828  0.0613
 3589TIP3    H132258   4.744   4.379  14.650 -1.4574  0.9514  1.3228
 3589TIP3    H232259   4.666   4.480  14.568 -0.5995  0.6122  0.0471
 3590TIP3   OH232260   4.225   0.550  12.559 -0.0187  0.1524 -0.2808
 3590TIP3    H132261   4.149   0.495  12.538 -0.8781  1.6797 -1.3341
 3590TIP3    H232262   4.198   0.599  12.637  0.4760 -0.3779  0.2330
 3591TIP3   OH232263   5.681   4.166   4.820 -0.1092  0.0852  0.1598
 3591TIP3    H132264   5.603   4.180   4.874 -0.2781  0.5152 -0.1890
 3591TIP3    H232265   5.662   4.088   4.769 -0.9544  1.0390 -1.0423
 3592TIP3   OH232266   3.996   2.010  16.105  0.1172 -0.1690  0.1108
 3592TIP3    H132267   3.947   1.928  16.113  0.1980 -0.3100 -0.7460
 3592TIP3    H232268   4.013   2.018  16.011  0.4619  0.6244  0.2388
 3593TIP3   OH232269   2.074   6.426   3.891 -0.0749 -0.2809 -0.3472
 3593TIP3    H132270   2.065   6.411   3.797 -1.0302 -2.6938  0.0536
 3593TIP3    H232271   2.064   6.339   3.931  2.0700  0.3556  1.8970
 3594TIP3   OH232272   5.768   6.370   3.086 -0.2872 -0.8740  0.0599
 3594TIP3    H132273   5.825   6.443   3.066  0.6973 -2.3035 -3.0263
 3594TIP3    H232274   5.680   6.407   3.088  0.0938  0.3290 -2.3463
 3595TIP3   OH232275   1.782   3.525  13.470 -0.5854 -0.0885 -0.4836
 3595TIP3    H132276   1.686   3.520  13.472 -0.6260  0.8181  0.2266
 3595TIP3    H232277   1.801   3.615  13.445  0.1002 -0.5588 -1.7512
 3596TIP3   OH232278   2.572   5.893   6.164  0.3363 -0.2841 -0.1007
 3596TIP3    H132279   2.592   5.897   6.070  1.0291 -0.8141  0.0207
 3596TIP3    H232280   2.642   5.841   6.202 -0.1112 -0.3411  0.6726
 3597TIP3   OH232281   6.493   0.026   6.618 -0.0158 -0.8357 -0.4757
 3597TIP3    H132282   6.575   0.053   6.576  0.3833  0.4529  1.0448
 3597TIP3    H232283   6.435   0.005   6.545  0.8666  0.6401 -1.6724
 3598TIP3   OH232284   3.710   2.196  15.816  0.9917 -0.0060 -0.1471
 3598TIP3    H132285   3.740   2.158  15.899  0.0586 -1.5454 -0.4792
 3598TIP3    H232286   3.639   2.138  15.787 -0.5449  2.0317 -0.6852
 3599TIP3   OH232287   4.453   5.503   3.238 -0.4174 -0.5024 -0.2843
 3599TIP3    H132288   4.423   5.553   3.162 -0.5945  2.2241  1.4605
 3599TIP3    H232289   4.534   5.546   3.265 -1.5479  0.1129  2.4073
 3600TIP3   OH232290   4.093   5.584  11.324 -0.1811  0.0808  0.5398
 3600TIP3    H132291   4.111   5.630  11.242 -0.8225  0.9822  0.8955
 3600TIP3    H232292   4.110   5.648  11.392 -0.5715 -0.3731  1.0735
 3601TIP3   OH232293   2.590   4.393  11.809  0.4052 -0.3874  0.1622
 3601TIP3    H132294   2.553   4.313  11.846  1.3080 -0.2854  1.3515
 3601TIP3    H232295   2.653   4.423  11.875  0.3462  1.1085 -0.4294
 3602TIP3   OH232296   3.123   3.303  11.950 -0.9190  0.3974 -0.2869
 3602TIP3    H132297   3.042   3.327  11.995  0.0150  0.2175  1.5687
 3602TIP3    H232298   3.191   3.357  11.992  0.1645 -0.6157 -0.6873
 3603TIP3   OH232299   3.234   1.047  13.164 -0.0987 -0.4982 -0.2950
 3603TIP3    H132300   3.193   0.996  13.094 -0.8532 -0.4031  0.0668
 3603TIP3    H232301   3.180   1.029  13.241 -0.2173  0.6366 -0.0961
 3604TIP3   OH232302   3.864   6.401  13.927 -0.1336 -0.0659 -0.3155
 3604TIP3    H132303   3.809   6.467  13.884 -0.7159 -0.2746  0.0938
 3604TIP3    H232304   3.931   6.451  13.973 -0.3517  0.2221 -0.3075
 3605TIP3   OH232305   3.737   2.942   1.778 -1.1656  0.3888  0.0327
 3605TIP3    H132306   3.699   3.011   1.723  1.0425 -0.4406 -2.7669
 3605TIP3    H232307   3.661   2.897   1.816 -3.0637 -0.3242 -4.0932
 3606TIP3   OH232308   5.500   3.873  10.772  0.1588  0.7462 -0.3625
 3606TIP3    H132309   5.576   3.817  10.786  0.9315  2.2229  1.9784
 3606TIP3    H232310   5.430   3.813  10.747  1.1149 -1.2156  1.3028
 3607TIP3   OH232311   6.455   2.375  16.722  0.4704 -0.3765 -0.4134
 3607TIP3    H132312   6.510   2.340  16.652  0.4860 -2.3197  0.4775
 3607TIP3    H232313   6.505   2.356  16.802 -0.4736 -0.1017  0.2544
 3608TIP3   OH232314   1.012   5.991  17.032  0.2277 -0.4589 -0.5823
 3608TIP3    H132315   1.002   5.896  17.043  2.2169 -0.7093 -0.7014
 3608TIP3    H232316   0.964   6.010  16.951 -1.0682 -1.1713 -0.0162
 3609TIP3   OH232317   0.205   5.582  14.067  0.2964 -0.2706 -0.0352
 3609TIP3    H132318   0.119   5.562  14.030  1.4021 -0.4513 -2.8180
 3609TIP3    H232319   0.264   5.520  14.023  2.3814  2.3983 -1.3050
 3610TIP3   OH232320   2.403   4.819  13.326  0.4400 -0.6690 -0.6734
 3610TIP3    H132321   2.468   4.772  13.378 -1.1328 -0.3723  1.7716
 3610TIP3    H232322   2.376   4.892  13.383  0.0444  0.9091 -2.7809
 3611TIP3   OH232323   2.704   1.522   0.919 -0.5726  0.5036 -0.2551
 3611TIP3    H132324   2.656   1.470   0.984  0.9420 -0.1069  0.4190
 3611TIP3    H232325   2.711   1.609   0.958 -1.0889  0.5841 -0.3391
 3612TIP3   OH232326   6.414   2.167  13.460  0.0353 -0.6890  0.0361
 3612TIP3    H132327   6.473   2.236  13.491 -1.0029 -0.7555  2.3238
 3612TIP3    H232328   6.329   2.190  13.495 -0.5235 -2.6573  0.0867
 3613TIP3   OH232329   6.221   1.710  12.555 -0.4197  0.4863 -0.3537
 3613TIP3    H132330   6.184   1.794  12.583  0.3387  0.6961  0.0518
 3613TIP3    H232331   6.222   1.657  12.634 -2.5355 -0.5560 -0.9553
 3614TIP3   OH232332   3.230   4.855  13.984 -0.4994 -0.5575 -0.2315
 3614TIP3    H132333   3.194   4.935  13.946 -1.4679  0.9436  3.3531
 3614TIP3    H232334   3.153   4.804  14.010 -0.0238 -0.4829  1.4836
 3615TIP3   OH232335   6.113   6.669   0.554  0.3422  0.7753  1.0431
 3615TIP3    H132336   6.119   6.691   0.461 -0.0582 -0.4234  0.7154
 3615TIP3    H232337   6.065   6.742   0.593 -0.9841  0.5077 -0.0078
 3616TIP3   OH232338   2.838   1.998  16.593  0.8164  0.6120  0.3509
 3616TIP3    H132339   2.923   1.972  16.629  1.2172  0.8073 -0.4350
 3616TIP3    H232340   2.794   2.044  16.665  1.3808  0.5180  0.7579
 3617TIP3   OH232341   1.029   0.135   1.358  0.2841 -0.2424 -0.0132
 3617TIP3    H132342   1.063   0.214   1.401  0.7593 -0.6018  0.2677
 3617TIP3    H232343   0.987   0.085   1.428 -1.0264  0.2884 -0.3858
 3618TIP3   OH232344   4.107   4.693  12.090  0.4266 -0.0921  0.0894
 3618TIP3    H132345   4.146   4.647  12.016 -2.0528 -5.1217  1.4507
 3618TIP3    H232346   4.022   4.723  12.057  0.1276 -0.6281  0.3562
 3619TIP3   OH232347   6.377   5.224  15.559 -0.2890 -0.2555 -0.4889
 3619TIP3    H132348   6.298   5.171  15.560 -0.7012  0.3541 -0.6019
 3619TIP3    H232349   6.447   5.163  15.534 -0.4771 -1.1159  0.9455
 3620TIP3   OH232350   6.096   4.686  15.671 -0.5505 -0.1839  0.5473
 3620TIP3    H132351   6.180   4.666  15.629  0.0181  2.2033  0.4255
 3620TIP3    H232352   6.037   4.708  15.599 -0.4010  1.0976  0.8051
 3621TIP3   OH232353   6.634   6.740  14.004 -0.6453  0.5034 -0.4713
 3621TIP3    H132354   6.591   6.801  14.064  2.2049  1.1736  1.0280
 3621TIP3    H232355   6.594   6.655  14.025 -0.5795  0.9273  1.5874
 3622TIP3   OH232356   5.943   0.047  13.231 -0.0171  0.1773  0.6796
 3622TIP3    H132357   5.904   0.035  13.318  1.6197 -0.1514  1.4053
 3622TIP3    H232358   6.027   0.089  13.248 -0.1259  1.0910 -0.8539
 3623TIP3   OH232359   1.617   3.060   3.158  0.5719 -0.3178  0.4936
 3623TIP3    H132360   1.635   2.987   3.099  0.6595  0.3899 -0.3787
 3623TIP3    H232361   1.695   3.115   3.153 -0.2533  0.8470 -0.4252
 3624TIP3   OH232362   0.914   1.376   0.877 -0.0599 -0.5657 -0.4652
 3624TIP3    H132363   0.945   1.355   0.964  0.5837 -0.7390 -0.7348
 3624TIP3    H232364   0.818   1.375   0.885 -0.0570 -2.4454 -0.1989
 3625TIP3   OH232365   4.831   1.887   2.550  0.3749  0.1128 -0.0503
 3625TIP3    H132366   4.872   1.891   2.463  0.6001 -0.9329  0.0042
 3625TIP3    H232367   4.781   1.969   2.555  2.3481  1.3952 -0.1450
 3626TIP3   OH232368   4.535   1.836  16.350  0.0745 -0.6935 -0.0676
 3626TIP3    H132369   4.462   1.776  16.362 -0.2312 -0.5253 -0.9871
 3626TIP3    H232370   4.524   1.902  16.418 -0.6344 -0.6723 -0.1988
 3627TIP3   OH232371   1.446   2.991  15.195 -0.2753  0.0595 -0.0233
 3627TIP3    H132372   1.449   3.046  15.117 -0.0559  0.9048  0.5621
 3627TIP3    H232373   1.361   3.012  15.235 -0.6329 -0.7830 -0.3159
 3628TIP3   OH232374   3.468   5.769   2.313 -0.2485 -0.8205  0.2028
 3628TIP3    H132375   3.482   5.745   2.405 -0.1715 -1.9308 -0.0852
 3628TIP3    H232376   3.448   5.863   2.315  1.4689 -0.4352  1.1892
 3629TIP3   OH232377   3.713   5.551  16.625  0.3893 -0.4516 -0.0900
 3629TIP3    H132378   3.794   5.525  16.581  0.0729 -0.2611 -0.7942
 3629TIP3    H232379   3.657   5.583  16.555 -0.4293 -0.8976  0.3499
 3630TIP3   OH232380   0.075   1.631   3.887 -0.4151  0.4231 -0.2982
 3630TIP3    H132381   0.170   1.629   3.878 -0.4564 -1.1523 -0.7155
 3630TIP3    H232382   0.045   1.552   3.842 -1.5403 -1.7170  3.7061
 3631TIP3   OH232383   2.658   3.853   0.546 -0.3472 -0.0028 -0.2764
 3631TIP3    H132384   2.641   3.832   0.454  0.9751 -1.4399 -0.2458
 3631TIP3    H232385   2.735   3.910   0.544 -1.5183  1.6351 -0.1337
 3632TIP3   OH232386   2.894   5.435  13.758  0.4536 -0.1727  0.3270
 3632TIP3    H132387   2.963   5.422  13.823  1.8426  0.0903 -1.0468
 3632TIP3    H232388   2.938   5.426  13.673 -0.9555  1.1586 -0.5998
 3633TIP3   OH232389   0.767   5.911  15.211 -0.5930 -0.7836 -0.6785
 3633TIP3    H132390   0.690   5.910  15.268 -1.2173  0.1201 -1.4930
 3633TIP3    H232391   0.742   5.857  15.136 -0.1830 -1.0349 -0.6370
 3634TIP3   OH232392   4.772   3.006  12.411  0.4125  0.1877  0.1778
 3634TIP3    H132393   4.788   3.047  12.496  0.8374 -1.0944  0.7374
 3634TIP3    H232394   4.680   3.023  12.393  0.6452  1.6500  0.2267
 3635TIP3   OH232395   5.239   2.201   0.425  0.5657 -0.6958 -0.2398
 3635TIP3    H132396   5.246   2.205   0.330 -0.0741 -0.4268 -0.2834
 3635TIP3    H232397   5.214   2.110   0.444  2.9946 -1.4168 -0.1406
 3636TIP3   OH232398   4.560   5.262  15.884 -0.3552 -0.1009  0.2489
 3636TIP3    H132399   4.556   5.358  15.888  0.2773 -0.0752  0.3872
 3636TIP3    H232400   4.469   5.234  15.890 -0.6942  0.5398 -1.2923
 3637TIP3   OH232401   1.006   6.863  13.580  0.4020  0.7368 -0.1443
 3637TIP3    H132402   1.087   6.813  13.588  0.0004  0.0447 -0.3069
 3637TIP3    H232403   0.983   6.888  13.669  0.7704  0.8884 -0.0951
 3638TIP3   OH232404   2.040   2.526  14.398 -0.0545 -0.2048 -0.5243
 3638TIP3    H132405   1.954   2.567  14.406 -0.3454 -0.7116 -0.9473
 3638TIP3    H232406   2.050   2.508  14.305 -0.0654 -1.3255 -0.3271
 3639TIP3   OH232407   2.600   5.652  13.457 -0.0528  0.0143 -0.0189
 3639TIP3    H132408   2.665   5.674  13.524 -0.2062 -1.3228  0.5937
 3639TIP3    H232409   2.544   5.729  13.453  1.7192  1.3304 -0.7858
 3640TIP3   OH232410   3.500   1.061   0.030 -0.0997  0.4841  0.7005
 3640TIP3    H132411   3.434   0.991   0.035  0.4481  0.0110  1.5271
 3640TIP3    H232412   3.582   1.015   0.013  0.4543  0.7897  2.3615
 3641TIP3   OH232413   4.752   1.391   1.155  0.4914 -0.3502  0.4261
 3641TIP3    H132414   4.803   1.415   1.078  0.9709 -2.8368 -0.1088
 3641TIP3    H232415   4.670   1.439   1.146  0.8776  0.0364 -1.2073
 3642TIP3   OH232416   1.738   4.117  14.901 -0.4334  0.1226  0.0725
 3642TIP3    H132417   1.800   4.092  14.969  0.6085 -0.9474 -1.2268
 3642TIP3    H232418   1.775   4.083  14.820 -1.6435  1.3402 -1.0590
 3643TIP3   OH232419   6.683   4.642  16.241  0.1370 -0.6562 -0.5124
 3643TIP3    H132420   6.711   4.570  16.298 -2.7004  0.0232  1.9623
 3643TIP3    H232421   6.708   4.721  16.288  1.6054  0.0706 -2.3622
 3644TIP3   OH232422   2.334   4.263  12.400  0.6787  0.5764  0.2376
 3644TIP3    H132423   2.246   4.254  12.436  0.8948  0.6622  0.8026
 3644TIP3    H232424   2.358   4.354  12.417  0.9116  0.5298  0.1667
 3645TIP3   OH232425   0.284   6.686  15.610  0.0264  0.0474  0.0992
 3645TIP3    H132426   0.250   6.599  15.588 -3.5955  1.8872 -2.5887
 3645TIP3    H232427   0.355   6.701  15.547  0.4333 -0.7761  0.3472
 3646TIP3   OH232428   4.028   5.731  13.704  0.0880  0.9808 -0.6387
 3646TIP3    H132429   4.110   5.734  13.753 -0.3207 -2.2464  0.4544
 3646TIP3    H232430   3.962   5.708  13.770 -1.7041  3.1053 -1.5532
 3647TIP3   OH232431   6.447   0.531   0.687  0.0009 -0.4543 -0.2146
 3647TIP3    H132432   6.489   0.613   0.713  0.3242 -0.5329 -0.4889
 3647TIP3    H232433   6.502   0.497   0.616  0.1754 -1.1779  0.2569
 3648TIP3   OH232434   6.543   4.580   0.457 -0.0394  0.4520  0.1379
 3648TIP3    H132435   6.515   4.532   0.379 -1.1038  1.0703  0.1301
 3648TIP3    H232436   6.541   4.515   0.527  1.3285 -0.2132 -0.4106
 3649TIP3   OH232437   1.369   2.839  11.748  0.2385 -0.3957  0.2568
 3649TIP3    H132438   1.382   2.869  11.659  0.9252  0.2351  0.5558
 3649TIP3    H232439   1.367   2.919  11.801 -3.7783 -0.4327  0.4734
 3650TIP3   OH232440   2.013   5.510  15.668  0.0942  0.3727 -0.2233
 3650TIP3    H132441   1.996   5.527  15.761 -0.9199 -2.0366  0.0991
 3650TIP3    H232442   2.070   5.433  15.668 -2.2349 -1.4873 -1.5626
 3651TIP3   OH232443   2.088   1.963   1.430  0.0350  0.7884 -0.1069
 3651TIP3    H132444   2.091   1.939   1.337  2.3277  1.0525 -0.1618
 3651TIP3    H232445   2.126   1.887   1.475 -1.3226  0.5450  0.6669
 3652TIP3   OH232446   2.735   3.491   0.168 -0.0174  0.4149  0.1064
 3652TIP3    H132447   2.814   3.446   0.139  0.4308  0.1224  1.6937
 3652TIP3    H232448   2.721   3.558   0.101  1.6746  0.5919 -0.1353
 3653TIP3   OH232449   3.173   6.209   4.892 -0.4764  0.0771  0.2420
 3653TIP3    H132450   3.135   6.276   4.950 -0.6484 -0.5850  0.9191
 3653TIP3    H232451   3.184   6.253   4.808 -1.0323  0.8185  0.5456
 3654TIP3   OH232452   5.162   6.363   2.459  0.2948 -0.2644 -0.4998
 3654TIP3    H132453   5.112   6.325   2.387  2.3686 -0.5721 -1.8500
 3654TIP3    H232454   5.236   6.304   2.472  0.4847  0.2922  1.2717
 3655TIP3   OH232455   2.887   2.684  11.490 -0.3195 -0.4016  0.0943
 3655TIP3    H132456   2.958   2.747  11.486  0.4418 -1.2836 -0.7042
 3655TIP3    H232457   2.930   2.599  11.498 -1.2336 -1.0336 -1.3134
 3656TIP3   OH232458   3.831   3.535   5.431 -0.2395  0.4549 -0.0626
 3656TIP3    H132459   3.863   3.491   5.352 -2.0036 -0.6493 -0.2407
 3656TIP3    H232460   3.898   3.517   5.497 -0.0338 -0.9916 -0.6186
 3657TIP3   OH232461   6.623   3.546  11.764 -0.2875  0.2777 -0.5789
 3657TIP3    H132462   6.598   3.473  11.820 -0.7316  0.6565 -0.2728
 3657TIP3    H232463   6.625   3.509  11.676 -0.3629 -0.1370 -0.4090
 3658TIP3   OH232464   3.402   6.614  14.477  0.2096  0.0068  0.0837
 3658TIP3    H132465   3.441   6.538  14.433  0.6885 -1.0413  2.1826
 3658TIP3    H232466   3.435   6.609  14.567 -0.5188  2.1838  0.5220
 3659TIP3   OH232467   6.013   3.932   1.687 -0.9627 -0.4950  0.2606
 3659TIP3    H132468   6.060   3.872   1.745 -1.3909 -1.4829 -0.3952
 3659TIP3    H232469   5.950   3.976   1.744 -1.8992 -1.9993  0.4323
 3660TIP3   OH232470   4.155   4.765   1.732  0.4826 -0.4877 -0.5859
 3660TIP3    H132471   4.063   4.790   1.737  0.7416  0.4741 -0.5349
 3660TIP3    H232472   4.156   4.673   1.758 -0.3632 -0.2856  0.1912
 3661TIP3   OH232473   3.830   2.574  15.938 -0.1337  0.0248  0.3497
 3661TIP3    H132474   3.857   2.660  15.969  0.4034  0.4600 -1.2311
 3661TIP3    H232475   3.793   2.531  16.015 -1.6313  2.1411  0.8932
 3662TIP3   OH232476   4.409   3.812  16.770  0.6422 -0.1374 -0.2906
 3662TIP3    H132477   4.339   3.790  16.831 -0.9039 -0.3779 -2.0483
 3662TIP3    H232478   4.366   3.864  16.703  2.7280  2.0326 -0.0691
 3663TIP3   OH232479   1.244   2.571  15.224  0.1509 -0.2293 -0.2718
 3663TIP3    H132480   1.184   2.539  15.157  0.7690 -1.1658 -0.3945
 3663TIP3    H232481   1.277   2.654  15.189  0.6944 -0.8436 -1.2884
 3664TIP3   OH232482   1.431   0.410   0.388  0.1254 -0.0014 -0.1721
 3664TIP3    H132483   1.459   0.335   0.441 -0.6241 -0.2635 -0.1335
 3664TIP3    H232484   1.375   0.371   0.320  0.2587  0.4509 -0.5484
 3665TIP3   OH232485   2.442   4.631  14.445  0.5579 -0.0407 -0.0067
 3665TIP3    H132486   2.506   4.572  14.485  0.3947  0.9262  1.7581
 3665TIP3    H232487   2.477   4.719  14.460 -0.3854  0.4300 -0.4577
 3666TIP3   OH232488   2.626   5.703  14.024 -0.0766 -0.1940  0.0851
 3666TIP3    H132489   2.600   5.734  14.111  1.8493  0.2961  0.5188
 3666TIP3    H232490   2.619   5.608  14.029  0.9364 -0.2245  1.0904
 3667TIP3   OH232491   3.328   2.152   1.802  0.1584  0.1920  0.0212
 3667TIP3    H132492   3.266   2.185   1.737  0.1506 -0.7938 -0.4851
 3667TIP3    H232493   3.305   2.060   1.812  2.8858 -0.8057 -1.8170
 3668TIP3   OH232494   2.459   6.061  12.758 -0.5971  0.3691  0.0422
 3668TIP3    H132495   2.536   6.032  12.707 -1.1896 -1.3026  0.0407
 3668TIP3    H232496   2.399   6.096  12.692  0.0234  1.4464  0.0155
 3669TIP3   OH232497   4.382   6.162  12.388 -0.2683  0.3493 -0.6169
 3669TIP3    H132498   4.294   6.199  12.383 -0.7767 -0.8188 -0.6138
 3669TIP3    H232499   4.419   6.176  12.301 -0.6988  0.2516 -0.8145
 3670TIP3   OH232500   6.043   0.682   0.296  0.3267  0.8634 -0.4234
 3670TIP3    H132501   6.123   0.633   0.316 -0.1830  0.5403  0.9372
 3670TIP3    H232502   6.074   0.762   0.254  1.4562  1.1831  0.9306
 3671TIP3   OH232503   5.608   3.324  15.445  0.0084 -0.0361 -0.6633
 3671TIP3    H132504   5.595   3.344  15.538 -0.1565 -1.0735 -0.4492
 3671TIP3    H232505   5.531   3.362  15.402  0.1437  0.5541 -0.4054
 3672TIP3   OH232506   2.148   3.895   1.398 -0.3255  0.0148  0.8600
 3672TIP3    H132507   2.129   3.845   1.478 -0.7784 -0.2574  0.5913
 3672TIP3    H232508   2.093   3.853   1.331  0.6587 -0.2865  0.2210
 3673TIP3   OH232509   0.907   4.127  14.046  0.0794 -0.2448  0.6238
 3673TIP3    H132510   0.964   4.050  14.053 -3.2172 -2.7856  2.6777
 3673TIP3    H232511   0.852   4.109  13.969  1.5504  1.9203 -1.0360
 3674TIP3   OH232512   2.959   5.916  15.068 -0.1332  0.4610  0.1755
 3674TIP3    H132513   2.985   5.880  15.153  0.0312  0.0960 -0.0244
 3674TIP3    H232514   2.981   6.009  15.073 -2.7049  1.0677  1.5479
 3675TIP3   OH232515   6.811   2.098  14.534 -0.3781 -0.0456  0.5715
 3675TIP3    H132516   6.778   2.019  14.491  1.2412 -0.1127 -0.6523
 3675TIP3    H232517   6.792   2.169  14.472  1.6605 -0.0880 -0.1759
 3676TIP3   OH232518   0.468   3.920   4.380  0.1798  0.4189 -0.0916
 3676TIP3    H132519   0.493   3.828   4.393 -0.2274  0.4769  1.1564
 3676TIP3    H232520   0.419   3.943   4.458  1.4945  2.1275  0.2780
 3677TIP3   OH232521   3.652   1.568  15.880 -0.3792  0.2512 -0.1527
 3677TIP3    H132522   3.667   1.473  15.877  0.6927  0.4286 -0.7894
 3677TIP3    H232523   3.709   1.599  15.950 -3.0295  0.0815  2.3117
 3678TIP3   OH232524   2.645   3.490   5.805 -0.0139  0.2372 -0.2386
 3678TIP3    H132525   2.705   3.499   5.731  0.3050  1.4676  0.1392
 3678TIP3    H232526   2.607   3.403   5.795  3.2599 -1.4343  0.5936
 3679TIP3   OH232527   3.495   6.419  11.509 -0.9301 -0.1281  0.6970
 3679TIP3    H132528   3.554   6.493  11.520 -0.8383  0.4150 -2.5405
 3679TIP3    H232529   3.514   6.361  11.583  0.0601  2.3226  2.4690
 3680TIP3   OH232530   3.386   2.454  15.914  0.5894  0.5742  1.2867
 3680TIP3    H132531   3.480   2.443  15.899  1.2853  2.8004  3.3497
 3680TIP3    H232532   3.358   2.515  15.845  1.0839  1.3388  1.7500
 3681TIP3   OH232533   4.448   3.852  14.890 -0.0184  0.1782 -0.0652
 3681TIP3    H132534   4.520   3.804  14.847 -0.4876 -0.6950  0.1039
 3681TIP3    H232535   4.419   3.915  14.825 -0.5083 -0.9180 -0.9471
 3682TIP3   OH232536   1.660   0.763  13.682 -0.5909  0.2263  0.1528
 3682TIP3    H132537   1.568   0.760  13.654 -0.2965 -2.7079 -0.8222
 3682TIP3    H232538   1.657   0.754  13.777 -1.3099 -0.3168  0.0837
 3683TIP3   OH232539   0.329   2.973   3.398  0.1662  0.4075  0.1622
 3683TIP3    H132540   0.392   3.045   3.400  0.9817 -0.2939  1.7036
 3683TIP3    H232541   0.350   2.921   3.476 -0.2719 -1.5926 -0.9889
 3684TIP3   OH232542   4.615   2.138  12.332  0.3790  0.3972 -0.6186
 3684TIP3    H132543   4.574   2.084  12.264 -1.3463  0.8938 -0.0217
 3684TIP3    H232544   4.702   2.157  12.297  0.1373 -0.7297 -1.9400
 3685TIP3   OH232545   6.027   0.735   3.033 -0.2984  0.5994  0.4010
 3685TIP3    H132546   6.072   0.651   3.027 -0.5059  0.5634 -0.8660
 3685TIP3    H232547   6.087   0.797   2.990 -0.6124  0.8953  0.3901
 3686TIP3   OH232548   4.249   1.652  13.875 -0.2480  0.8674  0.6013
 3686TIP3    H132549   4.158   1.623  13.878  0.5128 -1.8383 -0.1358
 3686TIP3    H232550   4.247   1.729  13.817 -1.8688 -0.0798 -0.7013
 3687TIP3   OH232551   1.411   3.371   2.974 -0.3377 -0.3238  0.4610
 3687TIP3    H132552   1.479   3.372   2.908 -1.0613  1.2764 -0.3207
 3687TIP3    H232553   1.402   3.279   2.999  1.8357 -0.6085  0.3418
 3688TIP3   OH232554   2.503   1.428   0.718 -0.2088  0.2148 -0.1251
 3688TIP3    H132555   2.484   1.449   0.627  0.2533  0.4108 -0.1775
 3688TIP3    H232556   2.554   1.502   0.750 -1.4278  0.7471  0.6660
 3689TIP3   OH232557   6.565   1.745  11.297  0.0803  0.2676  0.5134
 3689TIP3    H132558   6.539   1.752  11.205  0.2812 -1.0152  0.3499
 3689TIP3    H232559   6.660   1.756  11.297 -0.1288  2.5741  0.8536
 3690TIP3   OH232560   3.034   1.721   0.317  0.0426  0.1715 -0.0970
 3690TIP3    H132561   3.042   1.680   0.231 -0.6879  0.1698 -0.1722
 3690TIP3    H232562   3.124   1.723   0.351  0.0251 -2.2380  0.2544
 3691TIP3   OH232563   3.549   0.026  12.341 -0.5936 -0.4727 -0.7739
 3691TIP3    H132564   3.456   0.026  12.364 -0.5614  0.3460 -0.5962
 3691TIP3    H232565   3.572   0.119  12.335  0.5956 -0.6267  0.7102
 3692TIP3   OH232566   5.832   5.731   2.707  0.1835  0.1489  0.0406
 3692TIP3    H132567   5.847   5.825   2.715  0.4373  0.0602  0.6079
 3692TIP3    H232568   5.916   5.691   2.727  0.0919 -0.1978 -0.2590
 3693TIP3   OH232569   2.823   3.240   5.419  0.4431 -0.4702  0.1040
 3693TIP3    H132570   2.848   3.167   5.476  1.1001 -0.2380  0.1255
 3693TIP3    H232571   2.822   3.316   5.477 -0.3824 -0.4817  0.1106
 3694TIP3   OH232572   4.502   5.305  11.463 -0.3501  0.1783  0.2264
 3694TIP3    H132573   4.431   5.263  11.512  0.0191  1.8239  2.3040
 3694TIP3    H232574   4.460   5.377  11.416 -0.3699 -0.1264 -0.2287
 3695TIP3   OH232575   2.111   5.449   4.905 -0.1065 -0.2042  0.2548
 3695TIP3    H132576   2.187   5.506   4.921 -0.6349  0.4494  0.4523
 3695TIP3    H232577   2.150   5.367   4.873  0.7821 -0.3275  1.5465
 3696TIP3   OH232578   3.065   0.843  13.021  0.2837 -0.1031  0.0234
 3696TIP3    H132579   3.049   0.799  12.938  0.0014 -0.6630  0.3656
 3696TIP3    H232580   3.076   0.772  13.084 -0.9319  0.2952  0.7277
 3697TIP3   OH232581   5.372   3.071   5.031  0.5220  0.7796  0.0192
 3697TIP3    H132582   5.285   3.078   5.070  1.1113  0.5578  1.4372
 3697TIP3    H232583   5.365   2.999   4.969 -0.4593  1.1691 -0.3375
 3698TIP3   OH232584   1.410   5.083   5.697  0.2111  0.2117  0.3405
 3698TIP3    H132585   1.436   5.094   5.788  0.7056  1.3923  0.0765
 3698TIP3    H232586   1.468   5.142   5.648 -0.7150  0.3572 -0.6225
 3699TIP3   OH232587   4.424   5.602   5.505 -0.1810 -0.6410 -0.3418
 3699TIP3    H132588   4.418   5.622   5.598  1.2279 -2.5486  0.2165
 3699TIP3    H232589   4.334   5.590   5.476 -0.6306 -0.0339  0.7643
 3700TIP3   OH232590   1.459   5.506   4.368  0.0750  0.3596 -0.3604
 3700TIP3    H132591   1.389   5.571   4.364 -0.1689  0.0720 -0.9303
 3700TIP3    H232592   1.415   5.422   4.353  0.5151  0.1577 -0.5393
 3701TIP3   OH232593   1.248   6.079   4.746 -0.0232  0.3698  0.0715
 3701TIP3    H132594   1.334   6.074   4.704 -0.8252 -0.8565 -1.5016
 3701TIP3    H232595   1.235   5.993   4.785 -0.0687  0.9214  1.3065
 3702TIP3   OH232596   3.932   6.330  10.213 -0.2906 -0.7184  0.1734
 3702TIP3    H132597   3.904   6.279  10.289 -1.8549 -0.1847  0.0060
 3702TIP3    H232598   3.850   6.357  10.171  0.5159  0.4339 -0.7358
 3703TIP3   OH232599   4.749   1.837  14.268  0.1822  0.3775 -0.0137
 3703TIP3    H132600   4.674   1.871  14.220  0.3628  0.6040 -0.1363
 3703TIP3    H232601   4.815   1.905  14.261  0.7092 -0.1850 -0.6364
 3704TIP3   OH232602   1.606   5.463  15.814 -0.0539 -0.4473 -0.1282
 3704TIP3    H132603   1.614   5.546  15.860 -0.5127 -0.8117  0.6412
 3704TIP3    H232604   1.567   5.486  15.730  0.5921  0.2090 -0.2542
 3705TIP3   OH232605   6.269   3.843  12.110  0.1992  0.0061 -0.1960
 3705TIP3    H132606   6.176   3.839  12.133  0.5037  0.6921  1.2691
 3705TIP3    H232607   6.274   3.913  12.045 -0.5031 -1.0884 -1.4818
 3706TIP3   OH232608   2.344   0.606   6.246  0.4983  0.6038  0.2325
 3706TIP3    H132609   2.294   0.559   6.313 -2.7147  0.0152 -2.3473
 3706TIP3    H232610   2.299   0.690   6.236  0.1485  0.2263 -1.9150
 3707TIP3   OH232611   0.374   0.776  11.776 -0.0613 -0.6616 -0.2684
 3707TIP3    H132612   0.400   0.831  11.702 -0.5498 -1.7196 -1.2597
 3707TIP3    H232613   0.430   0.699  11.769  1.1835  0.0105  1.5802
 3708TIP3   OH232614   6.401   5.385  13.984  0.3452  0.5598  0.2574
 3708TIP3    H132615   6.364   5.470  14.008  0.8742  0.5540  1.1376
 3708TIP3    H232616   6.341   5.351  13.918 -1.9721 -0.0145  2.4984
 3709TIP3   OH232617   6.559   6.784  11.363 -0.4141  0.1560 -0.6491
 3709TIP3    H132618   6.500   6.718  11.399  1.0266 -1.8907 -1.8096
 3709TIP3    H232619   6.505   6.833  11.300 -1.5441  0.2078  0.3346
 3710TIP3   OH232620   2.644   0.526  14.929  0.5267  0.7571 -0.0440
 3710TIP3    H132621   2.735   0.552  14.920  0.5785  1.2129  1.5143
 3710TIP3    H232622   2.647   0.444  14.979  0.0630  1.1238  0.6054
 3711TIP3   OH232623   4.581   3.155   0.638 -0.3969  0.2675 -0.0351
 3711TIP3    H132624   4.587   3.062   0.659  0.7210  0.0106 -1.3484
 3711TIP3    H232625   4.653   3.170   0.577 -1.0622  1.8136 -0.4791
 3712TIP3   OH232626   0.909   6.769   2.006 -0.3088 -0.2157  0.0508
 3712TIP3    H132627   0.967   6.820   2.062  0.5164 -0.8034 -0.2431
 3712TIP3    H232628   0.957   6.688   1.989 -1.3468 -0.8501  0.0412
 3713TIP3   OH232629   4.592   1.574   4.885  0.3794 -0.0329 -0.4664
 3713TIP3    H132630   4.503   1.538   4.878 -0.0850  0.9629 -0.0105
 3713TIP3    H232631   4.644   1.521   4.825 -0.9914  0.7620 -2.4873
 3714TIP3   OH232632   4.074   5.988  16.590 -0.1040  0.1027  0.4057
 3714TIP3    H132633   3.991   6.005  16.634 -1.1687  0.6372 -1.7013
 3714TIP3    H232634   4.087   5.894  16.598 -0.4101  0.1369  1.5395
 3715TIP3   OH232635   5.778   4.405   4.194 -0.6235  0.0846  0.0330
 3715TIP3    H132636   5.839   4.346   4.238  0.2952  1.9285  1.3558
 3715TIP3    H232637   5.797   4.394   4.101  2.7895  1.5497  0.3986
 3716TIP3   OH232638   1.571   0.823  15.317  0.1195 -0.6163  0.1976
 3716TIP3    H132639   1.606   0.820  15.228 -0.0104 -0.8959  0.1551
 3716TIP3    H232640   1.476   0.827  15.305  0.1003 -0.6773  0.3233
 3717TIP3   OH232641   2.059   2.866   1.690  0.9398 -0.6311 -0.2866
 3717TIP3    H132642   1.964   2.854   1.696  0.3626  1.7364 -2.6725
 3717TIP3    H232643   2.085   2.812   1.616  1.9653 -3.0458  1.6908
 3718TIP3   OH232644   6.463   5.867   1.624  0.2829  0.3358 -0.4446
 3718TIP3    H132645   6.433   5.955   1.648 -1.2326 -0.3271  0.2125
 3718TIP3    H232646   6.535   5.849   1.683 -0.2884  0.6161  0.3483
 3719TIP3   OH232647   6.215   4.937  15.090 -0.0904  0.1183  0.4763
 3719TIP3    H132648   6.247   5.028  15.091 -3.2148  1.3385  1.2868
 3719TIP3    H232649   6.124   4.944  15.120 -0.9566 -3.1144 -1.0457
 3720TIP3   OH232650   6.101   6.455  11.079  0.4108  0.4474  0.2398
 3720TIP3    H132651   6.141   6.514  11.015 -1.1270  0.8558 -0.3879
 3720TIP3    H232652   6.150   6.373  11.070  0.6916  0.7293 -0.9556
 3721TIP3   OH232653   1.655   0.784  11.739 -0.0890  0.1082 -0.2893
 3721TIP3    H132654   1.631   0.810  11.828  1.4266 -3.8229  1.5064
 3721TIP3    H232655   1.615   0.850  11.683 -1.9814  2.2307  3.2178
 3722TIP3   OH232656   0.181   0.767  13.220 -0.4722  0.3032 -0.1398
 3722TIP3    H132657   0.135   0.755  13.137 -0.7926  0.5223  0.0040
 3722TIP3    H232658   0.253   0.828  13.199  0.1136 -0.4845 -0.4909
 3723TIP3   OH232659   5.588   6.489   5.622 -0.0916  0.1432 -0.7859
 3723TIP3    H132660   5.556   6.421   5.563  1.0319 -0.1269 -1.1259
 3723TIP3    H232661   5.622   6.557   5.564  0.5506  0.1106 -0.4577
 3724TIP3   OH232662   5.071   3.588   6.683 -0.1589  0.5525  0.0278
 3724TIP3    H132663   5.087   3.504   6.640  1.7151  0.9633 -0.1571
 3724TIP3    H232664   5.009   3.633   6.625  0.3283  0.0580 -0.8991
 3725TIP3   OH232665   2.540   4.344   4.508 -0.0880 -0.3067  0.4618
 3725TIP3    H132666   2.584   4.361   4.592 -0.7090 -0.6193  0.8580
 3725TIP3    H232667   2.566   4.255   4.486  1.6154  0.4189 -0.6527
 3726TIP3   OH232668   3.819   5.327   4.435 -0.3941 -0.2309 -0.2555
 3726TIP3    H132669   3.739   5.323   4.487  0.3318 -1.0027  0.8357
 3726TIP3    H232670   3.872   5.395   4.477 -0.7185  0.7365 -1.3624
 3727TIP3   OH232671   4.402   4.148   4.905 -0.0925 -0.5783  0.1251
 3727TIP3    H132672   4.361   4.215   4.850 -0.7801  0.3871  1.7310
 3727TIP3    H232673   4.481   4.191   4.938  0.0404 -0.9497  0.2884
 3728TIP3   OH232674   1.891   3.558   1.938  0.3827  0.3692 -0.4153
 3728TIP3    H132675   1.859   3.646   1.916 -0.8041 -0.1710 -0.9874
 3728TIP3    H232676   1.895   3.557   2.033  1.2163  1.3073 -0.4272
 3729TIP3   OH232677   3.485   1.072   4.397 -0.1275  0.3229 -0.3318
 3729TIP3    H132678   3.407   1.122   4.421  0.8535  1.1092  1.4149
 3729TIP3    H232679   3.548   1.091   4.467  1.9106  0.3252 -2.0547
 3730TIP3   OH232680   1.981   4.029   5.663  0.1529  0.0777  0.1799
 3730TIP3    H132681   1.993   3.988   5.748  2.7351  0.3359  0.0136
 3730TIP3    H232682   2.066   4.023   5.620 -0.2850  2.4679 -1.2527
 3731TIP3   OH232683   0.169   0.765   5.113 -0.1518  0.2635  0.2624
 3731TIP3    H132684   0.217   0.689   5.146 -1.5277  0.3102  2.5533
 3731TIP3    H232685   0.109   0.730   5.048  0.2376 -0.3882  0.2501
 3732TIP3   OH232686   4.864   0.004   3.622  0.6239 -0.0934  0.2450
 3732TIP3    H132687   4.907   0.089   3.605 -0.8725  1.0321  1.7800
 3732TIP3    H232688   4.804   0.022   3.694 -1.0418 -2.0563 -0.5719
 3733TIP3   OH232689   6.826   6.246   4.876  0.2515 -0.4842  0.6060
 3733TIP3    H132690   6.734   6.220   4.885 -0.0174  0.4963  0.9046
 3733TIP3    H232691   6.866   6.219   4.958 -0.3774  1.3163  1.5841
 3734TIP3   OH232692   6.762   0.088   2.318 -0.0635  0.4889  0.1708
 3734TIP3    H132693   6.673   0.117   2.296  0.4148  1.7704 -0.1764
 3734TIP3    H232694   6.751   0.034   2.397 -1.2448 -0.1768 -0.4311
 3735TIP3   OH232695   2.445   0.897  16.599  0.4284  0.1401  0.5132
 3735TIP3    H132696   2.379   0.833  16.572 -0.2855  0.8706  0.4901
 3735TIP3    H232697   2.395   0.967  16.640  1.0242  1.4373 -0.8527
 3736TIP3   OH232698   1.325   3.330  15.241 -0.1358  0.0889 -0.1122
 3736TIP3    H132699   1.381   3.309  15.166 -1.1502 -0.3282 -0.7786
 3736TIP3    H232700   1.268   3.253  15.250  1.8817 -1.2549  2.9722
 3737TIP3   OH232701   4.589   4.698  14.410  0.8782 -0.7455  0.1224
 3737TIP3    H132702   4.562   4.606  14.411  1.1479 -0.9214  3.5548
 3737TIP3    H232703   4.514   4.744  14.447  1.6375  0.0989  0.6235
 3738TIP3   OH232704   3.945   5.326   1.233  0.0476  0.5268 -0.5705
 3738TIP3    H132705   4.004   5.300   1.304  0.3982  0.5085 -0.8667
 3738TIP3    H232706   3.998   5.317   1.154  0.1489  2.0219 -0.7009
 3739TIP3   OH232707   5.562   2.856   1.618  0.0772  0.6356  0.4504
 3739TIP3    H132708   5.572   2.950   1.638  0.6465  0.1263  2.9292
 3739TIP3    H232709   5.651   2.823   1.613 -0.1278  0.0272  0.7060
 3740TIP3   OH232710   0.442   2.473  15.123 -0.9754 -0.2416 -0.6421
 3740TIP3    H132711   0.413   2.537  15.058  0.8332  0.6921 -0.5973
 3740TIP3    H232712   0.364   2.454  15.174 -2.2764 -0.4564 -2.6240
 3741TIP3   OH232713   4.418   4.970   6.265 -0.2049  0.6076  0.0996
 3741TIP3    H132714   4.481   4.897   6.262 -0.8915 -0.0451  1.1414
 3741TIP3    H232715   4.340   4.932   6.304 -0.8887  1.6956 -0.1850
 3742TIP3   OH232716   5.448   1.570  13.602 -0.5068  0.3826  0.2737
 3742TIP3    H132717   5.538   1.538  13.594  0.1171  2.3387 -2.0395
 3742TIP3    H232718   5.394   1.491  13.605  1.1593 -0.8618 -0.7590
 3743TIP3   OH232719   3.323   5.429   1.640  0.5387  0.1261 -0.0631
 3743TIP3    H132720   3.273   5.500   1.682  0.8051  0.3698 -0.1578
 3743TIP3    H232721   3.260   5.357   1.633  0.8293 -0.4025  1.9785
 3744TIP3   OH232722   0.645   3.224   0.571  0.2794  0.4758 -0.3092
 3744TIP3    H132723   0.667   3.237   0.479 -1.6144  2.5371 -0.5671
 3744TIP3    H232724   0.685   3.140   0.594 -0.9358 -1.1872 -3.6107
 3745TIP3   OH232725   2.494   4.340   1.350 -0.7800  0.6119 -0.4239
 3745TIP3    H132726   2.441   4.419   1.361 -0.7370  0.4815  0.9292
 3745TIP3    H232727   2.430   4.272   1.329 -0.9946  0.7296 -0.1696
 3746TIP3   OH232728   6.292   4.550  15.820  0.2297 -0.5540  0.4344
 3746TIP3    H132729   6.327   4.546  15.909  0.8450  0.7636  0.2612
 3746TIP3    H232730   6.209   4.597  15.829 -0.0142 -0.9681  0.3905
 3747TIP3   OH232731   2.842   6.333  16.772  0.2610 -0.0057  0.2147
 3747TIP3    H132732   2.937   6.321  16.765  0.3040  0.9504 -1.7428
 3747TIP3    H232733   2.830   6.428  16.768 -0.8334 -0.1667 -1.4737
 3748TIP3   OH232734   0.523   0.051   4.842 -0.2405  0.1454  0.0942
 3748TIP3    H132735   0.568   0.014   4.765 -0.3196 -1.4930  0.7958
 3748TIP3    H232736   0.578   0.026   4.916 -1.6344 -0.8235  0.8457
 3749TIP3   OH232737   6.542   3.633  16.470 -0.5724 -0.0135  0.4901
 3749TIP3    H132738   6.486   3.628  16.393  0.0906 -1.7049  0.0822
 3749TIP3    H232739   6.618   3.683  16.441 -0.4604 -0.3920  0.1218
 3750TIP3   OH232740   2.584   0.968  10.690  0.1398 -0.0131 -0.2607
 3750TIP3    H132741   2.677   0.946  10.686 -0.3136 -1.9902 -1.3672
 3750TIP3    H232742   2.541   0.894  10.648 -1.8954  1.2293 -0.4548
 3751TIP3   OH232743   6.442   6.037   0.358 -0.4366 -0.1411  0.0680
 3751TIP3    H132744   6.526   6.084   0.369 -0.3151 -0.6872  1.7040
 3751TIP3    H232745   6.435   5.982   0.435 -2.0808 -0.5087 -0.3070
 3752TIP3   OH232746   0.521   2.309  13.952  0.2121  0.4675 -0.6863
 3752TIP3    H132747   0.610   2.333  13.977 -0.5848  2.6144  0.3710
 3752TIP3    H232748   0.485   2.265  14.029 -0.2763  1.5384 -0.2712
 3753TIP3   OH232749   6.425   2.950   0.576 -0.1281  0.5211  0.9409
 3753TIP3    H132750   6.512   2.915   0.556  0.0126  0.9213  0.8569
 3753TIP3    H232751   6.430   3.042   0.552  0.1763  1.1345  3.1115
 3754TIP3   OH232752   2.934   4.513  16.864 -0.5724  0.0526  0.4782
 3754TIP3    H132753   2.932   4.442  16.800 -1.5691  0.6750 -0.2208
 3754TIP3    H232754   2.857   4.498  16.919 -0.1012 -0.0925  1.1059
 3755TIP3   OH232755   2.844   4.779   5.520  0.0976 -0.0575 -0.2749
 3755TIP3    H132756   2.892   4.812   5.595  0.3566 -0.4575 -0.2591
 3755TIP3    H232757   2.860   4.843   5.450 -0.8454  0.7737  0.2409
 3756TIP3   OH232758   2.764   2.019  15.809 -0.4276  0.0101 -0.0211
 3756TIP3    H132759   2.734   2.060  15.890 -0.1352 -0.6401  0.4129
 3756TIP3    H232760   2.726   1.931  15.811  1.1100 -0.6689  0.3156
 3757TIP3   OH232761   2.941   0.105   5.682  0.2166 -0.7084 -0.4071
 3757TIP3    H132762   2.977   0.043   5.619  1.6825 -1.7678  1.3758
 3757TIP3    H232763   2.967   0.191   5.648  0.7774 -1.2380 -1.3593
 3758TIP3   OH232764   5.355   3.152   6.103  0.2794 -0.3449  0.1045
 3758TIP3    H132765   5.426   3.123   6.161  1.2487 -0.7640 -1.2343
 3758TIP3    H232766   5.280   3.098   6.126  0.3577  0.1353  1.5814
 3759TIP3   OH232767   4.807   6.080   1.365  0.2507 -0.2300  0.5904
 3759TIP3    H132768   4.766   6.145   1.309  1.0902 -0.2717 -0.1037
 3759TIP3    H232769   4.739   6.015   1.381 -0.5376  0.7037  1.1283
 3760TIP3   OH232770   0.540   3.605  11.878 -0.5538 -0.5854 -0.0795
 3760TIP3    H132771   0.632   3.627  11.862 -0.8179 -0.9904 -2.4755
 3760TIP3    H232772   0.495   3.689  11.880 -0.5529 -0.4895 -2.1797
 3761TIP3   OH232773   5.573   5.057  15.176 -0.0325  0.6335  0.2799
 3761TIP3    H132774   5.631   5.128  15.207 -0.5584  2.1755 -2.0414
 3761TIP3    H232775   5.627   4.978  15.183  1.2941  1.5529  1.0279
 3762TIP3   OH232776   4.952   1.257   4.233 -0.0988  0.4719 -0.0330
 3762TIP3    H132777   4.982   1.270   4.143 -0.4601 -0.8518 -0.3700
 3762TIP3    H232778   5.028   1.224   4.280  0.4960  2.4713  0.5443
 3763TIP3   OH232779   1.847   2.869  16.032  1.0605  0.5917  0.1043
 3763TIP3    H132780   1.817   2.881  16.122  0.5551 -0.5679  0.0929
 3763TIP3    H232781   1.819   2.949  15.987 -1.0201  0.0589  0.3606
 3764TIP3   OH232782   3.005   2.143   4.431  0.2314  0.0008 -0.0441
 3764TIP3    H132783   3.043   2.230   4.437  1.2638 -0.4299 -0.2266
 3764TIP3    H232784   2.962   2.141   4.346 -2.0149  1.1744  0.9460
 3765TIP3   OH232785   5.970   4.927  13.003  0.6064  0.6752  0.1713
 3765TIP3    H132786   5.897   4.874  12.971  1.7912  0.0980 -1.7115
 3765TIP3    H232787   5.965   4.920  13.098 -0.1968 -1.5480  0.0147
 3766TIP3   OH232788   0.403   4.656  10.379 -0.2413 -0.2266  0.4825
 3766TIP3    H132789   0.361   4.741  10.374 -1.5998 -0.9206 -0.5428
 3766TIP3    H232790   0.363   4.613  10.455 -0.8810 -0.6090 -0.0593
 3767TIP3   OH232791   0.140   3.959  14.533  0.2962 -0.7670 -0.0195
 3767TIP3    H132792   0.081   3.920  14.597 -0.0408 -2.1110 -1.0892
 3767TIP3    H232793   0.087   4.025  14.488 -1.3760 -3.5710 -2.6398
 3768TIP3   OH232794   1.653   1.391  11.356 -0.0438  0.0377  0.3660
 3768TIP3    H132795   1.598   1.330  11.404 -1.5898  1.6079  0.6930
 3768TIP3    H232796   1.592   1.443  11.303  1.0883  1.7649  0.6612
 3769TIP3   OH232797   0.468   1.260  14.944 -0.3904 -0.7890  0.0716
 3769TIP3    H132798   0.448   1.346  14.909  2.7390  0.0685  0.0522
 3769TIP3    H232799   0.429   1.199  14.881  0.7146  0.6835 -2.1851
 3770TIP3   OH232800   3.537   2.248   5.717 -0.0744 -0.3686 -0.2853
 3770TIP3    H132801   3.514   2.324   5.663  2.1050 -1.2031 -2.6029
 3770TIP3    H232802   3.626   2.265   5.747 -0.4098 -0.9858  1.1299
 3771TIP3   OH232803   3.311   1.863  11.135 -0.2620 -0.0378  0.2976
 3771TIP3    H132804   3.326   1.919  11.059 -1.1950  0.2156  0.2837
 3771TIP3    H232805   3.248   1.912  11.189 -0.9467 -0.9684  0.3790
 3772TIP3   OH232806   4.262   3.124  12.504  0.5440  0.1433  0.4830
 3772TIP3    H132807   4.182   3.073  12.491  1.6935 -1.8258  0.7995
 3772TIP3    H232808   4.233   3.215  12.499 -1.6081 -0.5112 -0.0106
 3773TIP3   OH232809   3.746   5.679   1.971  0.2029 -0.0163 -0.0479
 3773TIP3    H132810   3.798   5.613   2.017  1.1815  0.2904 -0.6918
 3773TIP3    H232811   3.663   5.635   1.953  0.0317 -0.3621  1.4095
 3774TIP3   OH232812   2.344   5.032  12.813 -1.1395  0.3133 -0.3368
 3774TIP3    H132813   2.405   5.086  12.763 -0.5789 -1.1135 -1.2800
 3774TIP3    H232814   2.398   4.993  12.882 -1.4788  0.7327  0.1709
 3775TIP3   OH232815   4.866   5.572  13.211 -0.0878  0.3984 -0.2873
 3775TIP3    H132816   4.800   5.503  13.205 -0.0436  0.2173  0.9739
 3775TIP3    H232817   4.817   5.654  13.208 -0.4476  0.2625  1.1056
 3776TIP3   OH232818   5.026   2.903  12.614  0.0013  0.7278 -0.1930
 3776TIP3    H132819   4.960   2.972  12.619 -0.0330  0.8176 -1.4435
 3776TIP3    H232820   5.099   2.943  12.568 -0.0060 -0.0318 -0.9100
 3777TIP3   OH232821   3.820   5.034  14.651  0.5409  0.1270 -0.4050
 3777TIP3    H132822   3.773   5.053  14.570  1.3376 -0.5152 -1.0324
 3777TIP3    H232823   3.753   5.007  14.713 -0.1315  1.0557 -0.7080
 3778TIP3   OH232824   3.075   2.621  13.124  0.3729  0.5119 -0.1121
 3778TIP3    H132825   3.027   2.549  13.083  2.0608 -0.2072 -0.8981
 3778TIP3    H232826   3.131   2.578  13.190  1.1289  1.1392 -0.3382
 3779TIP3   OH232827   2.850   6.094  10.881  0.4469 -0.2831 -0.1753
 3779TIP3    H132828   2.854   6.141  10.798 -1.2712  1.8150  0.8313
 3779TIP3    H232829   2.835   6.162  10.946 -0.4560 -2.0801  1.6051
 3780TIP3   OH232830   4.135   4.882  10.749 -0.0295 -0.4591  0.2480
 3780TIP3    H132831   4.213   4.836  10.719  0.0413  0.5310 -1.1473
 3780TIP3    H232832   4.133   4.963  10.699 -1.4282 -0.0111  0.9625
 3781TIP3   OH232833   1.728   2.767   4.871  0.2634  0.5094  0.8561
 3781TIP3    H132834   1.654   2.716   4.904 -0.0455  0.5353  0.2039
 3781TIP3    H232835   1.692   2.820   4.801  0.8871  0.5848  0.5841
 3782TIP3   OH232836   4.824   1.949  13.611  0.3199  0.7293  0.1737
 3782TIP3    H132837   4.913   1.950  13.648 -0.0132  1.2824  0.9851
 3782TIP3    H232838   4.824   2.023  13.550  0.0975  1.4156  0.9844
 3783TIP3   OH232839   2.755   2.506   0.992  0.4348  0.4362 -0.0561
 3783TIP3    H132840   2.714   2.581   0.951  1.5811 -0.3872 -2.9741
 3783TIP3    H232841   2.685   2.440   0.998  0.2391  0.5863 -0.6807
 3784TIP3   OH232842   1.488   1.302   6.062  0.2956  0.0058  0.6063
 3784TIP3    H132843   1.394   1.313   6.079 -0.2533 -2.1966 -0.6422
 3784TIP3    H232844   1.522   1.261   6.141 -0.0613 -0.3926  0.5567
 3785TIP3   OH232845   4.251   3.053  14.285 -0.5710  0.0225  0.2724
 3785TIP3    H132846   4.276   2.961  14.291  2.1250  0.6600  0.2597
 3785TIP3    H232847   4.208   3.061  14.200  2.4119 -0.6425 -1.4252
 3786TIP3   OH232848   1.298   5.426  14.543 -0.4111 -0.2501  0.2263
 3786TIP3    H132849   1.306   5.339  14.583 -0.5632 -0.1696  0.4318
 3786TIP3    H232850   1.233   5.415  14.474 -2.2555  0.2355  1.7917
 3787TIP3   OH232851   5.865   4.313   4.957  0.0467 -0.2767 -0.6942
 3787TIP3    H132852   5.800   4.275   4.898  0.8161 -1.5230 -0.7769
 3787TIP3    H232853   5.897   4.238   5.009  3.3737 -0.3065 -2.5192
 3788TIP3   OH232854   3.235   6.528  11.483 -0.7852  0.3551 -0.1721
 3788TIP3    H132855   3.192   6.454  11.526  0.7442 -0.9340 -0.7565
 3788TIP3    H232856   3.329   6.508  11.489 -0.3831  1.7846 -1.1665
 3789TIP3   OH232857   0.524   3.646   3.838 -0.4458  0.3641  0.2713
 3789TIP3    H132858   0.599   3.643   3.777 -1.0592 -2.2315 -0.4934
 3789TIP3    H232859   0.546   3.716   3.899  2.0077  0.5614 -0.6956
 3790TIP3   OH232860   1.860   6.567   4.022  0.0043  0.0860 -0.6697
 3790TIP3    H132861   1.871   6.472   4.032 -2.3156 -0.4538 -2.4402
 3790TIP3    H232862   1.933   6.594   3.967  1.5466 -0.3519  1.0770
 3791TIP3   OH232863   3.479   2.152  13.937  0.6706 -0.1034  0.3033
 3791TIP3    H132864   3.439   2.205  13.868 -1.5665 -1.4763  0.4439
 3791TIP3    H232865   3.441   2.184  14.018  0.1296 -1.1644  0.4908
 3792TIP3   OH232866   6.656   5.476   2.539  0.7999 -0.1440  0.8807
 3792TIP3    H132867   6.627   5.474   2.630 -0.4349 -0.0849  0.5142
 3792TIP3    H232868   6.576   5.465   2.488  1.1977  1.5831 -0.2278
 3793TIP3   OH232869   5.993   3.781   2.488  0.5486 -0.0438 -0.0152
 3793TIP3    H132870   5.959   3.713   2.547 -1.3416 -0.2989 -1.3011
 3793TIP3    H232871   6.005   3.735   2.404 -1.0235  1.2088 -0.9871
 3794TIP3   OH232872   0.512   6.147   3.843 -0.3991 -0.1425 -0.5031
 3794TIP3    H132873   0.597   6.173   3.808 -0.0349 -0.9136 -0.2094
 3794TIP3    H232874   0.470   6.230   3.867  0.3924  0.2295 -0.3609
 3795TIP3   OH232875   3.975   5.286  16.327  0.1746 -0.1100 -0.3124
 3795TIP3    H132876   3.992   5.246  16.413  0.5059 -0.7541 -0.6657
 3795TIP3    H232877   3.930   5.368  16.347 -0.4452 -0.6162  0.4467
 3796TIP3   OH232878   1.793   5.427   0.283  0.2948  0.0732 -0.4264
 3796TIP3    H132879   1.736   5.384   0.218 -0.0689  0.4208 -0.3417
 3796TIP3    H232880   1.877   5.381   0.275  0.2603  0.1239 -1.1547
 3797TIP3   OH232881   3.671   6.706   5.803 -0.1855 -0.0550 -0.0243
 3797TIP3    H132882   3.644   6.766   5.872 -1.1694 -1.1893  0.6246
 3797TIP3    H232883   3.599   6.644   5.796  1.1896 -1.7296  0.0008
 3798TIP3   OH232884   0.496   4.637   4.724  0.3343  0.3936  0.0579
 3798TIP3    H132885   0.416   4.637   4.777  0.7804  0.9178  0.7623
 3798TIP3    H232886   0.488   4.715   4.669  0.6317  0.8021  0.5779
 3799TIP3   OH232887   1.955   0.843   3.133  0.5293 -0.1557  0.0404
 3799TIP3    H132888   1.870   0.798   3.136  0.4830 -0.0264  0.9564
 3799TIP3    H232889   1.997   0.809   3.054 -0.3995 -0.1686 -0.4657
 3800TIP3   OH232890   6.802   3.064   1.481  0.0267  0.1942  0.1949
 3800TIP3    H132891   6.728   3.114   1.513  0.8163  1.1688  0.5373
 3800TIP3    H232892   6.860   3.128   1.441 -0.6480 -0.8887 -2.7785
 3801TIP3   OH232893   4.381   5.839   4.395  0.6995 -0.4151 -0.5440
 3801TIP3    H132894   4.472   5.869   4.393  1.1427 -1.6368 -0.1359
 3801TIP3    H232895   4.384   5.750   4.358 -0.1654 -0.8191  0.2896
 3802TIP3   OH232896   0.620   5.607  11.947 -0.4315  0.1652  0.0660
 3802TIP3    H132897   0.648   5.599  11.856 -0.3208  0.5807  0.0645
 3802TIP3    H232898   0.657   5.689  11.977 -0.0927 -0.1866  0.6232
 3803TIP3   OH232899   3.804   4.334  13.862  0.2994  0.0918  0.4211
 3803TIP3    H132900   3.757   4.412  13.834  0.1667  0.1713  0.8619
 3803TIP3    H232901   3.890   4.341  13.821 -0.1447 -0.1759 -0.5953
 3804TIP3   OH232902   6.095   0.767  16.612  0.1274  0.3643  0.6476
 3804TIP3    H132903   6.152   0.843  16.628 -1.3826  1.6581  0.1918
 3804TIP3    H232904   6.015   0.788  16.661 -1.4568  0.5109 -1.8330
 3805TIP3   OH232905   0.694   1.964   0.662  0.4576  0.3273 -0.1744
 3805TIP3    H132906   0.690   1.934   0.753 -0.9983 -2.5256 -1.0648
 3805TIP3    H232907   0.767   1.916   0.624  1.6859  2.2391 -0.3354
 3806TIP3   OH232908   2.386   6.491  15.512  0.1589  0.5375 -0.1844
 3806TIP3    H132909   2.298   6.486  15.549 -0.2879 -0.2789 -1.2734
 3806TIP3    H232910   2.423   6.572  15.547 -0.7169  0.4832  0.9294
 3807TIP3   OH232911   5.913   5.279  13.027  0.3561 -0.3870  0.7407
 3807TIP3    H132912   5.900   5.358  12.975  0.5764 -1.0717 -0.3808
 3807TIP3    H232913   5.979   5.229  12.979 -1.3332 -2.2431  0.2313
 3808TIP3   OH232914   4.904   3.219  14.876 -0.2674 -0.3496  0.4745
 3808TIP3    H132915   4.827   3.163  14.871  0.7055 -1.6468 -0.7260
 3808TIP3    H232916   4.968   3.168  14.926 -0.0147  0.5065  1.0444
 3809TIP3   OH232917   6.357   0.725   0.053 -0.1946  0.3424  0.2668
 3809TIP3    H132918   6.290   0.672   0.009  1.5196 -1.2112 -0.6441
 3809TIP3    H232919   6.317   0.750   0.136 -2.2027  0.2416 -0.6093
 3810TIP3   OH232920   5.927   1.212  16.699  0.3321  0.1386 -0.3688
 3810TIP3    H132921   5.991   1.193  16.768  0.7407  1.0671 -0.4714
 3810TIP3    H232922   5.925   1.308  16.695 -0.8074  0.1165 -0.6205
 3811TIP3   OH232923   5.684   4.992  13.304  0.0929 -0.6226 -0.6308
 3811TIP3    H132924   5.689   4.958  13.393 -0.2218 -1.0248 -0.7690
 3811TIP3    H232925   5.613   5.056  13.307  0.7547  0.1202 -0.3458
 3812TIP3   OH232926   0.046   1.761   0.206  0.3159 -0.0452 -0.2345
 3812TIP3    H132927  -0.015   1.727   0.272  1.8705  1.9087  2.3670
 3812TIP3    H232928   0.127   1.712   0.220  0.1012 -1.0627 -2.1804
 3813TIP3   OH232929   6.469   6.476  12.213 -0.0935 -0.3699  0.2105
 3813TIP3    H132930   6.381   6.439  12.203 -0.4410  0.1033  1.3869
 3813TIP3    H232931   6.523   6.402  12.242 -0.5165 -0.2689  1.3120
 3814TIP3   OH232932   4.386   3.284  14.674  0.7419  0.0016  0.0731
 3814TIP3    H132933   4.332   3.359  14.649  2.1087 -0.1738 -4.4771
 3814TIP3    H232934   4.437   3.265  14.595  2.6958 -3.8636  1.9883
 3815TIP3   OH232935   6.411   2.377  12.552 -0.2395  0.4867  0.0455
 3815TIP3    H132936   6.341   2.397  12.613 -0.5715 -0.5365  0.0277
 3815TIP3    H232937   6.490   2.375  12.605 -0.3635  0.7129  0.2387
 3816TIP3   OH232938   3.920   4.338  11.909  0.2324 -0.0271  0.9081
 3816TIP3    H132939   3.829   4.320  11.934  0.2623  0.1766  1.1698
 3816TIP3    H232940   3.953   4.255  11.875 -0.8343  0.4984 -1.6717
 3817TIP3   OH232941   2.125   2.040  14.479 -0.1212 -0.0708 -0.3060
 3817TIP3    H132942   2.136   2.115  14.538 -1.7010 -1.2290  1.5798
 3817TIP3    H232943   2.054   1.990  14.518 -1.4498 -0.7896 -3.3754
 3818TIP3   OH232944   1.269   2.895  13.692  0.0785  0.2954 -0.8153
 3818TIP3    H132945   1.338   2.881  13.627 -0.2926 -1.0363 -0.9445
 3818TIP3    H232946   1.188   2.869  13.648 -0.5654  1.9488 -0.7063
 3819TIP3   OH232947   2.290   1.827  12.575  0.1306  0.1578 -0.1472
 3819TIP3    H132948   2.375   1.870  12.565  0.1114 -0.0427 -1.3315
 3819TIP3    H232949   2.286   1.765  12.502 -0.5664 -0.6273  0.5494
 3820TIP3   OH232950   5.221   0.419  15.722 -0.0055 -0.5796 -0.0493
 3820TIP3    H132951   5.192   0.329  15.736  1.2408 -0.8313  1.2045
 3820TIP3    H232952   5.170   0.449  15.647 -0.5658 -2.2671 -0.4031
 3821TIP3   OH232953   2.931   1.252   0.045  0.8521 -0.5751 -0.5261
 3821TIP3    H132954   2.943   1.334  -0.002 -0.0720  0.6097  1.1878
 3821TIP3    H232955   2.847   1.218   0.014  0.6163 -0.1924 -0.3169
 3822TIP3   OH232956   5.052   4.443   2.265 -0.2478 -0.3439  0.0336
 3822TIP3    H132957   4.979   4.491   2.305 -0.4172 -0.3654 -0.2400
 3822TIP3    H232958   5.070   4.371   2.326 -0.1122 -0.0396  0.3556
 3823TIP3   OH232959   6.389   2.678   3.373 -0.7225 -0.2973  0.0460
 3823TIP3    H132960   6.355   2.764   3.399 -0.1890  1.3110 -3.8409
 3823TIP3    H232961   6.483   2.692   3.363 -0.8860 -0.5785 -2.7042
 3824TIP3   OH232962   6.538   1.105  13.506 -0.3806 -0.0437  0.1348
 3824TIP3    H132963   6.561   1.139  13.419 -0.8516  0.0117  0.0328
 3824TIP3    H232964   6.468   1.043  13.490  2.0406 -2.9746  0.0173
 3825TIP3   OH232965   6.735   3.579  14.969 -0.3256 -0.2069 -0.1288
 3825TIP3    H132966   6.690   3.636  15.032  0.2783 -1.8269  1.8615
 3825TIP3    H232967   6.814   3.629  14.945 -0.5525  0.4300  0.4076
 3826TIP3   OH232968   3.458   4.803  16.609 -0.1922 -0.3823  0.3954
 3826TIP3    H132969   3.529   4.761  16.657  0.2526  0.9462  0.9377
 3826TIP3    H232970   3.379   4.756  16.637  0.3912 -1.4713  0.2397
 3827TIP3   OH232971   5.105   2.466  14.769 -0.5200  0.0442 -0.1244
 3827TIP3    H132972   5.179   2.405  14.774 -0.7164 -0.1196  0.8483
 3827TIP3    H232973   5.107   2.515  14.851  0.0305  1.8489 -1.1621
 3828TIP3   OH232974   5.595   0.764   5.895  0.2330 -0.3749 -0.2476
 3828TIP3    H132975   5.586   0.813   5.814  0.0842 -1.0394 -0.6444
 3828TIP3    H232976   5.637   0.824   5.956  0.9790 -0.0907 -1.0272
 3829TIP3   OH232977   5.152   2.318  14.009 -0.2188  0.2145  0.0752
 3829TIP3    H132978   5.194   2.400  14.033  1.1642 -0.0485 -1.3274
 3829TIP3    H232979   5.119   2.283  14.091  2.7117  0.2157  1.3640
 3830TIP3   OH232980   5.257   0.462   1.363 -0.2791  0.0035 -0.0990
 3830TIP3    H132981   5.164   0.476   1.346 -0.4671  0.7484  1.4125
 3830TIP3    H232982   5.302   0.506   1.291 -1.0643  0.9440 -0.0260
 3831TIP3   OH232983   3.454   1.268  11.045 -0.2647  0.1904 -0.2626
 3831TIP3    H132984   3.511   1.305  10.977  0.8615 -0.3087  0.3785
 3831TIP3    H232985   3.515   1.230  11.109 -1.1687  2.2054  1.9546
 3832TIP3   OH232986   1.453   3.226   0.895 -0.3874  0.3008 -0.1227
 3832TIP3    H132987   1.457   3.287   0.969 -0.4739  1.3493 -0.9518
 3832TIP3    H232988   1.421   3.144   0.933 -0.3671  0.7985  1.0052
 3833TIP3   OH232989   3.174   0.005   0.264  0.2961  0.0093 -0.2949
 3833TIP3    H132990   3.146   0.000   0.173  0.6313 -2.1988 -0.3358
 3833TIP3    H232991   3.247   0.067   0.264  0.7503 -0.4995 -1.6602
 3834TIP3   OH232992   3.857   2.889   3.525 -0.3808  0.5103 -0.5532
 3834TIP3    H132993   3.894   2.974   3.504  0.3248 -0.0716 -1.8234
 3834TIP3    H232994   3.931   2.838   3.559 -1.1805  0.9422  2.0918
 3835TIP3   OH232995   1.970   2.901  17.038  0.0397  0.3803 -0.0634
 3835TIP3    H132996   1.907   2.900  17.110  0.8001 -0.1405  0.6095
 3835TIP3    H232997   1.971   2.811  17.006 -1.1976  0.8539 -1.5612
 3836TIP3   OH232998   3.902   0.024  11.488  0.2078 -0.5469 -0.3682
 3836TIP3    H132999   3.909  -0.070  11.503  1.5119 -0.5443 -0.8347
 3836TIP3    H233000   3.868   0.031  11.399 -0.5591 -0.5570 -0.0888
 3837TIP3   OH233001   5.403   0.904  14.013 -0.5777 -0.2922  0.2801
 3837TIP3    H133002   5.369   0.989  14.043  0.4090 -0.2812  1.4298
 3837TIP3    H233003   5.327   0.861  13.973 -0.9053  1.4615 -1.0934
 3838TIP3   OH233004   2.068   5.400  13.411 -0.1011  0.0382  0.7406
 3838TIP3    H133005   2.051   5.384  13.318  0.4850  0.6695  0.5095
 3838TIP3    H233006   2.002   5.464  13.437 -0.0269  0.1525  0.6519
 3839TIP3   OH233007   3.213   3.862   5.214 -0.2153 -0.3018 -0.6194
 3839TIP3    H133008   3.230   3.769   5.199  1.3975 -0.4180  1.4547
 3839TIP3    H233009   3.210   3.871   5.309  1.1074  1.9759 -0.7051
 3840TIP3   OH233010   1.453   5.487  13.145  0.1373  0.4193 -0.1435
 3840TIP3    H133011   1.464   5.417  13.081 -1.9017 -1.8986  1.8604
 3840TIP3    H233012   1.365   5.521  13.129 -0.3395 -0.0849  1.2565
 3841TIP3   OH233013   3.543   0.896   5.057 -0.0039 -0.5247  0.7477
 3841TIP3    H133014   3.622   0.858   5.020  0.4995  0.7501  0.4691
 3841TIP3    H233015   3.477   0.886   4.988  0.6365  0.8108 -0.1163
 3842TIP3   OH233016   0.899   5.368   3.742 -0.2516  0.0431  0.5222
 3842TIP3    H133017   0.804   5.360   3.740 -0.2768 -0.3766  2.3338
 3842TIP3    H233018   0.931   5.279   3.727 -0.1219  0.2210 -0.3140
 3843TIP3   OH233019   0.430   4.526   0.145  0.0924  0.1681  0.2958
 3843TIP3    H133020   0.425   4.621   0.132 -1.6330 -0.0371 -0.8238
 3843TIP3    H233021   0.349   4.503   0.190  0.2572 -0.8547  0.1074
 3844TIP3   OH233022   1.653   4.411  11.045  0.5754 -0.3142  0.3687
 3844TIP3    H133023   1.728   4.380  11.096 -0.9650 -3.3558  1.0058
 3844TIP3    H233024   1.664   4.371  10.959 -0.6018 -1.3553  0.6723
 3845TIP3   OH233025   0.788   0.038  14.588 -0.0000 -0.2556 -0.1595
 3845TIP3    H133026   0.806   0.130  14.610  0.7195 -0.1503 -1.0943
 3845TIP3    H233027   0.844  -0.012  14.648  0.4132 -0.0395 -0.3535
 3846TIP3   OH233028   4.673   1.421   0.513 -0.0888  0.6954 -0.4269
 3846TIP3    H133029   4.659   1.390   0.602  1.2917 -0.1685 -0.4755
 3846TIP3    H233030   4.663   1.343   0.458  1.0172  0.7848 -0.7997
 3847TIP3   OH233031   2.387   5.654  15.594 -0.6394  0.5047 -0.2823
 3847TIP3    H133032   2.387   5.729  15.535 -0.4779  0.8745  0.1799
 3847TIP3    H233033   2.301   5.614  15.582 -1.2011  1.4797  0.3569
 3848TIP3   OH233034   1.930   4.842  15.845 -0.4597  0.2918 -0.2536
 3848TIP3    H133035   2.009   4.858  15.897 -0.8024  0.6169  0.1744
 3848TIP3    H233036   1.955   4.773  15.783  0.0375  0.1090  0.1496
 3849TIP3   OH233037   5.396   2.533  15.357  0.4756  0.5472  0.6736
 3849TIP3    H133038   5.442   2.616  15.362  0.7781  0.8483 -3.5381
 3849TIP3    H233039   5.465   2.467  15.353  0.3756  0.4666  0.1841
 3850TIP3   OH233040   1.917   1.537   4.651  0.2113 -0.1059  0.0585
 3850TIP3    H133041   1.946   1.589   4.576  2.5241 -2.3965 -0.7778
 3850TIP3    H233042   1.891   1.453   4.614 -0.6242 -0.5908  1.6473
 3851TIP3   OH233043   1.186   6.475  14.075  0.1561 -0.5593 -0.4050
 3851TIP3    H133044   1.115   6.413  14.061 -0.4335 -0.2202  0.9115
 3851TIP3    H233045   1.164   6.518  14.158  1.0333  0.7382 -0.8147
 3852TIP3   OH233046   3.935   3.959   0.809 -0.0614 -0.1374 -0.1065
 3852TIP3    H133047   3.972   4.002   0.886 -3.8732 -1.1748  2.5900
 3852TIP3    H233048   3.900   4.030   0.756  1.0151  0.5000  0.0210
 3853TIP3   OH233049   5.276   1.253  11.914  0.3060  0.5220 -0.0005
 3853TIP3    H133050   5.262   1.247  11.819 -1.7501 -1.0423  0.3327
 3853TIP3    H233051   5.218   1.323  11.943 -0.9300 -0.6001  0.3573
 3854TIP3   OH233052   4.034   3.171  15.003  0.2191  0.3262  0.1639
 3854TIP3    H133053   4.093   3.158  14.929  1.2331 -1.7897  1.2543
 3854TIP3    H233054   4.019   3.083  15.038 -1.9079  1.0339  1.2315
 3855TIP3   OH233055   3.324   2.467   3.203 -0.0398 -0.5930  0.5740
 3855TIP3    H133056   3.270   2.496   3.130 -1.6587 -4.0628  0.2360
 3855TIP3    H233057   3.314   2.537   3.268 -0.7011  1.3114 -1.4192
 3856TIP3   OH233058   2.581   5.931   3.561  0.1933 -0.0974  0.1765
 3856TIP3    H133059   2.499   5.977   3.579  0.6588  0.5224  0.7641
 3856TIP3    H233060   2.635   5.996   3.516  0.8968 -0.0132  1.1044
 3857TIP3   OH233061   4.450   6.719   2.082 -0.0382  0.1615  0.1569
 3857TIP3    H133062   4.535   6.697   2.118 -0.0930 -0.9905 -0.4038
 3857TIP3    H233063   4.401   6.755   2.156  0.9254  0.8497  0.4740
 3858TIP3   OH233064   4.578   6.010  13.201 -0.6080 -0.1369  0.2770
 3858TIP3    H133065   4.548   6.086  13.151  0.9189  0.1402 -0.2605
 3858TIP3    H233066   4.520   6.007  13.277 -1.2465  1.0407 -0.1400
 3859TIP3   OH233067   4.241   5.002  12.026 -0.1106 -0.0565  0.3019
 3859TIP3    H133068   4.286   4.921  12.002 -1.3584 -1.3025  1.9174
 3859TIP3    H233069   4.311   5.060  12.057  1.0360  0.2306 -2.5268
 3860TIP3   OH233070   5.055   5.801  15.305  0.6282 -0.0653  0.5546
 3860TIP3    H133071   5.140   5.758  15.292  0.7430  0.4430 -0.5125
 3860TIP3    H233072   5.012   5.750  15.373  0.5061 -2.2917 -1.0795
 3861TIP3   OH233073   2.686   5.485  17.027 -0.3910 -0.4363  0.1087
 3861TIP3    H133074   2.648   5.431  16.958 -0.4486  0.3597 -0.4967
 3861TIP3    H233075   2.779   5.488  17.008  0.3509 -3.5506  2.3850
 3862TIP3   OH233076   5.479   3.455  16.778  0.6144 -0.6203 -0.0544
 3862TIP3    H133077   5.545   3.391  16.804  1.2736  0.2144  0.3508
 3862TIP3    H233078   5.469   3.512  16.855  0.4286  0.0827 -0.5914
 3863TIP3   OH233079   4.330   5.185  12.670 -0.0314  0.2486  0.5065
 3863TIP3    H133080   4.405   5.166  12.613  0.5720 -0.5707  1.5385
 3863TIP3    H233081   4.268   5.231  12.613  1.0465  0.5223 -0.4948
 3864TIP3   OH233082   1.950   5.148  14.029 -0.0803 -0.0494 -0.0037
 3864TIP3    H133083   1.987   5.236  14.039  0.5197 -0.2543 -0.3788
 3864TIP3    H233084   1.904   5.151  13.945  0.2212 -0.1847 -0.1776
 3865TIP3   OH233085   5.412   1.733   3.721  0.0918 -0.0957  0.1608
 3865TIP3    H133086   5.329   1.757   3.763  0.4087  0.5053  0.4596
 3865TIP3    H233087   5.433   1.809   3.666  0.5039 -0.1947  0.1823
 3866TIP3   OH233088   0.337   5.357  16.722  0.6655 -0.6806 -0.2497
 3866TIP3    H133089   0.374   5.359  16.810 -0.6811  3.6215  0.4716
 3866TIP3    H233090   0.243   5.341  16.735 -0.1833  3.1533 -0.2982
 3867TIP3   OH233091   6.093   3.973   2.660 -0.4179  0.2594 -0.4048
 3867TIP3    H133092   6.079   3.940   2.571  0.3944 -0.4167 -0.2951
 3867TIP3    H233093   6.129   3.898   2.708 -2.1518  0.1998  0.8726
 3868TIP3   OH233094   3.412   6.108   4.989  0.3075 -0.0804 -0.4607
 3868TIP3    H133095   3.328   6.140   4.957 -0.6104 -1.4975  0.4483
 3868TIP3    H233096   3.416   6.138   5.080  0.9053  0.1836 -0.5686
 3869TIP3   OH233097   6.538   3.260  12.819  0.2407 -0.1806  0.4134
 3869TIP3    H133098   6.564   3.273  12.728  0.6669 -0.7768  0.4458
 3869TIP3    H233099   6.610   3.211  12.858  0.2150  0.3611  1.1651
 3870TIP3   OH233100   0.286   5.678   1.547 -0.6013 -0.3486 -1.0220
 3870TIP3    H133101   0.299   5.617   1.619  0.8977 -1.4111 -2.1389
 3870TIP3    H233102   0.268   5.762   1.590  2.0054 -0.5335  0.6668
 3871TIP3   OH233103   4.063   3.394  12.786 -0.2601  0.3205  0.5917
 3871TIP3    H133104   4.000   3.397  12.714  0.2805 -0.9466  0.0413
 3871TIP3    H233105   4.133   3.453  12.758  0.2077 -0.5787 -0.2056
 3872TIP3   OH233106   4.730   3.885  13.438 -0.0028  0.1703  0.2294
 3872TIP3    H133107   4.634   3.884  13.437 -0.0008  0.2633 -0.4931
 3872TIP3    H233108   4.755   3.793  13.445 -0.1489 -0.4958 -4.6419
 3873TIP3   OH233109   1.603   4.793  11.882  0.0535 -0.3829 -0.5827
 3873TIP3    H133110   1.549   4.771  11.807  0.3785 -0.0320 -0.9228
 3873TIP3    H233111   1.650   4.872  11.856 -1.5137  1.1147  0.7895
 3874TIP3   OH233112   0.127   0.471   5.197 -0.2474  0.0633 -0.6085
 3874TIP3    H133113   0.085   0.532   5.257  1.1036 -1.1090  1.6759
 3874TIP3    H233114   0.058   0.410   5.172 -1.0956  1.2387 -1.1864
 3875TIP3   OH233115   4.455   0.849  11.716 -0.2297 -0.2226 -0.2362
 3875TIP3    H133116   4.385   0.844  11.652  0.4945  0.1639 -1.0883
 3875TIP3    H233117   4.535   0.840  11.664  0.3466 -1.1060  0.7640
 3876TIP3   OH233118   4.772   3.405   6.355  0.1746  0.0517 -0.4020
 3876TIP3    H133119   4.765   3.311   6.366 -0.5116  0.1621  0.1812
 3876TIP3    H233120   4.734   3.442   6.435  0.0019  0.8253 -0.8259
 3877TIP3   OH233121   3.720   2.919   2.176  0.1497  0.4033 -0.1191
 3877TIP3    H133122   3.800   2.881   2.139 -0.6850  0.3812 -1.9861
 3877TIP3    H233123   3.744   3.008   2.201  1.0190  0.0467  0.3626
 3878TIP3   OH233124   1.738   4.375  12.791 -0.1857 -0.3311 -0.2013
 3878TIP3    H133125   1.735   4.299  12.849 -1.5922 -0.2220 -0.0762
 3878TIP3    H233126   1.816   4.362  12.738  0.3589 -1.1495  0.7584
 3879TIP3   OH233127   2.005   4.253  15.658 -0.2170  0.5417 -0.0048
 3879TIP3    H133128   1.993   4.302  15.577 -1.4198  0.1807 -0.0576
 3879TIP3    H233129   1.933   4.190  15.660  0.8578 -0.7260  0.4406
 3880TIP3   OH233130   4.098   6.829   6.388  0.0139 -0.2100  0.4159
 3880TIP3    H133131   4.153   6.853   6.313  0.2187 -1.8774 -0.0051
 3880TIP3    H233132   4.158   6.828   6.462 -0.2440  1.7258  0.6941
 3881TIP3   OH233133   1.943   3.049  13.517  0.6618 -0.7305  0.2327
 3881TIP3    H133134   1.887   3.114  13.476 -0.9826 -1.5178  1.1444
 3881TIP3    H233135   2.028   3.094  13.527 -0.2302  1.0424  0.2688
 3882TIP3   OH233136   0.929   1.459   3.874 -0.0273 -0.1421  0.6353
 3882TIP3    H133137   1.017   1.487   3.900  0.0834 -0.1366  0.2693
 3882TIP3    H233138   0.921   1.370   3.907 -0.5412  0.4458  2.1816
 3883TIP3   OH233139   3.296   5.963  14.623 -0.5792  0.4606  0.2492
 3883TIP3    H133140   3.350   6.036  14.593  0.3831  0.4428  1.8031
 3883TIP3    H233141   3.217   5.969  14.570  0.8112  0.6304 -1.9324
 3884TIP3   OH233142   3.122   1.402   2.126  0.1364  0.2192 -0.3574
 3884TIP3    H133143   3.208   1.362   2.116 -0.2784 -0.2895 -2.2406
 3884TIP3    H233144   3.075   1.379   2.046 -1.8397  0.2930  0.7065
 3885TIP3   OH233145   5.306   0.795  16.130  0.3023  0.0161  0.6326
 3885TIP3    H133146   5.364   0.776  16.204  1.3888  0.3964 -0.0993
 3885TIP3    H233147   5.291   0.711  16.088  0.0303 -0.1350  1.0267
 3886TIP3   OH233148   4.759   5.772   0.797 -0.0826  0.1530  0.5477
 3886TIP3    H133149   4.833   5.833   0.788  0.8221 -1.0907 -1.1564
 3886TIP3    H233150   4.693   5.806   0.737 -0.1607  0.2793  0.7073
 3887TIP3   OH233151   4.698   2.413  15.444 -0.4356  0.9200 -0.4375
 3887TIP3    H133152   4.695   2.474  15.517  1.9059 -2.7421  3.1539
 3887TIP3    H233153   4.613   2.369  15.446  0.4531 -0.8739  1.9384
 3888TIP3   OH233154   3.900   2.117   3.845  0.1460  0.2532  0.4317
 3888TIP3    H133155   3.830   2.099   3.782  2.0754 -0.5979 -1.5715
 3888TIP3    H233156   3.946   2.193   3.808  1.6166 -0.5740  0.5148
 3889TIP3   OH233157   6.152   2.397  13.215  0.0976 -0.3581 -0.2424
 3889TIP3    H133158   6.088   2.456  13.255 -0.5950 -1.7129  0.6957
 3889TIP3    H233159   6.101   2.322  13.186  1.2628 -1.5164  0.6160
 3890TIP3   OH233160   6.267   4.156  12.398 -0.6524  0.2696  0.5684
 3890TIP3    H133161   6.238   4.093  12.464  1.2794 -1.1224  0.1784
 3890TIP3    H233162   6.350   4.189  12.430  0.3922 -0.5246 -1.1650
 3891TIP3   OH233163   0.780   4.159  15.017 -0.1889  0.2275  0.0540
 3891TIP3    H133164   0.733   4.113  14.947  0.0266  1.6856 -1.0861
 3891TIP3    H233165   0.710   4.198  15.071 -0.3453 -0.5974  0.4634
 3892TIP3   OH233166   4.169   0.074   1.606 -0.3353 -0.1419  0.2934
 3892TIP3    H133167   4.198   0.160   1.576 -0.0344 -0.3765 -0.1024
 3892TIP3    H233168   4.229   0.052   1.677  0.5588 -0.6820 -0.6082
 3893TIP3   OH233169   6.269   4.087  14.748 -0.3419  0.0675 -0.5603
 3893TIP3    H133170   6.285   4.157  14.684 -0.8427 -0.2944 -1.0941
 3893TIP3    H233171   6.339   4.024  14.732  1.3532  1.3466  1.2868
 3894TIP3   OH233172   4.998   1.108   0.741  0.2707  0.1725  0.2383
 3894TIP3    H133173   5.031   1.023   0.772  0.3127 -0.0862 -0.5070
 3894TIP3    H233174   4.969   1.091   0.652  0.8476  1.0887 -0.1317
 3895TIP3   OH233175   4.542   6.018   1.615 -0.1136  0.3630 -0.0814
 3895TIP3    H133176   4.465   6.045   1.663  1.4415  2.6253  1.2911
 3895TIP3    H233177   4.580   6.099   1.580  2.4758 -0.4304  0.6284
 3896TIP3   OH233178   4.011   5.327   4.155  0.3994 -0.4852  0.5231
 3896TIP3    H133179   3.924   5.325   4.194  0.3786 -0.0039  0.5086
 3896TIP3    H233180   4.034   5.235   4.143  1.3456 -0.7617  3.7043
 3897TIP3   OH233181   4.856   0.981   3.650  0.3631  0.0956 -0.7947
 3897TIP3    H133182   4.786   0.969   3.584 -1.6183 -1.4488  1.4152
 3897TIP3    H233183   4.870   0.893   3.686  1.6869  0.8260  0.5702
 3898TIP3   OH233184   0.502   3.781  16.452  0.2487  0.2246  0.2338
 3898TIP3    H133185   0.497   3.738  16.538 -0.7710  1.4169  0.7985
 3898TIP3    H233186   0.553   3.720  16.398  3.5971  0.7684  2.4796
 3899TIP3   OH233187   1.963   4.624  12.124  0.5936  0.2502 -0.2243
 3899TIP3    H133188   2.048   4.581  12.113  0.7752  0.6066 -0.2628
 3899TIP3    H233189   1.915   4.568  12.185 -0.1675 -1.3806 -2.1987
 3900TIP3   OH233190   4.557   5.256   0.477 -0.0880 -0.2525 -0.3754
 3900TIP3    H133191   4.614   5.193   0.520 -1.5348 -0.0270  2.0947
 3900TIP3    H233192   4.568   5.337   0.527 -0.5166  0.5962 -1.5923
 3901TIP3   OH233193   5.691   2.212  16.325  0.4045 -0.0912  0.0176
 3901TIP3    H133194   5.756   2.162  16.375  1.7567 -0.0793 -1.6168
 3901TIP3    H233195   5.638   2.145  16.281 -0.1137 -0.0976  0.6515
 3902TIP3   OH233196   6.527   4.527   3.860  0.1436  0.1592  0.2845
 3902TIP3    H133197   6.505   4.445   3.906 -0.3400  0.8012  1.2365
 3902TIP3    H233198   6.578   4.577   3.924 -0.3735  0.9965  0.0593
 3903TIP3   OH233199   3.218   5.197  13.991 -0.1568 -0.3083 -0.0982
 3903TIP3    H133200   3.231   5.285  13.957 -0.0374 -1.0439 -2.0814
 3903TIP3    H233201   3.300   5.176  14.035 -0.0728  0.4434  0.1193
 3904TIP3   OH233202   3.390   4.003   5.506  0.1191 -0.5310 -0.3451
 3904TIP3    H133203   3.384   3.915   5.543 -1.8383  0.0896  1.0129
 3904TIP3    H233204   3.389   4.061   5.583 -0.2287  0.6981 -1.2491
 3905TIP3   OH233205   1.716   3.255  11.957  0.0451 -0.0049 -0.3792
 3905TIP3    H133206   1.694   3.342  11.924  2.2529  0.8645  0.2657
 3905TIP3    H233207   1.696   3.258  12.050 -0.0631 -0.2670 -0.3926
 3906TIP3   OH233208   2.303   1.763  14.788 -0.0487  0.3255  0.2899
 3906TIP3    H133209   2.374   1.723  14.738  0.1439  0.7693  0.2033
 3906TIP3    H233210   2.339   1.772  14.877  0.8199  2.5570 -0.2400
 3907TIP3   OH233211   4.020   4.599  16.759  0.0945  0.1443  0.6161
 3907TIP3    H133212   3.944   4.625  16.810 -0.8497 -0.5037 -0.4034
 3907TIP3    H233213   4.041   4.676  16.706 -1.5511 -0.4801 -1.0537
 3908TIP3   OH233214   1.804   1.728   1.439 -0.1292  0.2601 -0.1107
 3908TIP3    H133215   1.727   1.675   1.422 -1.5583  1.9581  0.6913
 3908TIP3    H233216   1.780   1.816   1.408  1.9860  0.5751 -1.0362
 3909TIP3   OH233217   0.121   4.447   3.207  0.6990 -0.3703 -0.4446
 3909TIP3    H133218   0.173   4.524   3.230 -2.0919  1.8840 -1.1402
 3909TIP3    H233219   0.163   4.412   3.128  1.9412  0.5238 -0.1969
 3910TIP3   OH233220   2.287   3.464  16.401  0.0453  0.0730 -0.7205
 3910TIP3    H133221   2.379   3.481  16.423  0.2391  0.6765 -1.9036
 3910TIP3    H233222   2.248   3.433  16.483  1.3259 -0.3040 -0.2277
 3911TIP3   OH233223   1.618   0.257   5.316 -0.0454 -0.0740 -0.0044
 3911TIP3    H133224   1.558   0.331   5.312 -1.0534 -0.7128  2.0024
 3911TIP3    H233225   1.638   0.247   5.409  0.4558 -1.9985 -0.2761
 3912TIP3   OH233226   6.646   5.488  12.288 -0.2588 -0.0107  0.0678
 3912TIP3    H133227   6.649   5.545  12.212 -0.0680 -0.0574  0.0391
 3912TIP3    H233228   6.681   5.405  12.258  0.3041  0.1220  0.3315
 3913TIP3   OH233229   1.838   5.069   4.627  0.7099 -0.0484 -0.0469
 3913TIP3    H133230   1.784   5.061   4.549  0.2453 -0.6213  0.3246
 3913TIP3    H233231   1.925   5.039   4.600  0.0711 -2.2742  0.1679
 3914TIP3   OH233232   6.246   4.988   0.416 -0.3093 -0.1204  0.0470
 3914TIP3    H133233   6.208   4.983   0.504 -0.7217  0.6715 -0.0812
 3914TIP3    H233234   6.192   5.052   0.370  1.0129  0.8409 -0.2271
 3915TIP3   OH233235   0.777   1.607   4.051  0.0158  0.3970 -0.0585
 3915TIP3    H133236   0.857   1.626   4.101 -0.9349  0.6869  1.4345
 3915TIP3    H233237   0.809   1.575   3.967  1.7051  0.3914  0.5267
 3916TIP3   OH233238   0.707   2.162  11.327 -0.0575  0.1271  0.6393
 3916TIP3    H133239   0.639   2.159  11.393 -0.0107  0.1245  0.6871
 3916TIP3    H233240   0.675   2.224  11.262  0.8438  1.7922  1.7158
 3917TIP3   OH233241   2.919   1.698   3.979  0.4248  0.3541  0.2890
 3917TIP3    H133242   2.927   1.767   4.045  0.1099  1.7949 -1.1079
 3917TIP3    H233243   2.991   1.638   3.999  0.0551  0.4721  2.2056
 3918TIP3   OH233244   1.651   2.683  13.594  0.1582 -0.8026 -0.2238
 3918TIP3    H133245   1.696   2.679  13.679 -0.9610 -0.8344  0.3803
 3918TIP3    H233246   1.653   2.593  13.562  2.2400 -0.4917 -1.1509
 3919TIP3   OH233247   1.717   0.953   1.433 -0.3938  0.1097  0.6110
 3919TIP3    H133248   1.637   0.899   1.427 -0.0405 -0.3148 -0.8509
 3919TIP3    H233249   1.723   0.995   1.347  1.1339 -0.1370  0.5724
 3920TIP3   OH233250   4.793   6.711  11.625 -0.0140  0.0978  0.6894
 3920TIP3    H133251   4.802   6.751  11.711  2.9289 -2.1566  1.5999
 3920TIP3    H233252   4.730   6.640  11.638  0.1665 -0.0231  0.9092
 3921TIP3   OH233253   3.125   5.543  12.976  0.3033 -0.0325  0.0829
 3921TIP3    H133254   3.051   5.575  13.028 -0.9164 -2.6278  0.1165
 3921TIP3    H233255   3.124   5.597  12.897 -2.4639 -0.7246 -0.4766
 3922TIP3   OH233256   3.849   6.109   0.896 -0.2699 -0.4898  0.0259
 3922TIP3    H133257   3.868   6.069   0.811  0.0813 -1.0300  0.3532
 3922TIP3    H233258   3.926   6.162   0.915 -0.6486  0.2004 -0.3126
 3923TIP3   OH233259   5.735   2.062   3.368  0.2900 -0.6757 -0.3053
 3923TIP3    H133260   5.685   2.139   3.342  0.4232 -0.2421  0.7082
 3923TIP3    H233261   5.711   1.996   3.303 -0.6766 -0.1199 -0.5359
 3924TIP3   OH233262   6.512   3.564  12.579  0.0858  0.4609  0.1750
 3924TIP3    H133263   6.560   3.641  12.549 -0.5937  1.0496  0.5783
 3924TIP3    H233264   6.511   3.505  12.503  1.0039  0.6416  0.0073
 3925TIP3   OH233265   0.804   1.748  16.633 -0.2546 -0.2790  0.5736
 3925TIP3    H133266   0.749   1.825  16.619  0.6819  0.5757  1.3785
 3925TIP3    H233267   0.742   1.676  16.644 -1.1281 -0.1581 -2.6017
 3926TIP3   OH233268   1.035   6.100   3.786  0.0002 -0.6691  0.3997
 3926TIP3    H133269   1.068   6.150   3.860  0.2594 -0.4134  0.1142
 3926TIP3    H233270   0.970   6.041   3.824 -0.1594 -0.2626  0.7658
 3927TIP3   OH233271   3.109   2.934   2.696  0.2797  0.0189 -0.2840
 3927TIP3    H133272   3.127   2.843   2.717  0.5940  0.6252  2.3870
 3927TIP3    H233273   3.194   2.978   2.703 -0.3812  1.0668  1.8678
 3928TIP3   OH233274   4.456   6.604   3.173  0.6148  0.2006  0.1514
 3928TIP3    H133275   4.378   6.600   3.119  1.5999  0.7504 -1.3648
 3928TIP3    H233276   4.513   6.667   3.129  2.0996 -0.5249  0.9527
 3929TIP3   OH233277   0.007   1.758  14.738 -0.0742  0.0960  0.7534
 3929TIP3    H133278   0.045   1.819  14.801 -0.7367  0.9404  0.3587
 3929TIP3    H233279   0.056   1.677  14.750  0.9531  0.7641  1.1488
 3930TIP3   OH233280   6.597   4.976  16.267 -0.0028  0.5389 -0.0673
 3930TIP3    H133281   6.560   4.943  16.185  1.4304 -1.2797 -0.0397
 3930TIP3    H233282   6.685   5.007  16.243 -0.7379  3.0362  0.2119
 3931TIP3   OH233283   0.219   2.945   1.450  0.1860  0.6596  0.3149
 3931TIP3    H133284   0.227   2.850   1.441 -0.9234  0.5830 -0.0590
 3931TIP3    H233285   0.127   2.959   1.472  0.7329  1.5293  2.3076
 3932TIP3   OH233286   0.999   1.266   2.840  0.1805  0.2301  0.1814
 3932TIP3    H133287   1.055   1.194   2.869  1.8280  0.9273 -1.1194
 3932TIP3    H233288   1.027   1.341   2.893 -1.9390 -0.1329  1.9637
 3933TIP3   OH233289   0.811   4.957  16.153  0.7697  0.5529 -0.5299
 3933TIP3    H133290   0.764   5.014  16.215  1.1690 -0.2834  0.5907
 3933TIP3    H233291   0.753   4.881  16.143  0.8374  0.5611 -0.9651
 3934TIP3   OH233292   2.708   6.241   1.028 -0.4052  0.0708 -0.0782
 3934TIP3    H133293   2.723   6.147   1.028 -0.7686 -0.0898 -3.4349
 3934TIP3    H233294   2.614   6.251   1.015 -0.2185  0.8397 -1.0211
 3935TIP3   OH233295   5.412   0.484  16.125 -0.1964 -0.2855  0.0215
 3935TIP3    H133296   5.499   0.444  16.115 -0.6698 -1.7741  1.4433
 3935TIP3    H233297   5.358   0.415  16.163 -1.4181  1.3338  1.3799
 3936TIP3   OH233298   1.268   0.160  12.949  0.0925 -0.1582  0.5775
 3936TIP3    H133299   1.241   0.176  12.858 -3.0299 -3.2746  0.7435
 3936TIP3    H233300   1.311   0.075  12.947  1.6266  0.5324  1.8419
 3937TIP3   OH233301   5.765   5.118  12.646 -0.7810  0.4870  1.0103
 3937TIP3    H133302   5.799   5.187  12.590 -1.1441  1.2791  1.7342
 3937TIP3    H233303   5.675   5.144  12.665 -2.0218 -1.7499 -1.1576
 3938TIP3   OH233304   3.468   3.699  16.600 -0.0475 -0.2053  0.0506
 3938TIP3    H133305   3.395   3.679  16.658 -1.2277  0.9914 -0.9885
 3938TIP3    H233306   3.459   3.792  16.580  1.4243 -0.1656 -0.5728
 3939TIP3   OH233307   1.426   0.182  12.348 -0.3606 -0.7135 -0.0151
 3939TIP3    H133308   1.344   0.220  12.378 -2.2137 -3.2595 -1.4949
 3939TIP3    H233309   1.454   0.239  12.277 -1.1781 -0.1941  0.0661
 3940TIP3   OH233310   6.536   2.027   2.244 -0.6154  0.1370  0.3241
 3940TIP3    H133311   6.543   2.115   2.282  6.0597  0.2728 -0.0300
 3940TIP3    H233312   6.544   1.969   2.320 -0.0219 -0.0074  0.1491
 3941TIP3   OH233313   3.762   6.849  11.260  0.2553  0.5751 -0.2191
 3941TIP3    H133314   3.739   6.935  11.224 -1.0931  1.9403  3.4185
 3941TIP3    H233315   3.706   6.787  11.214 -0.4239  1.9521 -1.3223
 3942TIP3   OH233316   3.334   0.979  11.008 -0.1594  0.0629  0.0626
 3942TIP3    H133317   3.260   0.931  11.044  1.1235 -1.0741  1.2689
 3942TIP3    H233318   3.300   1.068  10.994 -1.4788 -0.1912  1.4239
 3943TIP3   OH233319   4.493   4.938   3.371 -0.1235 -0.1290  0.0282
 3943TIP3    H133320   4.538   4.861   3.406 -0.8492  0.7651  3.1704
 3943TIP3    H233321   4.405   4.907   3.351  0.2004 -0.5613 -0.8209
 3944TIP3   OH233322   6.400   5.942   2.273 -0.1144  0.5403 -0.4420
 3944TIP3    H133323   6.366   5.853   2.279  1.3248 -0.0137 -0.0828
 3944TIP3    H233324   6.494   5.933   2.288 -0.0599  2.2349  0.4640
 3945TIP3   OH233325   6.380   2.945  15.334  0.1428  0.1970 -0.3388
 3945TIP3    H133326   6.332   2.933  15.251 -0.5564  1.1665 -0.0991
 3945TIP3    H233327   6.450   2.881  15.330 -0.4347 -0.4160 -1.2740
 3946TIP3   OH233328   2.993   1.667   0.888  0.2001  0.1943  0.3036
 3946TIP3    H133329   3.047   1.614   0.946 -1.4813 -1.4532  0.4352
 3946TIP3    H233330   2.946   1.603   0.834 -2.8218  1.4202  1.2774
 3947TIP3   OH233331   3.358   4.959  12.711 -0.5353 -0.0233 -0.1758
 3947TIP3    H133332   3.265   4.978  12.719 -0.9464 -1.8003 -0.4243
 3947TIP3    H233333   3.399   5.009  12.781 -1.5745  1.3360 -0.5035
 3948TIP3   OH233334   1.466   3.116  13.763  0.2186  0.2648  0.0188
 3948TIP3    H133335   1.505   3.030  13.778 -0.2254 -0.3671 -2.1511
 3948TIP3    H233336   1.537   3.178  13.780  0.4945 -0.4614  1.7675
 3949TIP3   OH233337   2.921   4.666   3.909 -0.3448 -0.3037 -0.1779
 3949TIP3    H133338   2.926   4.724   3.985 -0.8560  1.4113 -1.3891
 3949TIP3    H233339   2.829   4.671   3.882  0.1222  0.2296 -1.7240
 3950TIP3   OH233340   0.988   5.270   4.423 -0.1225 -0.4270 -0.4541
 3950TIP3    H133341   1.026   5.332   4.485 -1.1506  0.2916 -0.5046
 3950TIP3    H233342   0.924   5.321   4.375 -0.2945 -1.3055 -1.1870
 3951TIP3   OH233343   0.742   4.256   1.397  0.4454  0.4721  0.1646
 3951TIP3    H133344   0.747   4.168   1.434  0.1263  1.3573  2.5336
 3951TIP3    H233345   0.665   4.255   1.341  0.3376 -0.7138  0.3207
 3952TIP3   OH233346   1.524   5.584   3.664  0.2024 -0.3125  0.0496
 3952TIP3    H133347   1.469   5.567   3.741  0.0027 -0.7350 -0.1837
 3952TIP3    H233348   1.600   5.527   3.676  0.8393  0.6209  0.6143
 3953TIP3   OH233349   1.281   1.894   5.015  0.3523  0.0685 -0.2789
 3953TIP3    H133350   1.294   1.805   4.983  0.9898  0.4588 -1.1668
 3953TIP3    H233351   1.265   1.885   5.109 -0.1293 -1.0149 -0.4556
 3954TIP3   OH233352   1.455   5.957  13.859  0.3033 -0.3000  0.2294
 3954TIP3    H133353   1.417   6.013  13.791 -0.7904 -0.2047  0.8875
 3954TIP3    H233354   1.491   5.882  13.812 -0.1723 -0.0900 -0.4758
 3955TIP3   OH233355   1.584   4.880   3.931 -0.7487 -0.2664 -0.2960
 3955TIP3    H133356   1.649   4.831   3.982  0.6639  0.8699 -0.9448
 3955TIP3    H233357   1.522   4.912   3.997  1.3828  1.7125  0.9108
 3956TIP3   OH233358   6.856   1.916   1.158  0.4480 -0.0334 -0.3994
 3956TIP3    H133359   6.778   1.925   1.103 -0.1452 -0.4379  0.3606
 3956TIP3    H233360   6.836   1.843   1.217  0.5217  1.2120  1.2434
 3957TIP3   OH233361   3.123   6.053   5.660 -0.3979 -0.5705  0.0793
 3957TIP3    H133362   3.110   6.034   5.567 -2.0901  3.1148 -0.6093
 3957TIP3    H233363   3.038   6.084   5.691  0.7818  0.8945  2.1368
 3958TIP3   OH233364   4.579   2.094  13.385  0.3898 -0.0331 -0.3106
 3958TIP3    H133365   4.574   2.142  13.302  0.3798  0.5588  0.0223
 3958TIP3    H233366   4.667   2.115  13.419 -1.3264  4.1312  2.3740
 3959TIP3   OH233367   3.483   0.794   0.615 -0.3118  0.4082  0.1232
 3959TIP3    H133368   3.520   0.738   0.683  0.9088  3.1948  1.9343
 3959TIP3    H233369   3.446   0.868   0.663 -1.7058  1.2586 -2.1390
 3960TIP3   OH233370   2.461   1.816  16.427  0.3383  0.1699  0.0148
 3960TIP3    H133371   2.537   1.865  16.396  0.0982  0.1121 -0.6903
 3960TIP3    H233372   2.409   1.881  16.475  2.2139 -0.4101  3.1218
 3961TIP3   OH233373   5.840   2.568   4.429  0.2165  0.0782  0.6578
 3961TIP3    H133374   5.895   2.492   4.413 -1.0117 -0.7587  0.2565
 3961TIP3    H233375   5.803   2.554   4.516  0.5787  0.5971  0.8974
 3962TIP3   OH233376   3.406   4.635  13.685  0.0666 -0.1486 -0.7283
 3962TIP3    H133377   3.413   4.558  13.628  0.6922 -1.0944  0.5837
 3962TIP3    H233378   3.315   4.662  13.678  0.0456 -0.4641 -1.8746
 3963TIP3   OH233379   0.617   5.650  12.918 -0.1406 -0.2145  0.0267
 3963TIP3    H133380   0.551   5.585  12.891  0.2474 -0.6330  0.0727
 3963TIP3    H233381   0.684   5.599  12.963  0.4424  0.1385 -0.4222
 3964TIP3   OH233382   6.326   0.308   0.758 -0.2237  0.3886  0.9263
 3964TIP3    H133383   6.235   0.333   0.773 -0.1332  1.3614 -0.0498
 3964TIP3    H233384   6.366   0.385   0.720  0.5704 -0.5987 -0.3249
 3965TIP3   OH233385   3.789   0.605   1.076  0.0986 -0.2400 -0.4183
 3965TIP3    H133386   3.838   0.535   1.034  0.6307 -0.7251  0.9593
 3965TIP3    H233387   3.707   0.563   1.104  0.6797 -0.5084  0.9630
 3966TIP3   OH233388   2.588   4.623   0.016 -0.0550 -0.2235 -0.3263
 3966TIP3    H133389   2.660   4.676  -0.017 -0.8088  1.3262  0.4552
 3966TIP3    H233390   2.580   4.648   0.108 -1.1663 -0.8609 -0.2340
 3967TIP3   OH233391   5.975   5.988   2.245  0.4464  0.5043  0.1934
 3967TIP3    H133392   6.031   5.985   2.323 -1.0988  1.8213  1.4140
 3967TIP3    H233393   5.969   5.897   2.217  3.4417  0.3239 -0.2227
 3968TIP3   OH233394   2.412   3.781   0.093 -0.2123 -0.1295 -0.1270
 3968TIP3    H133395   2.378   3.787   0.183 -0.2446  0.2130 -0.1630
 3968TIP3    H233396   2.433   3.688   0.083 -0.5382 -0.2350  0.1143
 3969TIP3   OH233397   3.402   0.900   2.281 -0.0746  0.4847 -0.0857
 3969TIP3    H133398   3.415   0.807   2.262 -0.2437  0.0777  1.5883
 3969TIP3    H233399   3.491   0.937   2.279  0.3238 -0.2653  1.6928
 3970TIP3   OH233400   3.390   6.652  12.230  0.5732 -0.1307  0.5127
 3970TIP3    H133401   3.410   6.659  12.323 -0.3806 -1.7726  0.8911
 3970TIP3    H233402   3.296   6.668  12.224  0.0232 -2.8462  0.3140
 3971TIP3   OH233403   6.495   4.451  11.662  0.1180 -0.6033  0.1258
 3971TIP3    H133404   6.526   4.360  11.660 -0.4879 -0.8243  0.6267
 3971TIP3    H233405   6.568   4.502  11.627  2.5393 -0.6806  4.4518
 3972TIP3   OH233406   4.038   1.188  15.208 -0.2590  0.2733  0.8391
 3972TIP3    H133407   3.980   1.147  15.272 -2.9730  1.8804 -0.4000
 3972TIP3    H233408   4.026   1.282  15.220  0.7935  0.6370 -0.6066
 3973TIP3   OH233409   0.695   3.056   3.928  0.4540 -0.8751  0.5316
 3973TIP3    H133410   0.751   3.134   3.925 -2.2977  1.3449  2.3115
 3973TIP3    H233411   0.642   3.062   3.848  0.9259 -1.5389  0.1577
 3974TIP3   OH233412   3.703   5.637  11.409 -0.0256 -0.2229 -0.0518
 3974TIP3    H133413   3.777   5.584  11.439  1.1892  1.8979  1.0012
 3974TIP3    H233414   3.741   5.724  11.397 -2.5104  1.1809  1.4736
 3975TIP3   OH233415   5.381   5.637  15.935  0.7347  0.3439 -0.0261
 3975TIP3    H133416   5.422   5.716  15.969 -2.5090  0.9730  3.0102
 3975TIP3    H233417   5.311   5.668  15.878  1.2357 -0.5106 -1.1588
 3976TIP3   OH233418   6.458   3.649  15.686  0.0705 -0.1468 -0.1127
 3976TIP3    H133419   6.452   3.647  15.591 -0.2075  1.7996 -0.1881
 3976TIP3    H233420   6.368   3.638  15.716 -0.2511  1.8012 -0.2175
 3977TIP3   OH233421   2.127   6.432   3.288  0.0736  0.2266 -0.4451
 3977TIP3    H133422   2.094   6.474   3.367  0.6523 -0.8966  0.4222
 3977TIP3    H233423   2.050   6.390   3.249 -0.1625  0.5519 -0.3296
 3978TIP3   OH233424   4.381   1.992   4.181  0.1347  1.0902 -0.5194
 3978TIP3    H133425   4.340   1.941   4.111  0.2040 -1.7140  1.2997
 3978TIP3    H233426   4.322   1.982   4.255  1.9211  0.6546  0.9146
 3979TIP3   OH233427   2.339   6.353   2.984 -0.2296  0.1379  0.1164
 3979TIP3    H133428   2.343   6.399   2.899 -3.2902 -0.9343 -0.7364
 3979TIP3    H233429   2.261   6.388   3.026 -0.7520 -1.8919  0.9237
 3980TIP3   OH233430   1.523   5.366   5.593 -0.0012  0.2418  0.1142
 3980TIP3    H133431   1.598   5.310   5.610  1.5596  1.8048 -1.1783
 3980TIP3    H233432   1.529   5.386   5.499 -0.2826  2.7710  0.5651
 3981TIP3   OH233433   4.786   5.076   1.045 -0.3435  0.4748 -0.0206
 3981TIP3    H133434   4.866   5.127   1.031  2.5110 -3.1329  1.2647
 3981TIP3    H233435   4.802   4.994   0.997 -2.1004 -1.3863  2.3168
 3982TIP3   OH233436   5.663   4.877  12.534  0.5764  0.2077 -0.3242
 3982TIP3    H133437   5.669   4.807  12.599 -0.3090 -1.4515 -1.9503
 3982TIP3    H233438   5.666   4.957  12.586  0.1254 -1.0301  1.7407
 3983TIP3   OH233439   5.000   0.989  12.928  0.1823  0.3223 -0.3723
 3983TIP3    H133440   5.005   0.969  13.022  0.7202  0.6191 -0.3345
 3983TIP3    H233441   4.909   0.969  12.905 -0.2432  1.2093  0.4420
 3984TIP3   OH233442   5.072   2.189  10.205 -0.1626 -0.7467  0.7865
 3984TIP3    H133443   5.154   2.192  10.254  0.5600 -0.0710 -0.4123
 3984TIP3    H233444   5.013   2.248  10.253  0.5462 -0.0464  0.8140
 3985TIP3   OH233445   0.522   6.247  14.962 -0.8734 -0.2330 -0.0601
 3985TIP3    H133446   0.543   6.329  15.007 -0.6725 -1.0830  1.4587
 3985TIP3    H233447   0.498   6.187  15.032 -0.3111 -1.7012 -1.0868
 3986TIP3   OH233448   2.370   4.620  11.913 -0.3110 -0.1634  0.3097
 3986TIP3    H133449   2.426   4.606  11.837  0.1155 -0.3030  0.6478
 3986TIP3    H233450   2.430   4.634  11.986 -0.7199  0.3672  0.5531
 3987TIP3   OH233451   3.713   5.806   5.717  0.0179  0.1202  0.1247
 3987TIP3    H133452   3.755   5.888   5.745 -0.3997  0.0746  0.9291
 3987TIP3    H233453   3.685   5.765   5.799 -0.2645 -0.5668 -0.3095
 3988TIP3   OH233454   3.172   3.090  11.421 -0.6163  0.1085  0.2179
 3988TIP3    H133455   3.131   3.167  11.381 -1.0574 -0.9436 -1.4590
 3988TIP3    H233456   3.216   3.125  11.499 -1.9627  1.8133  0.2968
 3989TIP3   OH233457   1.040   2.312  11.565  0.1316 -1.3256  0.4051
 3989TIP3    H133458   1.062   2.402  11.590 -0.4351 -0.8413 -0.7713
 3989TIP3    H233459   0.984   2.281  11.637 -1.6769  0.1174 -0.2819
 3990TIP3   OH233460   6.581   1.410   5.904 -0.0313  0.4668  0.0065
 3990TIP3    H133461   6.491   1.429   5.878 -0.3981 -0.1271  0.7757
 3990TIP3    H233462   6.578   1.321   5.939  0.6267  0.8169  1.0333
 3991TIP3   OH233463   0.102   4.518  15.342  0.1057  0.3213 -0.1564
 3991TIP3    H133464   0.180   4.467  15.363  0.0943  0.4020  0.0842
 3991TIP3    H233465   0.135   4.604  15.317  0.0711  0.4953  0.3811
 3992TIP3   OH233466   3.119   3.323   4.914  0.2142 -0.3774  0.0898
 3992TIP3    H133467   3.095   3.231   4.902  0.9151 -0.5798  0.1796
 3992TIP3    H233468   3.044   3.361   4.958 -0.0315 -0.9467  0.1779
 3993TIP3   OH233469   5.707   5.658  15.757 -0.3776  0.5850  0.0723
 3993TIP3    H133470   5.692   5.580  15.810  1.8683 -0.5531 -0.8439
 3993TIP3    H233471   5.777   5.705  15.803  1.1706 -0.1085 -1.4494
 3994TIP3   OH233472   1.061   5.948  10.778 -0.2358  0.3493  0.1190
 3994TIP3    H133473   1.081   5.856  10.765 -1.7125  0.0332 -0.1098
 3994TIP3    H233474   0.992   5.967  10.715 -0.4239  1.4452  0.6215
 3995TIP3   OH233475   0.339   0.091   4.025 -0.1593 -0.6636  0.6847
 3995TIP3    H133476   0.367   0.178   4.055 -0.4688 -0.9254  1.7781
 3995TIP3    H233477   0.409   0.063   3.967  0.5872 -0.2186  1.3384
 3996TIP3   OH233478   3.784   0.667  12.834 -0.1925  0.6363 -0.0348
 3996TIP3    H133479   3.829   0.624  12.907 -1.0582  0.2078  0.2643
 3996TIP3    H233480   3.794   0.760  12.850  2.6461  0.6321 -1.2548
 3997TIP3   OH233481   0.459   5.712   5.415  0.6319  0.3876 -0.1438
 3997TIP3    H133482   0.494   5.655   5.483  1.6829 -0.4035 -1.3070
 3997TIP3    H233483   0.367   5.722   5.438  0.6840 -0.8385  0.7222
 3998TIP3   OH233484   2.453   2.171   5.317  0.3767  0.6823  0.1989
 3998TIP3    H133485   2.504   2.223   5.255 -1.1873 -2.4240 -4.1691
 3998TIP3    H233486   2.503   2.089   5.326 -1.2617 -0.3913 -0.0823
 3999TIP3   OH233487   4.045   0.463   0.676  0.5473  0.2924  0.7525
 3999TIP3    H133488   4.005   0.421   0.599  2.4317 -1.0429  0.4417
 3999TIP3    H233489   4.036   0.556   0.659 -1.2100  0.0443  0.0773
 4000TIP3   OH233490   0.450   3.934   5.875 -0.1183  0.2697 -0.4468
 4000TIP3    H133491   0.402   3.899   5.950 -1.1615 -0.2958 -1.3338
 4000TIP3    H233492   0.542   3.926   5.899 -0.4199 -0.4457  0.5279
 4001TIP3   OH233493   5.227   4.519   5.867  0.5048 -0.1904 -0.1896
 4001TIP3    H133494   5.291   4.468   5.917  0.9837  2.1122  1.7446
 4001TIP3    H233495   5.147   4.514   5.918  0.4147  0.5289 -0.2498
 4002TIP3   OH233496   6.720   6.597  14.258 -0.1329  0.2414 -0.1710
 4002TIP3    H133497   6.669   6.566  14.184 -0.9119 -0.2367  0.5422
 4002TIP3    H233498   6.799   6.542  14.258  0.1877  0.6829 -1.0129
 4003TIP3   OH233499   1.043   4.036   0.369  0.1972 -0.2240  0.6219
 4003TIP3    H133500   0.950   4.013   0.373  0.0461  0.5188  2.4577
 4003TIP3    H233501   1.083   3.964   0.320 -1.3060 -0.6426 -0.0699
 4004TIP3   OH233502   4.900   2.594   1.929 -0.0764  0.4096 -0.1880
 4004TIP3    H133503   4.969   2.613   1.866 -0.7564  0.6276 -0.8764
 4004TIP3    H233504   4.905   2.499   1.942 -0.7401  0.1653 -1.5505
 4005TIP3   OH233505   6.494   6.506  10.395 -0.0717 -0.0894  0.4287
 4005TIP3    H133506   6.401   6.519  10.413 -0.3544  1.1585 -1.6188
 4005TIP3    H233507   6.510   6.413  10.414 -2.2782 -0.8827 -1.2901
 4006TIP3   OH233508   1.811   5.455   3.626  0.0235  0.1247 -0.1604
 4006TIP3    H133509   1.761   5.389   3.675 -0.3239  0.2941 -0.2814
 4006TIP3    H233510   1.863   5.500   3.693 -0.0511  0.0037 -0.0193
 4007TIP3   OH233511   3.421   1.374  15.198  0.2226  0.6137 -0.0857
 4007TIP3    H133512   3.354   1.313  15.228 -1.1746  2.0283 -0.1561
 4007TIP3    H233513   3.498   1.320  15.180 -1.3384 -1.2856 -1.4305
 4008TIP3   OH233514   1.546   5.558  13.866 -0.3012  0.0823 -0.3849
 4008TIP3    H133515   1.528   5.543  13.773 -0.9939  0.1937 -0.2696
 4008TIP3    H233516   1.512   5.480  13.910 -3.4533  1.6040  0.1652
 4009TIP3   OH233517   2.898   3.301  14.912  0.2526 -0.0591 -0.2418
 4009TIP3    H133518   2.874   3.385  14.950  0.8821  0.1848 -0.3727
 4009TIP3    H233519   2.881   3.238  14.982 -0.0977  0.1902 -0.0963
 4010TIP3   OH233520   2.294   2.514   2.817 -0.2615 -0.2961  0.0490
 4010TIP3    H133521   2.234   2.485   2.748 -0.4072  0.6984 -0.2541
 4010TIP3    H233522   2.362   2.447   2.819 -1.3021 -1.3750  0.3030
 4011TIP3   OH233523   6.793   6.021   4.464  0.4613  0.2939  0.4660
 4011TIP3    H133524   6.839   5.998   4.383  1.2073 -0.6658  1.1383
 4011TIP3    H233525   6.779   6.115   4.457  0.2787  0.1904 -0.8964
 4012TIP3   OH233526   3.050   4.916   2.652  0.7045  0.2414 -0.1237
 4012TIP3    H133527   3.014   4.859   2.720 -1.4518  1.8735  0.2100
 4012TIP3    H233528   2.978   4.975   2.629  2.1109  1.3005 -2.1264
 4013TIP3   OH233529   5.743   1.076   3.558  0.2114 -0.5374 -0.0429
 4013TIP3    H133530   5.746   1.171   3.571  0.6036 -0.5585  0.0481
 4013TIP3    H233531   5.704   1.042   3.639 -0.4469 -0.4125 -0.3063
 4014TIP3   OH233532   3.718   0.712   1.926 -0.3199 -0.1160 -0.4459
 4014TIP3    H133533   3.804   0.671   1.923  0.1995  0.9814 -2.7045
 4014TIP3    H233534   3.703   0.741   1.836 -2.8999  0.0509 -0.0265
 4015TIP3   OH233535   1.063   2.052   2.619  0.0411 -0.1174  0.4492
 4015TIP3    H133536   0.975   2.053   2.655  0.0895  2.4241  0.6564
 4015TIP3    H233537   1.120   2.031   2.693 -0.1755  1.1840  1.0015
 4016TIP3   OH233538   0.722   6.557   5.095 -0.1502 -0.1046 -0.4417
 4016TIP3    H133539   0.714   6.464   5.074 -1.0136 -0.2990  0.6365
 4016TIP3    H233540   0.799   6.586   5.048  1.2058 -1.7963  0.6222
 4017TIP3   OH233541   1.764   6.675  12.267 -0.2727 -0.1470 -0.2157
 4017TIP3    H133542   1.853   6.704  12.286  0.4289 -1.7665 -0.8743
 4017TIP3    H233543   1.752   6.690  12.174 -0.5336 -0.3223 -0.2135
 4018TIP3   OH233544   4.048   5.211   1.500 -0.0989 -0.0254  0.1685
 4018TIP3    H133545   4.115   5.157   1.458  0.1275  1.3068 -1.2534
 4018TIP3    H233546   3.998   5.150   1.553  1.8602 -1.1727  0.8173
 4019TIP3   OH233547   4.206   0.278  11.535  0.9319  0.5208  0.5172
 4019TIP3    H133548   4.246   0.192  11.549  0.3717 -0.0058 -0.8951
 4019TIP3    H233549   4.189   0.312  11.623  0.3868 -1.1801  1.1058
 4020TIP3   OH233550   3.169   2.184   2.661  0.3880  0.3600 -0.0096
 4020TIP3    H133551   3.158   2.244   2.735  0.7842 -0.5218  0.7913
 4020TIP3    H233552   3.155   2.097   2.699  1.7535 -0.1889 -0.7069
 4021TIP3   OH233553   5.795   3.439  15.260 -0.2858  0.2922  0.0712
 4021TIP3    H133554   5.722   3.426  15.321 -0.8372 -0.6100 -0.7624
 4021TIP3    H233555   5.840   3.355  15.258 -0.2311  0.3340 -0.7061
 4022TIP3   OH233556   2.893   3.697  15.507 -0.4577  0.2883 -0.6583
 4022TIP3    H133557   2.954   3.648  15.453  0.8836  0.3065  0.7547
 4022TIP3    H233558   2.860   3.633  15.571 -0.5617  0.6688 -0.3231
 4023TIP3   OH233559   6.147   2.088   3.051 -0.0235  0.1019  0.4953
 4023TIP3    H133560   6.124   2.146   2.978  1.4118  0.2906  0.1709
 4023TIP3    H233561   6.242   2.093   3.057 -0.0538 -0.5157  1.8950
 4024TIP3   OH233562   3.770   3.333  10.670  0.1710  0.6024 -0.0511
 4024TIP3    H133563   3.788   3.240  10.683  2.0606  1.0802  1.1635
 4024TIP3    H233564   3.856   3.375  10.671 -0.7225  2.6718  2.2162
 4025TIP3   OH233565   2.184   5.382  10.424 -0.2966  0.1325 -0.4078
 4025TIP3    H133566   2.131   5.423  10.492 -1.1326  2.2053 -2.2000
 4025TIP3    H233567   2.139   5.300  10.405 -0.6124  0.0078  0.7806
 4026TIP3   OH233568   4.755   2.896  13.508 -0.0203 -0.1151 -0.5020
 4026TIP3    H133569   4.694   2.872  13.438  1.0826 -2.3484 -0.7810
 4026TIP3    H233570   4.820   2.826  13.509  0.8675  0.6313  1.7793
 4027TIP3   OH233571   4.812   1.726  16.535 -0.0873 -0.3459 -0.0495
 4027TIP3    H133572   4.720   1.713  16.513  0.3102 -0.7458 -1.6047
 4027TIP3    H233573   4.860   1.689  16.461  1.2686  2.5455 -0.7815
 4028TIP3   OH233574   1.589   6.567   6.573 -0.5946  0.6539 -0.1504
 4028TIP3    H133575   1.494   6.579   6.568 -0.7475 -0.6191 -0.6398
 4028TIP3    H233576   1.605   6.483   6.531  0.6059  0.1968  1.1525
 4029TIP3   OH233577   0.133   1.743   3.532 -0.1735 -0.4096 -0.1507
 4029TIP3    H133578   0.142   1.773   3.623 -0.8512 -0.2485 -0.1313
 4029TIP3    H233579   0.205   1.681   3.520  0.6441  0.4567  0.1281
 4030TIP3   OH233580   4.176   4.294  10.884  0.3220 -0.1406  0.0231
 4030TIP3    H133581   4.113   4.361  10.859  0.5335  0.1379  0.2397
 4030TIP3    H233582   4.143   4.214  10.842  0.5200  0.2584 -0.9285
 4031TIP3   OH233583   1.595   0.706   1.002  0.1704 -0.1808 -0.5350
 4031TIP3    H133584   1.583   0.673   0.913  0.5893  1.7265 -1.3545
 4031TIP3    H233585   1.678   0.754   0.998  0.3814 -0.3871  0.9998
 4032TIP3   OH233586   2.641   6.084   2.508  0.4685  0.0465 -0.0702
 4032TIP3    H133587   2.584   6.036   2.568  0.4629  0.9200  0.6392
 4032TIP3    H233588   2.724   6.091   2.554  0.5854  0.3965 -0.3292
 4033TIP3   OH233589   0.156   6.360   5.548  0.1530 -0.6871  0.0870
 4033TIP3    H133590   0.164   6.374   5.643 -0.7087  0.8004 -0.0331
 4033TIP3    H233591   0.235   6.400   5.512  0.2637 -0.8557  0.1405
 4034TIP3   OH233592   1.991   6.774   3.345 -0.1531 -0.3083 -0.3805
 4034TIP3    H133593   1.936   6.765   3.423 -0.9127 -1.9430 -1.0530
 4034TIP3    H233594   2.058   6.838   3.370 -2.4170  1.9404  0.4159
 4035TIP3   OH233595   1.681   6.787  12.688 -0.0649  0.7447 -0.0452
 4035TIP3    H133596   1.718   6.875  12.684 -0.3400  0.8282 -1.5583
 4035TIP3    H233597   1.729   6.738  12.621  0.6328 -0.5014  1.3100
 4036TIP3   OH233598   1.192   0.120  14.884  0.1416  0.0733  0.2313
 4036TIP3    H133599   1.257   0.084  14.824 -2.0641  0.7008 -2.7758
 4036TIP3    H233600   1.159   0.044  14.932  0.7080 -0.7544 -0.6618
 4037TIP3   OH233601   1.663   5.100   4.888 -0.6006 -0.0502 -0.1924
 4037TIP3    H133602   1.726   5.108   4.959 -1.1211  2.9748  0.0278
 4037TIP3    H233603   1.716   5.083   4.810  0.0388 -2.4077  0.6553
 4038TIP3   OH233604   4.010   3.754   5.660  0.1215  0.0751  0.0800
 4038TIP3    H133605   3.923   3.759   5.699  0.2252  2.0706  0.1547
 4038TIP3    H233606   3.994   3.722   5.571 -0.4068 -1.7471  0.7757
 4039TIP3   OH233607   2.907   1.541  12.987 -0.7699 -0.9983  0.4591
 4039TIP3    H133608   2.946   1.479  13.049  0.2080 -0.6868  0.1722
 4039TIP3    H233609   2.967   1.542  12.913 -1.1651 -0.2669  0.1373
 4040TIP3   OH233610   5.469   6.011  11.712  0.1543 -0.3330 -0.0669
 4040TIP3    H133611   5.463   6.083  11.774 -0.3101  0.0004 -0.4911
 4040TIP3    H233612   5.560   6.012  11.681 -0.3456  1.4499 -1.6823
 4041TIP3   OH233613   4.270   5.170   2.081  0.5041  0.1118 -0.6504
 4041TIP3    H133614   4.325   5.248   2.079  1.5087 -0.5107  0.9105
 4041TIP3    H233615   4.331   5.098   2.098 -0.7655 -0.6230  1.0111
 4042TIP3   OH233616   5.122   4.388  16.478  0.6134 -0.6992 -0.0586
 4042TIP3    H133617   5.130   4.295  16.497  0.4271 -0.8845 -0.8229
 4042TIP3    H233618   5.033   4.397  16.442  0.0602  0.0329  1.4058
 4043TIP3   OH233619   0.927   6.632   1.257 -0.2386 -0.5118 -0.2487
 4043TIP3    H133620   0.896   6.577   1.329 -0.0541  0.5917  0.6999
 4043TIP3    H233621   0.959   6.570   1.192 -2.4033 -1.6186 -0.3439
 4044TIP3   OH233622   0.996   0.835   5.531  0.3761  0.1382  0.5265
 4044TIP3    H133623   1.067   0.876   5.581 -2.4187  1.8303  3.4825
 4044TIP3    H233624   0.980   0.752   5.577  1.5096 -1.1300 -1.2454
 4045TIP3   OH233625   0.228   2.670   3.706  0.3948 -0.3766 -0.0096
 4045TIP3    H133626   0.286   2.740   3.676  0.2183 -0.2870 -0.1406
 4045TIP3    H233627   0.201   2.625   3.627  0.6340 -0.6945  0.0882
 4046TIP3   OH233628   5.689   6.662   5.448  0.2315 -0.1922 -0.1053
 4046TIP3    H133629   5.673   6.632   5.359  1.8074 -0.3011 -0.3738
 4046TIP3    H233630   5.670   6.755   5.446 -3.7029 -0.7954  0.4848
 4047TIP3   OH233631   4.659   4.776   1.629  0.3026  0.0959  0.1453
 4047TIP3    H133632   4.593   4.721   1.671  2.1273 -0.7677  2.0949
 4047TIP3    H233633   4.616   4.860   1.617 -1.9229 -1.1207 -1.0428
 4048TIP3   OH233634   3.884   1.147   3.028 -0.7804 -0.2416 -0.1946
 4048TIP3    H133635   3.967   1.115   3.063 -0.8844 -0.9188 -0.5541
 4048TIP3    H233636   3.817   1.106   3.083 -0.8568  1.5688  1.1366
 4049TIP3   OH233637   3.617   1.185  11.772 -0.3549 -0.0857  0.4220
 4049TIP3    H133638   3.569   1.102  11.764 -0.5502 -0.0866  1.5103
 4049TIP3    H233639   3.549   1.251  11.781 -0.1870 -0.1089  2.1954
 4050TIP3   OH233640   4.118   6.293   2.187  0.4779 -0.6241 -0.2113
 4050TIP3    H133641   4.183   6.291   2.117  0.2556  1.7485 -0.5713
 4050TIP3    H233642   4.083   6.204   2.190  3.2229 -1.8155 -0.4634
 4051TIP3   OH233643   1.221   0.363  16.096  0.2056  0.3798  0.1943
 4051TIP3    H133644   1.206   0.455  16.118  0.0118  0.4991 -0.4245
 4051TIP3    H233645   1.316   0.352  16.099  0.1427  0.0225  2.5463
 4052TIP3   OH233646   2.974   6.582  15.516  0.2468 -0.5069 -0.1688
 4052TIP3    H133647   2.984   6.597  15.611  1.2396 -0.5462 -0.2493
 4052TIP3    H233648   2.961   6.487  15.509  2.8776 -0.9505 -0.2033
 4053TIP3   OH233649   6.369   6.335   4.907  0.6266 -0.1784 -0.0404
 4053TIP3    H133650   6.358   6.430   4.917  0.1244 -0.1547 -0.7624
 4053TIP3    H233651   6.363   6.320   4.813  2.0132 -0.7775 -0.0568
 4054TIP3   OH233652   6.293   5.196   0.750  0.3101 -0.1520  0.3438
 4054TIP3    H133653   6.249   5.112   0.738  0.1568 -0.0981  0.5196
 4054TIP3    H233654   6.289   5.238   0.664 -0.6554  0.1772  0.5337
 4055TIP3   OH233655   0.751   1.565   2.448 -0.5717  0.2736  0.3025
 4055TIP3    H133656   0.686   1.555   2.517 -1.3541  0.1721 -0.4220
 4055TIP3    H233657   0.811   1.492   2.460 -2.2149 -1.3244 -0.6867
 4056TIP3   OH233658   6.048   6.756   0.008  0.5214 -0.2632  0.1016
 4056TIP3    H133659   6.043   6.672   0.054  0.2169 -0.3666 -0.1135
 4056TIP3    H233660   6.118   6.744  -0.056  1.0237 -0.0799  0.6137
 4057TIP3   OH233661   4.097   4.946  12.692  0.3473  0.5190 -0.5728
 4057TIP3    H133662   4.152   4.869  12.703  1.1855  0.7951 -2.4256
 4057TIP3    H233663   4.103   4.992  12.776  1.4223 -0.4157 -0.1115
 4058TIP3   OH233664   4.498   1.135   4.489 -0.2549 -0.5461  0.5461
 4058TIP3    H133665   4.585   1.103   4.515  1.3420  0.9545 -2.3902
 4058TIP3    H233666   4.448   1.055   4.472  0.3506 -1.4449  2.6444
 4059TIP3   OH233667   5.967   5.303  11.179 -0.4851 -0.4195 -0.0910
 4059TIP3    H133668   5.956   5.304  11.083 -0.4618 -1.1755 -0.1099
 4059TIP3    H233669   6.034   5.236  11.194 -0.5849 -0.3956  0.4606
 4060TIP3   OH233670   0.615   5.527  10.503  0.2139  0.0210 -0.4931
 4060TIP3    H133671   0.563   5.573  10.569 -1.1233 -4.2944  1.8485
 4060TIP3    H233672   0.702   5.520  10.542 -0.3492 -1.7697  0.5568
 4061TIP3   OH233673   5.898   5.259  10.222  0.3947 -0.2072 -0.0596
 4061TIP3    H133674   5.920   5.336  10.169  1.0174  0.9178  1.7380
 4061TIP3    H233675   5.950   5.188  10.184  0.6932  0.5084 -1.0433
 4062TIP3   OH233676   5.209   5.739  15.733  0.0616 -0.3869  0.1902
 4062TIP3    H133677   5.164   5.800  15.676  1.3760 -1.4997 -2.1649
 4062TIP3    H233678   5.247   5.673  15.675  0.1170 -2.5478  2.4700
 4063TIP3   OH233679   4.027   3.474  13.254 -0.2382 -0.5772  0.5500
 4063TIP3    H133680   4.060   3.502  13.169  2.2199 -2.0316  0.9152
 4063TIP3    H233681   3.950   3.528  13.269 -0.3965  0.1480 -2.2968
 4064TIP3   OH233682   0.314   3.863   2.028 -0.1512 -0.2323  0.1616
 4064TIP3    H133683   0.388   3.903   2.072 -0.1243  0.5927 -0.6041
 4064TIP3    H233684   0.332   3.769   2.032  0.2663 -0.1197  1.1331
 4065TIP3   OH233685   5.906   5.765  15.904 -0.1764 -0.0972  0.1612
 4065TIP3    H133686   5.924   5.671  15.908 -0.5328 -0.1817 -0.2048
 4065TIP3    H233687   5.884   5.789  15.995 -1.2458 -0.6054  0.0575
 4066TIP3   OH233688   4.925   4.712   1.147  0.3253 -0.5239 -0.2042
 4066TIP3    H133689   4.864   4.761   1.092 -0.8785 -0.9479  0.7021
 4066TIP3    H233690   4.961   4.778   1.206  0.6904 -0.2823 -0.6962
 4067TIP3   OH233691   6.373   5.256  16.702  0.0930 -0.4790 -0.0609
 4067TIP3    H133692   6.434   5.257  16.629  0.6482 -0.6942  0.3891
 4067TIP3    H233693   6.294   5.299  16.669 -0.5109 -2.5661 -1.4908
 4068TIP3   OH233694   4.912   2.919   5.745 -0.4000  0.3106 -0.3610
 4068TIP3    H133695   4.886   2.943   5.834 -0.1709 -0.8693  0.0539
 4068TIP3    H233696   4.830   2.913   5.696 -0.6061  0.1448 -0.0006
 4069TIP3   OH233697   1.832   1.017   4.841  0.2914 -0.9740  0.1162
 4069TIP3    H133698   1.882   0.955   4.894  1.7661 -1.2922 -1.5509
 4069TIP3    H233699   1.810   0.969   4.762 -0.7582 -0.1268 -0.1309
 4070TIP3   OH233700   3.108   0.242   4.087  0.5360  0.3213 -0.9803
 4070TIP3    H133701   3.032   0.297   4.103  1.2802  1.3639 -0.9506
 4070TIP3    H233702   3.087   0.195   4.006  0.1649  1.1631 -1.3851
 4071TIP3   OH233703   1.544   3.537   3.320  0.7157  0.9868  0.1905
 4071TIP3    H133704   1.605   3.470   3.349 -0.5056  0.6813  2.2605
 4071TIP3    H233705   1.468   3.488   3.287 -0.6079  1.2134  2.6365
 4072TIP3   OH233706   5.298   4.681  16.852 -0.2235 -0.0426  0.3621
 4072TIP3    H133707   5.281   4.730  16.932 -1.1692 -1.4620  1.0757
 4072TIP3    H233708   5.217   4.632  16.836  0.5036 -1.0017 -0.5628
 4073TIP3   OH233709   6.219   5.447  14.333  0.1086 -0.3458 -0.0306
 4073TIP3    H133710   6.199   5.372  14.278 -0.5447 -0.8464  0.8605
 4073TIP3    H233711   6.260   5.410  14.411  1.7818  0.4220 -0.4933
 4074TIP3   OH233712   5.390   2.080   3.524 -0.1204  0.4766 -0.7147
 4074TIP3    H133713   5.312   2.027   3.506 -0.7278  1.5469 -1.3382
 4074TIP3    H233714   5.459   2.016   3.540 -0.9044 -0.5051 -1.1515
 4075TIP3   OH233715   4.690   1.190   4.204 -0.6393  0.7180 -0.9302
 4075TIP3    H133716   4.780   1.224   4.212 -0.1951 -0.5013 -0.6268
 4075TIP3    H233717   4.635   1.259   4.242  0.4129  0.2556  1.6016
 4076TIP3   OH233718   6.439   4.162  11.832  0.3220 -0.6390 -0.1990
 4076TIP3    H133719   6.381   4.199  11.898  1.0927 -1.8430  1.2342
 4076TIP3    H233720   6.522   4.207  11.845  0.3244 -0.4950 -0.7172
 4077TIP3   OH233721   1.233   5.534  12.227 -0.0228  0.1346  0.1403
 4077TIP3    H133722   1.269   5.450  12.200  1.1025  0.0138  1.8083
 4077TIP3    H233723   1.171   5.512  12.297 -1.1181  0.5834 -0.6593
 4078TIP3   OH233724   1.769   1.945   1.173  0.0229 -0.4338  0.1484
 4078TIP3    H133725   1.708   1.933   1.246 -0.6283  0.3810 -0.2460
 4078TIP3    H233726   1.836   2.005   1.208  0.4159 -1.0485  0.4683
 4079TIP3   OH233727   0.229   1.662   0.013 -0.2846  0.2072  0.1084
 4079TIP3    H133728   0.166   1.721   0.055  0.2706 -0.7542  2.4744
 4079TIP3    H233729   0.193   1.646  -0.074 -2.6648  0.6520  0.9374
 4080TIP3   OH233730   0.130   6.791   1.907  0.4727 -0.0490 -0.2215
 4080TIP3    H133731   0.131   6.868   1.851 -1.4478  0.3046  0.1613
 4080TIP3    H233732   0.172   6.819   1.988  4.1783 -0.8367 -1.6679
 4081TIP3   OH233733   3.812   6.645   5.501  0.3906  0.3454 -0.1127
 4081TIP3    H133734   3.842   6.554   5.500  1.2182  0.5895  0.7216
 4081TIP3    H233735   3.804   6.666   5.595  1.5115  1.5408 -0.2641
 4082TIP3   OH233736   1.470   1.545  15.945  0.0098  0.0838 -0.2033
 4082TIP3    H133737   1.549   1.561  15.998  0.6499  1.9232 -1.6255
 4082TIP3    H233738   1.461   1.449  15.944  2.3665 -0.1946 -0.2023
 4083TIP3   OH233739   4.561   3.561   4.930  0.5907 -0.5467 -0.2830
 4083TIP3    H133740   4.528   3.503   4.861 -1.2281  4.6906 -4.5473
 4083TIP3    H233741   4.652   3.577   4.905  0.7243 -0.6632  0.1354
 4084TIP3   OH233742   5.233   2.805   3.757  0.4490  0.1185  0.1413
 4084TIP3    H133743   5.178   2.834   3.830  0.0662  3.6919 -1.3548
 4084TIP3    H233744   5.314   2.775   3.799 -1.2809 -2.1427  2.1839
 4085TIP3   OH233745   2.434   4.919  15.077 -0.1160 -0.4791  0.2404
 4085TIP3    H133746   2.442   4.896  14.984 -0.0432  1.0555 -0.1564
 4085TIP3    H233747   2.476   4.846  15.123  0.2049 -1.0718 -0.9421
 4086TIP3   OH233748   4.474   2.504   4.203  0.1059  0.3597 -0.2436
 4086TIP3    H133749   4.426   2.480   4.283 -0.8774 -0.1084 -0.9568
 4086TIP3    H233750   4.512   2.422   4.173 -0.6803  0.2616 -0.9989
 4087TIP3   OH233751   0.588   1.260   3.907 -0.0541  0.1391  0.0763
 4087TIP3    H133752   0.533   1.185   3.884  0.0003 -0.2100  1.0448
 4087TIP3    H233753   0.643   1.274   3.829  0.2951 -1.1463  0.0680
 4088TIP3   OH233754   6.295   1.677   0.377  0.5606 -0.2768 -0.1617
 4088TIP3    H133755   6.202   1.671   0.399  0.6802 -1.4972  0.0915
 4088TIP3    H233756   6.298   1.730   0.298 -0.0441  2.6344  1.6181
 4089TIP3   OH233757   2.613   0.064  16.516  0.2346 -0.1166 -0.5685
 4089TIP3    H133758   2.685   0.088  16.458  0.3105 -1.5475 -1.1021
 4089TIP3    H233759   2.652   0.067  16.604  0.5592  0.4572 -0.7239
 4090TIP3   OH233760   1.130   1.056   6.534  0.3033 -0.0312 -0.5222
 4090TIP3    H133761   1.101   1.082   6.621  1.2047 -1.6809  0.2967
 4090TIP3    H233762   1.062   0.996   6.503 -0.3501  1.0408 -1.2730
 4091TIP3   OH233763   3.621   0.024   4.567 -0.0673 -0.4034 -0.4714
 4091TIP3    H133764   3.600  -0.052   4.622 -0.3328 -0.6036 -0.8401
 4091TIP3    H233765   3.714   0.039   4.582 -0.3829  0.3032  0.9618
 4092TIP3   OH233766   4.232   2.807  14.843  0.4242  0.1135 -0.1261
 4092TIP3    H133767   4.193   2.756  14.914  1.2404 -2.6107 -1.4757
 4092TIP3    H233768   4.174   2.792  14.768  1.3307  0.2131 -0.8603
 4093TIP3   OH233769   5.714   2.688   2.613 -0.6302  0.3623 -0.3707
 4093TIP3    H133770   5.704   2.624   2.684  1.2814 -0.2088 -0.5834
 4093TIP3    H233771   5.654   2.759   2.637 -0.3688 -0.0238  1.5727
 4094TIP3   OH233772   6.851   3.309  15.969 -0.0422  0.8072  0.2412
 4094TIP3    H133773   6.826   3.219  15.947 -0.0867  1.0330 -0.6707
 4094TIP3    H233774   6.811   3.362  15.900 -0.9018  1.6451  1.3412
 4095TIP3   OH233775   2.536   5.010  16.169  0.2814  0.0072 -0.0443
 4095TIP3    H133776   2.460   5.031  16.223 -0.5024 -1.7927 -0.3850
 4095TIP3    H233777   2.588   5.091  16.169 -2.2901  1.7901 -0.9630
 4096TIP3   OH233778   4.115   4.083  10.710 -0.7252 -0.6999 -0.1587
 4096TIP3    H133779   4.148   4.112  10.625 -0.5169  0.5234  0.3161
 4096TIP3    H233780   4.022   4.066  10.695 -0.6444 -0.6975 -0.6810
 4097TIP3   OH233781   0.592   1.427   5.442  0.5789  0.1360  0.3599
 4097TIP3    H133782   0.642   1.492   5.491 -0.4353  0.2798  1.2174
 4097TIP3    H233783   0.516   1.407   5.497 -0.8706  0.6791 -1.3555
 4098TIP3   OH233784   0.030   6.003   4.145  0.3900  0.0896  0.2669
 4098TIP3    H133785   0.003   5.926   4.095  0.5660 -1.6660  2.7423
 4098TIP3    H233786  -0.050   6.055   4.152 -0.0372 -0.4533 -0.3789
 4099TIP3   OH233787   1.398   2.061   5.410 -0.1805  0.2332  0.3788
 4099TIP3    H133788   1.486   2.027   5.396 -0.0734  0.9840 -0.9956
 4099TIP3    H233789   1.405   2.155   5.390 -1.7688 -0.1214 -2.3775
 4100TIP3   OH233790   1.361   1.801  16.888  0.0587 -0.8531 -0.1260
 4100TIP3    H133791   1.354   1.705  16.890  1.1387 -0.9405 -0.0289
 4100TIP3    H233792   1.322   1.826  16.804 -0.4447 -1.3525 -0.0499
 4101TIP3   OH233793   2.146   4.109  16.779  0.8151 -0.2336  0.2091
 4101TIP3    H133794   2.235   4.133  16.753  0.7850 -0.3548 -0.0061
 4101TIP3    H233795   2.090   4.160  16.722  0.7336  0.5237  0.9409
 4102TIP3   OH233796   4.326   1.117  15.856 -0.0935  0.1489  0.3624
 4102TIP3    H133797   4.401   1.057  15.849 -0.4935 -0.2887 -0.2444
 4102TIP3    H233798   4.358   1.198  15.816  0.5279  0.4384  1.3959
 4103TIP3   OH233799   5.401   6.601  15.255  0.3035 -0.0223  0.2421
 4103TIP3    H133800   5.479   6.546  15.246  0.6852  0.4322  0.6841
 4103TIP3    H233801   5.349   6.557  15.322  0.0482 -0.4731 -0.2490
 4104TIP3   OH233802   2.183   2.466  15.685  0.2813  0.5204 -0.1265
 4104TIP3    H133803   2.188   2.418  15.767  1.9931  2.5601  1.0909
 4104TIP3    H233804   2.264   2.443  15.639 -0.8332 -0.8842 -1.4574
 4105TIP3   OH233805   3.947   0.162   2.916  0.1721  0.1454  0.6019
 4105TIP3    H133806   3.854   0.160   2.939 -0.1754 -1.2937 -0.7563
 4105TIP3    H233807   3.948   0.178   2.822  1.4812  3.8234  1.0936
 4106TIP3   OH233808   1.950   2.434   2.778 -0.2595  0.8704  0.5146
 4106TIP3    H133809   1.991   2.497   2.838 -0.7835  0.5629  1.2058
 4106TIP3    H233810   1.953   2.477   2.693  2.4849  0.4301  0.2960
 4107TIP3   OH233811   3.534   4.268  12.956 -0.0147  0.3458  0.0414
 4107TIP3    H133812   3.580   4.324  13.019  1.8815  1.1836 -1.9517
 4107TIP3    H233813   3.536   4.318  12.874 -2.5596 -0.6213 -0.7026
 4108TIP3   OH233814   2.328   2.286  11.504 -0.4355  0.4838 -0.2089
 4108TIP3    H133815   2.366   2.298  11.417  1.6855 -0.8975  0.4454
 4108TIP3    H233816   2.240   2.321  11.497 -1.0685 -1.4001 -3.4951
 4109TIP3   OH233817   2.383   3.302  11.876  0.9593 -0.1394 -0.0027
 4109TIP3    H133818   2.288   3.302  11.888  1.1446  1.2381  1.8779
 4109TIP3    H233819   2.418   3.298  11.965  2.6833 -0.7394 -0.6679
 4110TIP3   OH233820   0.132   6.287   5.111 -0.6704  0.8009  0.6486
 4110TIP3    H133821   0.069   6.357   5.095 -3.2264 -0.8488  2.6881
 4110TIP3    H233822   0.179   6.314   5.190 -0.4579  0.9631  0.4685
 4111TIP3   OH233823   5.220   6.042   5.329 -0.2077  0.2899 -0.3502
 4111TIP3    H133824   5.282   6.068   5.261 -1.3579  1.3989 -1.0192
 4111TIP3    H233825   5.211   6.119   5.384  0.5143 -0.5168  0.9323
 4112TIP3   OH233826   5.592   2.356  15.358  0.1625  0.2787  0.1274
 4112TIP3    H133827   5.672   2.381  15.312  0.3622 -0.6339 -0.0386
 4112TIP3    H233828   5.618   2.352  15.450  0.5603 -0.9219 -0.0194
 4113TIP3   OH233829   2.706   3.395  13.007  0.7153 -0.4296  0.4436
 4113TIP3    H133830   2.703   3.465  13.072 -0.3639 -1.0179  1.0497
 4113TIP3    H233831   2.769   3.332  13.043  2.0012  0.3836 -0.2983
 4114TIP3   OH233832   4.543   3.113  12.055  0.1548 -0.8599  0.3365
 4114TIP3    H133833   4.468   3.162  12.020 -1.0493 -3.5713 -1.2225
 4114TIP3    H233834   4.536   3.122  12.150 -0.5569  1.1129  0.1431
 4115TIP3   OH233835   6.326   3.329  13.594  0.1737  0.0027 -0.0045
 4115TIP3    H133836   6.348   3.354  13.505  0.3103 -1.0260 -0.2776
 4115TIP3    H233837   6.360   3.240  13.603 -0.2206 -0.0716  0.9333
 4116TIP3   OH233838   1.172   1.691   6.456  0.8866  0.0960  0.1522
 4116TIP3    H133839   1.181   1.770   6.403  0.1211  0.5649  0.6932
 4116TIP3    H233840   1.092   1.706   6.507 -0.0991 -1.6388 -0.7905
 4117TIP3   OH233841   3.130   5.193   1.856 -0.4224  0.1115  0.0184
 4117TIP3    H133842   3.190   5.263   1.883 -3.5331  2.6262  1.0103
 4117TIP3    H233843   3.115   5.209   1.763  0.2814 -0.3810 -0.1789
 4118TIP3   OH233844   4.045   4.167   2.271 -0.0568  0.0610 -0.1143
 4118TIP3    H133845   4.014   4.257   2.274  1.4228  0.6258 -0.7874
 4118TIP3    H233846   4.116   4.164   2.335 -0.7893 -0.9384  0.6915
 4119TIP3   OH233847   6.140   3.159  16.950  0.0828 -0.2824 -0.2679
 4119TIP3    H133848   6.151   3.136  16.858 -0.3059 -2.0224  0.0703
 4119TIP3    H233849   6.100   3.246  16.949  0.1826 -0.2292 -1.7247
 4120TIP3   OH233850   2.764   4.284  12.774  0.0046 -0.0713  0.3788
 4120TIP3    H133851   2.854   4.314  12.766 -0.1842  0.5173  0.4075
 4120TIP3    H233852   2.718   4.325  12.700 -0.0418 -1.1293 -0.1905
 4121TIP3   OH233853   5.900   0.273  12.217  0.0270 -0.0422  0.1359
 4121TIP3    H133854   5.888   0.350  12.273 -0.7993  0.7491 -1.1014
 4121TIP3    H233855   5.943   0.210  12.274 -2.6819 -0.0752  2.3843
 4122TIP3   OH233856   4.144   3.820   4.305  0.5003 -0.8458  0.7682
 4122TIP3    H133857   4.087   3.828   4.229  3.6152 -0.2092 -1.7213
 4122TIP3    H233858   4.155   3.726   4.318 -2.8416 -1.1305  2.9379
 4123TIP3   OH233859   0.411   3.624  13.009  0.3200  0.2496  0.1591
 4123TIP3    H133860   0.429   3.658  12.921 -0.4886  0.4185  0.0474
 4123TIP3    H233861   0.496   3.596  13.042  0.4519 -1.0423 -1.1756
 4124TIP3   OH233862   4.316   1.683   6.208 -0.1036  0.4111  0.3052
 4124TIP3    H133863   4.319   1.694   6.303  0.1793  2.9430  0.0876
 4124TIP3    H233864   4.349   1.595   6.193 -2.2144 -0.9101  2.6459
 4125TIP3   OH233865   6.521   4.760   5.541 -0.0951 -0.6403 -0.6808
 4125TIP3    H133866   6.489   4.843   5.575  0.3539  0.1514 -2.0908
 4125TIP3    H233867   6.614   4.775   5.523 -0.1330 -1.2609 -1.4692
 4126TIP3   OH233868   3.877   0.628  13.116 -0.0285  0.2054 -0.2298
 4126TIP3    H133869   3.785   0.652  13.105  0.1227  0.5447 -0.7828
 4126TIP3    H233870   3.881   0.590  13.203 -1.4412 -3.2703 -1.4947
 4127TIP3   OH233871   2.454   4.708   5.738 -0.5222 -0.4558 -0.1033
 4127TIP3    H133872   2.434   4.779   5.799  1.6107  0.5810 -0.5052
 4127TIP3    H233873   2.445   4.628   5.789 -0.3727  0.2816  1.1206
 4128TIP3   OH233874   5.276   3.815  12.655  0.3699 -0.2329 -0.2706
 4128TIP3    H133875   5.185   3.840  12.670 -1.0828 -2.7305 -3.5490
 4128TIP3    H233876   5.323   3.898  12.652 -1.9751  1.2450  0.4340
 4129TIP3   OH233877   3.624   1.295   2.406 -0.1860 -0.6618  0.0738
 4129TIP3    H133878   3.629   1.379   2.359  0.0329 -1.5636 -1.5731
 4129TIP3    H233879   3.531   1.285   2.426 -0.0706  0.5242  1.3767
 4130TIP3   OH233880   5.974   2.724   4.661  0.5512  0.4100 -0.1140
 4130TIP3    H133881   6.060   2.764   4.650  0.1012  1.2962 -0.4938
 4130TIP3    H233882   5.946   2.702   4.572 -0.6303  2.3536 -0.2987
 4131TIP3   OH233883   0.941   5.813  14.809  0.6450  0.2404 -0.0351
 4131TIP3    H133884   1.025   5.775  14.832  0.0507 -1.6540 -0.8143
 4131TIP3    H233885   0.880   5.777  14.874  0.4664  1.9529  0.8052
 4132TIP3   OH233886   3.928   0.865  13.942 -0.3681 -0.1122  0.1840
 4132TIP3    H133887   3.860   0.813  13.986 -1.1092  0.4406 -0.2865
 4132TIP3    H233888   3.983   0.799  13.899 -2.2451 -0.5180 -1.7824
 4133TIP3   OH233889   2.759   3.221   2.579  0.6605  0.0099 -0.1325
 4133TIP3    H133890   2.811   3.301   2.577 -2.0872  1.9806 -3.1733
 4133TIP3    H233891   2.739   3.203   2.487 -0.6400 -2.9651  0.6025
 4134TIP3   OH233892   0.901   2.036  16.461  0.8020 -0.4001 -0.6091
 4134TIP3    H133893   0.903   2.131  16.447  0.7928 -0.3337 -0.1853
 4134TIP3    H233894   0.960   2.021  16.535 -1.5856 -0.3181  1.4638
 4135TIP3   OH233895   0.526   2.018   3.455 -0.0910 -0.6070  0.5507
 4135TIP3    H133896   0.580   1.983   3.384 -1.2659  0.4070 -0.9143
 4135TIP3    H233897   0.439   2.028   3.416 -1.1216 -1.3036  2.5526
 4136TIP3   OH233898   0.837   2.308   2.278  0.3664 -0.0258 -0.8034
 4136TIP3    H133899   0.775   2.243   2.313  0.5064  0.6696  0.8261
 4136TIP3    H233900   0.904   2.256   2.234 -0.0701 -0.9334 -0.4301
 4137TIP3   OH233901   1.630   5.761  14.058  0.1450  0.2167 -1.0850
 4137TIP3    H133902   1.597   5.691  14.002 -0.0864  0.8735 -1.7950
 4137TIP3    H233903   1.656   5.830  13.997 -0.0210  0.9157 -0.3848
 4138TIP3   OH233904   2.232   4.926   2.560 -0.4503  0.3459 -0.0824
 4138TIP3    H133905   2.138   4.910   2.552 -0.7685  2.0280 -0.0391
 4138TIP3    H233906   2.239   5.017   2.590  1.2118  0.5951 -1.0838
 4139TIP3   OH233907   3.926   3.226  14.335  0.8931  0.6036  0.6829
 4139TIP3    H133908   3.872   3.237  14.412 -0.0450 -1.4768  0.3742
 4139TIP3    H233909   4.016   3.222  14.368  0.4109 -1.8310  1.9194
 4140TIP3   OH233910   1.642   6.501  15.608  0.7042  0.2933 -0.6842
 4140TIP3    H133911   1.687   6.511  15.524  0.2612 -1.6260 -1.2116
 4140TIP3    H233912   1.594   6.582  15.620  2.8177  1.6629 -0.9930
 4141TIP3   OH233913   1.219   4.296  16.872 -0.0230 -0.2994 -0.0157
 4141TIP3    H133914   1.244   4.229  16.808  0.8904  0.7094 -0.7585
 4141TIP3    H233915   1.202   4.248  16.952  1.9365 -1.3309 -0.1588
 4142TIP3   OH233916   6.712   6.737   5.446 -0.3921  0.3777 -0.6225
 4142TIP3    H133917   6.644   6.734   5.514 -0.1384 -1.6224 -0.3914
 4142TIP3    H233918   6.674   6.792   5.377 -0.0478  3.8192  1.6682
 4143TIP3   OH233919   2.876   1.264   0.328  0.0106  0.0955 -0.6011
 4143TIP3    H133920   2.810   1.333   0.331 -0.4704 -0.3196 -1.3101
 4143TIP3    H233921   2.909   1.266   0.238  0.1241 -0.4788 -0.5776
 4144TIP3   OH233922   3.678   4.227   0.904  0.0072 -0.1758 -0.0376
 4144TIP3    H133923   3.755   4.215   0.848  0.7956  2.2302  0.4332
 4144TIP3    H233924   3.608   4.248   0.843  0.6294  1.4212 -0.2520
 4145TIP3   OH233925   5.810   6.138  14.917 -0.2655  0.3171 -0.2874
 4145TIP3    H133926   5.786   6.070  14.855  1.3508 -0.6971  0.1304
 4145TIP3    H233927   5.903   6.123  14.935  0.2661  2.8945 -0.4707
 4146TIP3   OH233928   2.253   6.739  15.314  0.2789 -0.1604  0.0642
 4146TIP3    H133929   2.255   6.664  15.374  0.5223 -0.5940 -0.4675
 4146TIP3    H233930   2.226   6.701  15.231 -0.7607  0.5559  0.0675
 4147TIP3   OH233931   4.355   2.773   3.299  0.1597 -0.6840 -0.0585
 4147TIP3    H133932   4.441   2.765   3.342 -0.3022  3.1529  2.1216
 4147TIP3    H233933   4.363   2.853   3.247 -2.0116 -0.3197  0.1030
 4148TIP3   OH233934   4.547   3.712  12.321 -0.0064  0.5761  0.2757
 4148TIP3    H133935   4.550   3.765  12.401  0.1937  2.4138 -0.8768
 4148TIP3    H233936   4.635   3.677  12.312  0.3605  1.5001  0.1616
 4149TIP3   OH233937   4.105   3.054  10.382 -0.2062  0.3014 -0.7000
 4149TIP3    H133938   4.075   2.968  10.350  0.0077  0.1894 -0.6000
 4149TIP3    H233939   4.100   3.047  10.477 -0.7946  0.6169 -0.7020
 4150TIP3   OH233940   6.359   5.624  14.860 -0.0725 -0.2361 -0.1558
 4150TIP3    H133941   6.291   5.567  14.896  0.9072 -0.3822  1.5564
 4150TIP3    H233942   6.428   5.565  14.832  0.8136  0.0532  1.3362
 4151TIP3   OH233943   4.366   1.924  14.167  0.0922 -0.5550  0.2196
 4151TIP3    H133944   4.313   1.967  14.100 -1.0952 -1.2072  0.6956
 4151TIP3    H233945   4.448   1.903  14.123  0.2491  1.1078 -0.3474
 4152TIP3   OH233946   4.883   5.844  14.050 -0.3564  0.8140  0.1016
 4152TIP3    H133947   4.930   5.791  14.114  0.8261  0.8157 -0.7271
 4152TIP3    H233948   4.792   5.843  14.080 -0.2568 -1.1082  0.4784
 4153TIP3   OH233949   1.274   4.450  11.246 -0.0129 -0.1137  0.0496
 4153TIP3    H133950   1.358   4.407  11.264  0.0329 -0.2632 -0.5044
 4153TIP3    H233951   1.293   4.514  11.178 -0.5061 -0.7083 -0.6569
 4154TIP3   OH233952   6.127   6.446   0.689 -0.4942 -0.2850 -0.1336
 4154TIP3    H133953   6.113   6.526   0.639 -1.5288  0.6753  1.5681
 4154TIP3    H233954   6.147   6.476   0.778  2.3930 -1.8869 -0.1197
 4155TIP3   OH233955   0.471   3.206  12.478 -1.0223 -0.0249 -0.9136
 4155TIP3    H133956   0.443   3.245  12.561  0.2714  2.1787 -1.4308
 4155TIP3    H233957   0.565   3.197  12.486 -1.1716 -2.2568 -1.2103
 4156TIP3   OH233958   2.473   3.728   2.673 -0.1599  0.0470  0.3130
 4156TIP3    H133959   2.489   3.777   2.753 -0.4582 -0.4403  0.6752
 4156TIP3    H233960   2.527   3.649   2.681 -1.7372 -1.0313  1.0020
 4157TIP3   OH233961   3.168   1.627  15.903 -0.0014  0.7543 -0.0053
 4157TIP3    H133962   3.123   1.682  15.967 -2.0684 -2.5244  1.7040
 4157TIP3    H233963   3.245   1.594  15.949 -0.4412 -0.1012  0.1453
 4158TIP3   OH233964   1.899   5.987   4.564  0.3360 -0.8237  0.2708
 4158TIP3    H133965   1.994   5.983   4.557  0.3740 -0.9779  0.8964
 4158TIP3    H233966   1.880   6.079   4.583  0.3346 -0.7323 -0.1489
 4159TIP3   OH233967   1.256   4.090  14.834  0.1476 -0.2918 -0.1745
 4159TIP3    H133968   1.187   4.024  14.832 -1.3671  1.2239  0.2574
 4159TIP3    H233969   1.246   4.138  14.752  0.2101  0.4214  0.2314
 4160TIP3   OH233970   3.597   5.711   5.945 -0.4528 -0.0945  0.0984
 4160TIP3    H133971   3.592   5.759   6.028  0.0206  0.2094 -0.0428
 4160TIP3    H233972   3.506   5.699   5.918 -0.5773  0.8835  0.0471
 4161TIP3   OH233973   1.453   5.231  12.199 -0.0665 -0.0324  0.1662
 4161TIP3    H133974   1.436   5.173  12.125 -1.1374  2.7527 -1.9457
 4161TIP3    H233975   1.427   5.180  12.276 -0.6969 -2.3884 -1.4924
 4162TIP3   OH233976   4.836   4.508   1.993  0.1588  0.6851  0.0223
 4162TIP3    H133977   4.830   4.511   1.897  0.7619  1.1382 -0.0048
 4162TIP3    H233978   4.929   4.498   2.011 -0.2084 -3.8877  0.4888
 4163TIP3   OH233979   3.531   3.267  16.445 -1.2672 -0.9709 -1.0513
 4163TIP3    H133980   3.439   3.248  16.457 -0.5721 -2.9821  2.1171
 4163TIP3    H233981   3.566   3.279  16.533  1.3462  0.8202 -2.1719
 4164TIP3   OH233982   4.252   2.231  11.413 -0.4118  0.1156 -0.5874
 4164TIP3    H133983   4.221   2.241  11.323 -1.8388 -0.1460 -0.1537
 4164TIP3    H233984   4.319   2.299  11.423 -0.8715  0.7394 -1.5643
 4165TIP3   OH233985   2.872   6.772  13.391  0.1363 -0.0110 -0.4400
 4165TIP3    H133986   2.944   6.772  13.454 -0.3964  1.6686  0.2186
 4165TIP3    H233987   2.796   6.799  13.441 -0.1346  2.3310 -1.9367
 4166TIP3   OH233988   6.141   3.725  16.328 -0.0673  0.5444 -0.0401
 4166TIP3    H133989   6.143   3.729  16.232  1.3010  0.6541 -0.0272
 4166TIP3    H233990   6.080   3.794  16.353 -1.7939 -0.6118 -0.8620
 4167TIP3   OH233991   2.929   4.576  12.434 -0.2137  0.0195  0.0784
 4167TIP3    H133992   3.005   4.552  12.381 -0.7509 -0.2891 -0.5680
 4167TIP3    H233993   2.880   4.494  12.443  0.1870 -0.0810  1.5964
 4168TIP3   OH233994   3.900   4.857  11.722 -0.1269  0.1065 -0.1861
 4168TIP3    H133995   3.966   4.795  11.694  1.5317  0.9502  1.5732
 4168TIP3    H233996   3.821   4.805  11.734  0.0182 -0.8454 -2.7987
 4169TIP3   OH233997   6.047   6.801   2.547 -0.1405  0.0693 -0.1933
 4169TIP3    H133998   6.112   6.795   2.477  0.3339  0.0646  0.2382
 4169TIP3    H233999   6.012   6.890   2.541 -0.9473 -0.3054 -1.1691
 4170TIP3   OH234000   5.457   2.679   0.069 -0.9198  0.3366  0.5276
 4170TIP3    H134001   5.405   2.650  -0.007 -1.6412 -0.9577  1.4731
 4170TIP3    H234002   5.415   2.760   0.096 -0.2429  1.1865 -0.8317
 4171TIP3   OH234003   6.310   5.127  12.206  0.3522 -0.2388 -0.4055
 4171TIP3    H134004   6.219   5.153  12.196  0.1456  0.8022  2.9706
 4171TIP3    H234005   6.356   5.170  12.134 -1.4107  1.6215 -0.4990
 4172TIP3   OH234006   6.073   3.971  13.242 -0.2503  0.2234 -0.5265
 4172TIP3    H134007   6.157   3.956  13.199  1.0137 -1.1838  2.1758
 4172TIP3    H234008   6.034   4.045  13.195  2.8993  1.4977 -1.3333
 4173TIP3   OH234009   1.677   3.330   2.147  0.2615  1.1060 -0.3145
 4173TIP3    H134010   1.740   3.340   2.076 -0.6005  2.5076 -0.9093
 4173TIP3    H234011   1.593   3.321   2.103  0.0851 -1.9501  0.4167
 4174TIP3   OH234012   1.601   5.130  13.157  0.4608 -0.2233  0.4959
 4174TIP3    H134013   1.581   5.181  13.078  3.0691  1.1387  0.6099
 4174TIP3    H234014   1.570   5.042  13.136  1.0204  0.0981 -2.0542
 4175TIP3   OH234015   3.677   3.394   5.225 -0.3584  0.1864  0.5995
 4175TIP3    H134016   3.684   3.431   5.313  2.5506 -0.0398  0.5559
 4175TIP3    H234017   3.662   3.301   5.239  0.7891  0.0396  0.8816
 4176TIP3   OH234018   1.830   2.484  15.933  0.6886 -0.4155  0.1733
 4176TIP3    H134019   1.867   2.563  15.894 -2.1897  0.6923 -0.5544
 4176TIP3    H234020   1.829   2.502  16.027  1.8336 -0.4332  0.2007
 4177TIP3   OH234021   5.712   4.850  11.585 -0.0418 -0.5009  0.1703
 4177TIP3    H134022   5.769   4.774  11.571 -0.1509 -1.1081  2.4964
 4177TIP3    H234023   5.768   4.914  11.629 -0.2878  0.2794 -0.6233
 4178TIP3   OH234024   1.502   2.920  14.224  0.5208 -0.0448 -0.1817
 4178TIP3    H134025   1.495   3.007  14.263 -1.8551  0.2822 -1.2009
 4178TIP3    H234026   1.439   2.919  14.153  0.0875 -2.7660  0.0989
 4179TIP3   OH234027   2.999   1.496   2.384  0.5667 -0.5621  0.6685
 4179TIP3    H134028   2.906   1.512   2.368  0.6818  1.2017  1.5525
 4179TIP3    H234029   3.035   1.478   2.297 -0.1332  1.4855 -0.1083
 4180TIP3   OH234030   0.793   6.341   4.734 -0.5305 -0.2648 -0.0006
 4180TIP3    H134031   0.707   6.300   4.731 -0.3420 -0.6081 -1.7401
 4180TIP3    H234032   0.854   6.269   4.718 -0.0960  0.3927 -1.4023
 4181TIP3   OH234033   3.268   5.800   4.693 -0.4566  0.1524 -0.1096
 4181TIP3    H134034   3.190   5.782   4.745  0.4526 -2.4668  0.5029
 4181TIP3    H234035   3.251   5.757   4.609 -0.9438  2.3647 -1.2227
 4182TIP3   OH234036   3.338   5.845   3.166 -0.0650 -0.0769 -0.2367
 4182TIP3    H134037   3.267   5.805   3.115  0.2244 -0.0236 -0.6871
 4182TIP3    H234038   3.402   5.774   3.177 -0.7340 -0.4819  1.2354
 4183TIP3   OH234039   2.717   4.820   1.272  0.2894  0.3885  0.1373
 4183TIP3    H134040   2.786   4.757   1.249  0.3330 -0.1416  1.6054
 4183TIP3    H234041   2.758   4.877   1.337 -0.3011  0.8050  0.1480
 4184TIP3   OH234042   5.726   1.509  13.650 -0.0142  0.3729  0.4967
 4184TIP3    H134043   5.812   1.472  13.667  0.6303  1.4673 -0.2976
 4184TIP3    H234044   5.723   1.589  13.702 -0.6674  0.2040  0.7362
 4185TIP3   OH234045   4.136   6.532   3.380 -0.3390 -0.7715 -0.2747
 4185TIP3    H134046   4.193   6.595   3.424  0.2832 -0.4483 -1.5174
 4185TIP3    H234047   4.048   6.559   3.404 -0.0185 -0.8731  1.1198
 4186TIP3   OH234048   2.463   3.540   0.223  0.1414  0.0846  0.2145
 4186TIP3    H134049   2.557   3.558   0.220  0.4424 -1.1582  1.2777
 4186TIP3    H234050   2.434   3.575   0.308 -1.0250  3.1692 -1.2907
 4187TIP3   OH234051   5.557   2.046   3.916  0.5207  0.1650 -0.0843
 4187TIP3    H134052   5.552   2.092   3.832 -0.6896  0.4431  0.1252
 4187TIP3    H234053   5.521   2.107   3.979  0.4971 -0.4235  0.4784
 4188TIP3   OH234054   0.943   2.463   0.168 -0.5347  0.0611 -0.1538
 4188TIP3    H134055   0.919   2.500   0.253  0.0130 -4.1356  2.1504
 4188TIP3    H234056   1.039   2.461   0.169 -0.5273 -0.1795 -0.8034
 4189TIP3   OH234057   4.172   6.136  13.363  0.4134 -0.1983 -0.1793
 4189TIP3    H134058   4.261   6.171  13.365  0.2170  0.2862  1.6171
 4189TIP3    H234059   4.173   6.065  13.427  0.1618 -1.9859 -2.0418
 4190TIP3   OH234060   2.904   3.021   2.841  0.1579 -0.3856  0.1631
 4190TIP3    H134061   2.961   2.984   2.774 -1.1239 -0.2955 -1.0262
 4190TIP3    H234062   2.869   3.101   2.801 -0.1201  0.0231  1.1983
 4191TIP3   OH234063   5.585   0.220  17.107  0.0132 -0.1263  0.5961
 4191TIP3    H134064   5.513   0.158  17.093  0.1994 -0.4162  0.9191
 4191TIP3    H234065   5.664   0.167  17.105  0.3346  0.3509 -0.9481
 4192TIP3   OH234066   5.244   5.694  12.160  0.6413  0.0666 -0.0793
 4192TIP3    H134067   5.336   5.690  12.136  1.4849  3.1194  2.0948
 4192TIP3    H234068   5.208   5.764  12.106 -0.2275 -0.5527 -0.3285
 4193TIP3   OH234069   5.003   4.368  14.900 -0.6832  0.3564  0.6804
 4193TIP3    H134070   5.078   4.311  14.883 -0.8511  0.6812 -1.4239
 4193TIP3    H234071   5.042   4.448  14.936 -0.0533  0.3340  0.0744
 4194TIP3   OH234072   6.140   1.486  12.704  0.3540 -0.1576  0.0922
 4194TIP3    H134073   6.087   1.466  12.627  0.8451  0.1596 -0.3329
 4194TIP3    H234074   6.082   1.468  12.778 -0.0116 -0.7927 -0.3367
 4195TIP3   OH234075   6.355   6.234  12.498  0.1417  0.1671  0.2169
 4195TIP3    H134076   6.350   6.283  12.580  0.1552  0.5213  0.0090
 4195TIP3    H234077   6.448   6.228  12.479  0.1164  0.5120 -0.0238
 4196TIP3   OH234078   5.657   1.307  14.750  0.2169 -0.5139 -0.1013
 4196TIP3    H134079   5.666   1.214  14.769 -0.0644 -0.2806  1.3164
 4196TIP3    H234080   5.565   1.317  14.724  0.4151 -0.7297 -0.8880
 4197TIP3   OH234081   4.899   4.899  14.013  0.5628  0.1121 -0.3391
 4197TIP3    H134082   4.969   4.859  14.065  0.1819  0.1705  0.2288
 4197TIP3    H234083   4.818   4.873  14.057  0.1158 -1.2808 -1.9008
 4198TIP3   OH234084   1.461   2.106   5.065  0.1866  0.2528 -0.0310
 4198TIP3    H134085   1.515   2.063   5.131 -1.0301  0.8914  1.4360
 4198TIP3    H234086   1.394   2.040   5.043 -0.0582  0.4186  0.2044
 4199TIP3   OH234087   2.452   2.586  17.036  0.0996 -0.0280  0.2249
 4199TIP3    H134088   2.361   2.576  17.064  0.2153 -0.9441  0.3001
 4199TIP3    H234089   2.455   2.546  16.949  0.9433 -2.2569  1.2182
 4200TIP3   OH234090   5.667   4.616   5.377 -0.3082 -0.3058  0.3798
 4200TIP3    H134091   5.721   4.576   5.445  1.5027 -0.6521 -1.1778
 4200TIP3    H234092   5.670   4.554   5.304 -1.1866  0.5991 -0.4557
 4201TIP3   OH234093   5.157   5.669   1.281  0.1303  0.3699  0.6127
 4201TIP3    H134094   5.149   5.610   1.356 -1.3075  0.6018  0.6825
 4201TIP3    H234095   5.117   5.751   1.311 -2.3414 -0.1328 -0.9827
 4202TIP3   OH234096   5.808   0.721   6.217 -0.1285  0.1781 -0.8459
 4202TIP3    H134097   5.839   0.810   6.199 -0.7825  0.2806 -1.4718
 4202TIP3    H234098   5.847   0.700   6.302  0.8973  0.6597 -1.1777
 4203TIP3   OH234099   3.693   2.463   0.899  0.1815 -0.1628 -0.1927
 4203TIP3    H134100   3.709   2.454   0.993  1.1157  2.6851  0.0201
 4203TIP3    H234101   3.687   2.558   0.885 -0.9519 -0.5430 -2.8654
 4204TIP3   OH234102   5.391   0.042  12.162  0.2835 -0.2653  0.0667
 4204TIP3    H134103   5.308   0.000  12.184  0.2855 -0.4186 -0.2110
 4204TIP3    H234104   5.368   0.109  12.097 -0.0408  1.6268  2.0161
 4205TIP3   OH234105   2.153   1.728  13.986  0.0387 -0.2031  0.5561
 4205TIP3    H134106   2.143   1.797  14.051 -1.3356 -1.0114  1.2631
 4205TIP3    H234107   2.095   1.658  14.016 -2.1801  0.0884 -2.5003
 4206TIP3   OH234108   0.277   6.484  12.497  0.3883 -0.9318 -0.0174
 4206TIP3    H134109   0.261   6.551  12.431  0.4145 -0.6631  0.2486
 4206TIP3    H234110   0.372   6.471  12.495  0.6874  0.6559  1.4814
 4207TIP3   OH234111   6.511   5.498   0.048 -0.5011  0.2282  0.4182
 4207TIP3    H134112   6.576   5.458  -0.010 -1.1813 -2.6105  1.4148
 4207TIP3    H234113   6.560   5.520   0.127 -0.5223 -1.0258  0.8042
 4208TIP3   OH234114   3.824   2.904   3.803 -0.2176 -0.1529 -0.5371
 4208TIP3    H134115   3.732   2.914   3.826  0.0348  1.1321  0.0226
 4208TIP3    H234116   3.823   2.864   3.716 -1.3147  0.4013 -0.7959
 4209TIP3   OH234117   1.537   1.093   2.668  0.1463  0.1941 -0.4722
 4209TIP3    H134118   1.582   1.174   2.689  0.5577 -0.1628  0.0249
 4209TIP3    H234119   1.606   1.030   2.648 -0.1624 -0.0740 -0.7268
 4210TIP3   OH234120   1.102   0.215  15.671  0.0731  0.1133  0.0652
 4210TIP3    H134121   1.117   0.161  15.593 -1.3186  0.8207 -0.7359
 4210TIP3    H234122   1.145   0.298  15.651  1.5882 -0.3993  0.9981
 4211TIP3   OH234123   1.647   2.436  15.226  0.3180 -0.1739  0.4916
 4211TIP3    H134124   1.714   2.426  15.157 -1.3867 -0.2356 -1.2409
 4211TIP3    H234125   1.603   2.351  15.228 -0.8460  0.4172  0.3554
 4212TIP3   OH234126   5.952   0.460  14.539 -0.0615  0.0038  0.6824
 4212TIP3    H134127   5.926   0.470  14.447 -1.2286 -0.5420  0.9399
 4212TIP3    H234128   5.870   0.468  14.588  0.1840 -2.0946  1.5053
 4213TIP3   OH234129   5.195   1.839  16.971 -0.0172 -0.0495  0.5342
 4213TIP3    H134130   5.276   1.885  16.992  0.8879 -1.4746  0.3269
 4213TIP3    H234131   5.177   1.861  16.880  1.4098 -1.4515 -0.1465
 4214TIP3   OH234132   3.753   6.129   4.072  0.1968  0.7182 -0.5567
 4214TIP3    H134133   3.671   6.135   4.119  1.1296  1.4254  1.0436
 4214TIP3    H234134   3.796   6.051   4.107  0.0419  0.0769 -1.7183
 4215TIP3   OH234135   1.752   1.346   3.159  0.6029  0.2111  0.0243
 4215TIP3    H134136   1.838   1.384   3.176  1.3217  0.5129 -3.5221
 4215TIP3    H234137   1.764   1.252   3.175  0.4552  0.6225  3.1074
 4216TIP3   OH234138   4.127   2.858   5.656  0.0848 -0.4628  0.1035
 4216TIP3    H134139   4.069   2.799   5.607  1.9671 -1.8706 -0.5426
 4216TIP3    H234140   4.090   2.860   5.744 -1.5026 -0.5148 -0.5279
 4217TIP3   OH234141   0.597   4.340  12.742 -0.5104 -0.0541  0.4164
 4217TIP3    H134142   0.601   4.409  12.676  1.3278  1.0046  1.5349
 4217TIP3    H234143   0.626   4.261  12.696 -0.7282  0.3259 -0.3956
 4218TIP3   OH234144   6.674   0.521  14.925  0.3329  0.5029  0.4705
 4218TIP3    H134145   6.617   0.595  14.902  0.2632 -0.0010 -1.0453
 4218TIP3    H234146   6.723   0.552  15.002 -0.0174  1.9581  0.1366
 4219TIP3   OH234147   1.589   2.553  14.271  0.4116 -0.0737  0.4801
 4219TIP3    H134148   1.588   2.620  14.203 -0.4541 -0.7178 -0.1666
 4219TIP3    H234149   1.637   2.480  14.232 -0.9538 -0.8309  0.1528
 4220TIP3   OH234150   0.257   3.725   5.146 -0.1849 -0.2599  0.2887
 4220TIP3    H134151   0.183   3.786   5.148 -1.1676 -1.4251  1.5913
 4220TIP3    H234152   0.268   3.699   5.237  1.2994 -0.7686 -0.0210
 4221TIP3   OH234153   5.613   3.095  12.422  0.0013 -0.6217  0.3983
 4221TIP3    H134154   5.554   3.157  12.380  0.4026 -1.7081 -1.9434
 4221TIP3    H234155   5.580   3.009  12.398  1.6296 -1.2722  0.3163
 4222TIP3   OH234156   4.984   2.210  13.806 -0.0430  0.3680  0.2284
 4222TIP3    H134157   5.031   2.133  13.773 -0.5097  0.6241 -1.0887
 4222TIP3    H234158   5.051   2.260  13.854  0.3499 -0.6665  0.7761
 4223TIP3   OH234159   0.847   1.717   5.377  0.7485  0.1861 -0.6257
 4223TIP3    H134160   0.785   1.673   5.435  1.7465  1.2794  1.3830
 4223TIP3    H234161   0.923   1.659   5.375  0.7377  0.1780 -0.7887
 4224TIP3   OH234162   3.144   6.714  13.610 -0.9277 -0.0479 -0.1930
 4224TIP3    H134163   3.237   6.730  13.626 -1.2459  1.5023  0.3279
 4224TIP3    H234164   3.133   6.620  13.619  0.6653 -0.3010 -0.6714
 4225TIP3   OH234165   3.623   5.742  13.449 -0.3067  0.1664 -0.1013
 4225TIP3    H134166   3.579   5.745  13.364 -1.1287  1.3011  0.3371
 4225TIP3    H234167   3.635   5.649  13.467  0.7148 -0.0940 -1.8592
 4226TIP3   OH234168   2.946   2.298  15.779 -0.0731  0.3795 -0.0885
 4226TIP3    H134169   3.018   2.301  15.841  1.1327 -0.8888 -1.3502
 4226TIP3    H234170   2.869   2.277  15.832  1.2294 -2.7074  0.8507
 4227TIP3   OH234171   0.991   3.258  16.158 -0.4094  0.2655 -0.6414
 4227TIP3    H134172   1.014   3.325  16.222  1.5441  0.3759 -1.3670
 4227TIP3    H234173   0.912   3.217  16.193 -1.2588  2.4531  0.1661
 4228TIP3   OH234174   4.322   4.489  11.934 -0.9558 -0.1879  0.3843
 4228TIP3    H134175   4.259   4.495  11.862  0.7803 -0.1517 -1.2007
 4228TIP3    H234176   4.338   4.396  11.944  1.1965 -0.1272 -1.5647
 4229TIP3   OH234177   1.221   3.081  12.466  0.3753 -0.1263 -0.4738
 4229TIP3    H134178   1.163   3.046  12.534  0.1292  1.0765 -0.0349
 4229TIP3    H234179   1.166   3.143  12.417  1.1043  0.5567 -0.4491
 4230TIP3   OH234180   1.030   5.927   2.618 -0.5108  0.1931  0.3387
 4230TIP3    H134181   1.103   5.873   2.648  0.4041 -0.3634 -2.6403
 4230TIP3    H234182   1.067   6.014   2.606 -0.2992 -0.0801 -1.1401
 4231TIP3   OH234183   2.480   0.244  11.325 -0.2768 -0.1986 -0.0906
 4231TIP3    H134184   2.554   0.208  11.276 -0.4390 -1.8677  0.8261
 4231TIP3    H234185   2.404   0.198  11.291 -0.2812 -2.2346  2.3627
 4232TIP3   OH234186   6.641   3.001   2.339  0.0398  0.4945 -0.6728
 4232TIP3    H134187   6.549   3.007   2.365  0.0073 -0.3746 -0.5566
 4232TIP3    H234188   6.677   2.932   2.395  0.2595 -0.5853 -2.0788
 4233TIP3   OH234189   0.202   2.078  11.292 -0.4361 -0.1136  0.0734
 4233TIP3    H134190   0.216   2.172  11.303  0.3069 -0.2222  0.0722
 4233TIP3    H234191   0.274   2.050  11.236 -1.3175 -0.4753 -0.9149
 4234TIP3   OH234192   0.586   4.887   0.436  0.1027  0.5786  0.1443
 4234TIP3    H134193   0.550   4.808   0.476  1.5092 -0.3146 -0.2741
 4234TIP3    H234194   0.622   4.857   0.352  0.7593  1.6407  0.0228
 4235TIP3   OH234195   5.308   6.498   1.614 -0.0103 -0.0185 -0.4017
 4235TIP3    H134196   5.289   6.450   1.533 -0.8209  0.1898 -0.3421
 4235TIP3    H234197   5.316   6.589   1.586  0.2885 -0.0200 -0.3280
 4236TIP3   OH234198   6.209   2.928   4.953  0.1080 -0.4678 -0.2659
 4236TIP3    H134199   6.161   2.879   4.886 -0.9879  3.9015 -3.0923
 4236TIP3    H234200   6.289   2.956   4.909 -0.2088  1.7894  0.4590
 4237TIP3   OH234201   5.165   2.866  11.445  0.6373 -0.1159  0.2862
 4237TIP3    H134202   5.106   2.833  11.513 -1.6818  1.4051 -0.8644
 4237TIP3    H234203   5.175   2.959  11.463  0.0229  0.3118 -1.3830
 4238TIP3   OH234204   3.997   0.997   1.285  0.4361  0.0354  0.4210
 4238TIP3    H134205   3.999   1.031   1.375  1.9422  1.1294  0.0130
 4238TIP3    H234206   4.084   1.015   1.251 -0.3656  0.4238 -1.5461
 4239TIP3   OH234207   4.902   0.133   4.450 -0.0607  0.0410 -0.0380
 4239TIP3    H134208   4.965   0.163   4.515 -0.8958 -0.0344  0.8202
 4239TIP3    H234209   4.888   0.041   4.470 -1.8700  0.4972  1.0156
 4240TIP3   OH234210   1.251   0.457  14.831 -0.0132  0.0681  0.0673
 4240TIP3    H134211   1.263   0.429  14.740 -3.1758 -0.8249 -0.2083
 4240TIP3    H234212   1.204   0.384  14.871 -0.5747  1.3516  1.8319
 4241TIP3   OH234213   4.453   1.385  15.005 -0.5996 -0.7267 -0.3608
 4241TIP3    H134214   4.394   1.312  15.026 -2.5925  1.0669  0.6531
 4241TIP3    H234215   4.465   1.430  15.089 -1.2944  1.3956 -1.3461
 4242TIP3   OH234216   2.960   2.782  15.529 -0.2545 -0.6290 -0.0087
 4242TIP3    H134217   2.933   2.747  15.444 -0.0563 -0.1003 -0.2958
 4242TIP3    H234218   2.886   2.763  15.587 -1.0687  0.3627 -0.6724
 4243TIP3   OH234219   4.189   3.333   1.595  0.1444  0.2772 -0.3487
 4243TIP3    H134220   4.202   3.243   1.626  0.2204 -0.0158 -1.2063
 4243TIP3    H234221   4.115   3.366   1.646  2.1921  0.9213  2.4639
 4244TIP3   OH234222   6.347   2.046  14.220 -0.3487 -0.3942  0.2567
 4244TIP3    H134223   6.357   1.955  14.248 -2.0027 -0.1134  1.8912
 4244TIP3    H234224   6.400   2.052  14.140  0.1192 -2.6654  0.3356
 4245TIP3   OH234225   4.825   5.233  15.793  0.2984 -0.3397  0.5597
 4245TIP3    H134226   4.737   5.246  15.828 -0.5781  0.2199 -1.6486
 4245TIP3    H234227   4.813   5.180  15.714  1.4911  2.0661 -1.4049
 4246TIP3   OH234228   6.192   0.318   3.447 -0.3884 -0.8520  0.2819
 4246TIP3    H134229   6.177   0.286   3.536 -2.5739  3.9930  1.9694
 4246TIP3    H234230   6.283   0.348   3.448 -0.8413  0.6200  1.5314
 4247TIP3   OH234231   5.380   3.409   0.879 -0.5422  0.3818 -1.0014
 4247TIP3    H134232   5.293   3.393   0.842  0.0745  0.0709 -2.3997
 4247TIP3    H234233   5.388   3.346   0.950 -0.0260 -2.3277 -3.3167
 4248TIP3   OH234234   0.726   1.931   3.633  0.2642 -0.0651 -0.4190
 4248TIP3    H134235   0.650   1.952   3.579 -0.2430 -0.7644  0.0097
 4248TIP3    H234236   0.726   1.835   3.639  0.0328  0.0205  1.2130
 4249TIP3   OH234237   4.119   6.526  15.492 -0.2083 -0.3920 -0.7957
 4249TIP3    H134238   4.146   6.617  15.483 -1.6347 -0.0326 -1.6956
 4249TIP3    H234239   4.032   6.530  15.533  0.1262 -1.4081  0.0694
 4250TIP3   OH234240   0.565   3.552  16.296  0.4340  0.4457 -0.1515
 4250TIP3    H134241   0.614   3.508  16.366 -0.7511 -0.2193  0.3022
 4250TIP3    H234242   0.623   3.550  16.221  1.0768 -0.3798  0.3496
 4251TIP3   OH234243   5.771   3.784   6.240 -0.1445  0.5176  0.6323
 4251TIP3    H134244   5.735   3.746   6.160 -3.5210  2.9407  0.8155
 4251TIP3    H234245   5.840   3.843   6.209 -0.3270  0.2567 -0.3064
 4252TIP3   OH234246   4.956   2.365   0.820  0.5497  0.2315 -0.3171
 4252TIP3    H134247   4.956   2.421   0.898  0.2684 -0.4132  0.1614
 4252TIP3    H234248   5.039   2.385   0.776  0.2993  1.2627 -0.3471
 4253TIP3   OH234249   3.663   0.489   6.141 -0.0944 -0.2449  0.4548
 4253TIP3    H134250   3.705   0.406   6.161  0.7250  0.2888  1.0543
 4253TIP3    H234251   3.610   0.472   6.063  2.1607 -0.6666 -1.0811
 4254TIP3   OH234252   0.491   3.872   1.723  0.1620  0.1543  0.3418
 4254TIP3    H134253   0.521   3.807   1.786 -0.4168 -0.4879 -0.0412
 4254TIP3    H234254   0.446   3.822   1.655 -0.2627  0.9478  0.0212
 4255TIP3   OH234255   5.904   1.660   0.069  0.3418  0.4242  0.1099
 4255TIP3    H134256   5.973   1.704   0.117 -0.6432  1.0445  0.9915
 4255TIP3    H234257   5.855   1.731   0.026  0.8913 -0.0756 -1.4297
 4256TIP3   OH234258   6.482   6.542  14.770  0.2958 -0.1687  0.7932
 4256TIP3    H134259   6.498   6.634  14.793  1.7474 -0.3069  0.4720
 4256TIP3    H234260   6.449   6.545  14.681  1.6852 -0.0128  0.2670
 4257TIP3   OH234261   4.844   3.520  16.336 -0.4468  0.1456  0.1570
 4257TIP3    H134262   4.897   3.513  16.256  0.4227 -0.5846  0.7834
 4257TIP3    H234263   4.900   3.485  16.405 -1.9156 -1.0493  0.7768
 4258TIP3   OH234264   0.955   2.652  16.155  0.3859 -0.4808  0.2664
 4258TIP3    H134265   0.992   2.690  16.235  1.2688 -0.1190 -0.3019
 4258TIP3    H234266   0.988   2.562  16.154  0.4139 -0.4704  0.2735
 4259TIP3   OH234267   5.904   4.920  12.052  0.2315 -0.1500  0.6526
 4259TIP3    H134268   5.979   4.976  12.031 -0.0330 -0.3770 -0.9876
 4259TIP3    H234269   5.937   4.862  12.121  0.6340  1.6945  2.0931
 4260TIP3   OH234270   4.984   3.569  11.218  0.2999 -0.0786  0.5104
 4260TIP3    H134271   4.984   3.484  11.261  1.7364 -1.3113 -1.6903
 4260TIP3    H234272   5.076   3.597  11.219  0.1992  0.3834 -0.6885
 4261TIP3   OH234273   2.510   0.845  14.095  0.1584  0.3146  0.4050
 4261TIP3    H134274   2.483   0.845  14.187  0.2462  2.4763  0.4747
 4261TIP3    H234275   2.428   0.832  14.047 -0.0222  0.0984  0.7647
 4262TIP3   OH234276   6.108   0.128  12.355  0.4567 -0.4851 -0.0585
 4262TIP3    H134277   6.199   0.101  12.366  1.2133  2.0762  0.5293
 4262TIP3    H234278   6.074   0.136  12.444 -0.4814 -1.7556 -0.2793
 4263TIP3   OH234279   3.154   2.670  10.707  0.4776 -0.1049 -0.1510
 4263TIP3    H134280   3.066   2.704  10.694  0.6060 -0.4411 -2.2357
 4263TIP3    H234281   3.142   2.576  10.720  0.3515  0.2283  2.5661
 4264TIP3   OH234282   3.848   4.875  11.340  0.3586  0.2458 -0.0877
 4264TIP3    H134283   3.895   4.842  11.263  0.1621 -0.5465  0.1203
 4264TIP3    H234284   3.916   4.911  11.397  0.6350 -0.2418 -0.1057
 4265TIP3   OH234285   0.936   0.281   2.936  0.2653  0.4540 -0.5021
 4265TIP3    H134286   0.988   0.229   2.874 -0.6485 -1.6892  0.4380
 4265TIP3    H234287   0.851   0.289   2.894  0.5972  1.8978 -0.9625
 4266TIP3   OH234288   4.306   4.645   0.675  0.4033 -0.1327  0.2526
 4266TIP3    H134289   4.262   4.571   0.716 -1.1770 -0.3754 -1.7184
 4266TIP3    H234290   4.380   4.605   0.628 -0.0695 -0.3996 -0.2801
 4267TIP3   OH234291   0.950   2.139   3.787 -0.1831  0.2503  0.2630
 4267TIP3    H134292   0.894   2.216   3.785  0.4837  0.8825  2.6991
 4267TIP3    H234293   0.901   2.075   3.839 -0.5480 -0.8887 -1.3821
 4268TIP3   OH234294   4.622   2.441  11.652  0.4541  0.0805 -0.1199
 4268TIP3    H134295   4.662   2.357  11.674 -0.6159 -0.9183 -1.7712
 4268TIP3    H234296   4.565   2.422  11.577 -0.6655  2.0626  0.1513
 4269TIP3   OH234297   2.718   6.407  11.262  0.2684  0.2623 -0.4894
 4269TIP3    H134298   2.681   6.489  11.293 -0.3710 -0.3210  0.3362
 4269TIP3    H234299   2.808   6.407  11.293 -0.4191 -0.4240  1.6976
 4270TIP3   OH234300   1.361   0.488  12.186  0.3799  0.0794 -0.1807
 4270TIP3    H134301   1.444   0.443  12.171  0.9989  1.2415 -0.2729
 4270TIP3    H234302   1.314   0.482  12.103 -0.1357 -1.5462  0.1813
 4271TIP3   OH234303   5.831   4.475   4.486  0.2440  0.3490  0.0235
 4271TIP3    H134304   5.857   4.412   4.418  0.3428  0.7273 -0.2895
 4271TIP3    H234305   5.772   4.426   4.542 -0.0558  0.1135 -0.4927
 4272TIP3   OH234306   4.665   5.581  11.548 -0.0285  0.1945  0.1707
 4272TIP3    H134307   4.571   5.581  11.566  0.0247 -1.3537  0.6322
 4272TIP3    H234308   4.670   5.566  11.453 -0.2396  2.3165 -0.2179
 4273TIP3   OH234309   0.602   0.857   3.388 -0.4320 -0.1383  0.0610
 4273TIP3    H134310   0.687   0.826   3.357  0.6163  1.1073  1.5218
 4273TIP3    H234311   0.554   0.777   3.407  0.0887 -0.8775 -1.5389
 4274TIP3   OH234312   2.429   0.182  15.132  0.2472 -0.6807 -0.0280
 4274TIP3    H134313   2.418   0.155  15.223  0.7469 -1.2264 -0.1253
 4274TIP3    H234314   2.353   0.145  15.087  0.6288 -1.4593 -0.0534
 4275TIP3   OH234315   1.433   3.773   4.530  0.0254 -0.2050 -0.2319
 4275TIP3    H134316   1.357   3.720   4.555 -1.5805  1.1073 -2.0799
 4275TIP3    H234317   1.412   3.862   4.559  1.1674  0.0794 -0.1991
 4276TIP3   OH234318   1.951   4.349   5.125  0.4329 -0.0440 -0.1424
 4276TIP3    H134319   1.965   4.386   5.037  0.8137 -1.4180 -0.6925
 4276TIP3    H234320   1.950   4.425   5.183  0.9351  0.8455 -1.2474
 4277TIP3   OH234321   1.583   1.384  13.681  0.2090 -0.0543  0.6010
 4277TIP3    H134322   1.659   1.349  13.727 -1.0275 -2.4412  0.9792
 4277TIP3    H234323   1.517   1.315  13.687 -1.4230  1.2333 -1.1843
 4278TIP3   OH234324   6.465   4.026   3.747 -0.0401  0.4281 -0.6760
 4278TIP3    H134325   6.419   3.991   3.823  2.5070  0.6706  1.0629
 4278TIP3    H234326   6.485   3.950   3.693 -1.8713  0.2575 -1.1859
 4279TIP3   OH234327   2.880   5.523  12.101  0.3542 -0.7004  0.0327
 4279TIP3    H134328   2.895   5.470  12.023 -2.7968 -0.4479 -0.8784
 4279TIP3    H234329   2.869   5.612  12.069  0.3630 -0.3590  0.9350
 4280TIP3   OH234330   2.657   3.632  11.659 -0.3589 -0.4653  0.4131
 4280TIP3    H134331   2.637   3.538  11.659  1.9765 -1.0519  1.7961
 4280TIP3    H234332   2.695   3.648  11.745  1.0703  1.3220 -0.4790
 4281TIP3   OH234333   5.898   0.660  16.447 -0.4385  0.0050 -0.7954
 4281TIP3    H134334   5.973   0.697  16.494 -1.1416  0.8402 -0.2982
 4281TIP3    H234335   5.839   0.629  16.516 -3.0862  4.3010 -0.7497
 4282TIP3   OH234336   5.433   4.834  11.053 -0.3289 -0.6011 -0.6012
 4282TIP3    H134337   5.426   4.817  10.960  1.8473 -0.1585 -0.8987
 4282TIP3    H234338   5.497   4.771  11.085 -1.0525 -0.7580  0.6137
 4283TIP3   OH234339   0.232   5.793   3.027  0.4455  0.4307 -0.6575
 4283TIP3    H134340   0.242   5.852   3.102  0.7544 -2.3896  1.6723
 4283TIP3    H234341   0.157   5.828   2.979  0.3534  2.4538  0.8218
 4284TIP3   OH234342   3.564   2.486  12.216 -0.1266  0.6159 -0.0336
 4284TIP3    H134343   3.630   2.452  12.275 -1.7271  0.7122  1.9177
 4284TIP3    H234344   3.610   2.499  12.133  1.7793 -1.1957  0.6691
 4285TIP3   OH234345   4.912   3.532  12.860 -0.4361  0.1597 -0.0715
 4285TIP3    H134346   4.958   3.613  12.879 -2.6301  2.1935 -2.6102
 4285TIP3    H234347   4.853   3.520  12.934  1.3115 -0.2984  1.2897
 4286TIP3   OH234348   2.226   5.366   3.113 -0.2693  0.0074  0.4261
 4286TIP3    H134349   2.246   5.281   3.075 -1.0341  0.2405 -0.5283
 4286TIP3    H234350   2.293   5.378   3.181 -0.4806 -1.5996  0.9813
 4287TIP3   OH234351   2.401   6.615  12.448  0.1033 -0.2609 -0.7344
 4287TIP3    H134352   2.397   6.655  12.535 -0.6681 -0.7158 -0.5490
 4287TIP3    H234353   2.473   6.553  12.452  0.0225 -0.3323 -0.3931
 4288TIP3   OH234354   6.019   5.564  11.526  0.7811 -0.4328  0.2198
 4288TIP3    H134355   5.960   5.500  11.565  0.4097  0.1577  0.6486
 4288TIP3    H234356   6.101   5.517  11.513  0.9546 -0.6302  1.8269
 4289TIP3   OH234357   3.681   2.126   2.944  0.1558 -0.1574 -0.1309
 4289TIP3    H134358   3.668   2.037   2.974  1.2053 -0.6037 -0.9293
 4289TIP3    H234359   3.762   2.155   2.986 -0.3822  0.5707  0.4345
 4290TIP3   OH234360   4.675   6.787  15.362 -0.4704 -0.3192 -0.3768
 4290TIP3    H134361   4.656   6.850  15.292 -0.5572  1.3377  1.0587
 4290TIP3    H234362   4.600   6.794  15.421 -0.4355 -1.7352 -0.1411
 4291TIP3   OH234363   2.772   1.989   1.331  0.4799  0.2631 -0.0310
 4291TIP3    H134364   2.733   1.998   1.244 -0.4746 -1.0931  0.2191
 4291TIP3    H234365   2.799   1.897   1.336  2.5559  0.8606  0.3090
 4292TIP3   OH234366   0.761   4.383  16.591  0.5586 -0.6491  0.0739
 4292TIP3    H134367   0.849   4.378  16.629  1.3766 -1.7289 -1.8455
 4292TIP3    H234368   0.775   4.414  16.502 -1.3947  2.7146  0.7821
 4293TIP3   OH234369   6.290   0.090   1.871  0.4818 -0.0390  0.5602
 4293TIP3    H134370   6.335   0.015   1.832 -0.4385 -0.8937  1.0928
 4293TIP3    H234371   6.202   0.087   1.834  0.3653  0.6481  0.7720
 4294TIP3   OH234372   6.318   5.732  13.427  0.4518 -0.3169  0.4213
 4294TIP3    H134373   6.269   5.812  13.409  0.7744 -0.0178  0.8524
 4294TIP3    H234374   6.401   5.744  13.381  0.7956 -0.0781  1.0958
 4295TIP3   OH234375   5.048   2.415  15.949 -0.4142 -0.0556  0.7097
 4295TIP3    H134376   5.101   2.428  16.027 -0.3888 -1.4135  0.9346
 4295TIP3    H234377   5.020   2.504  15.924 -0.3762  0.4063  2.2107
 4296TIP3   OH234378   2.054   1.605   4.417 -0.1397 -0.1866 -0.0624
 4296TIP3    H134379   2.015   1.673   4.363  1.6366 -0.0572 -1.2780
 4296TIP3    H234380   2.073   1.534   4.356 -1.6100 -1.6801  1.1140
 4297TIP3   OH234381   4.750   0.179   1.500  0.0593 -0.2629 -0.3276
 4297TIP3    H134382   4.689   0.108   1.480  0.5285 -0.4054 -1.2971
 4297TIP3    H234383   4.719   0.252   1.447 -2.4908  1.4391  3.1128
 4298TIP3   OH234384   1.333   5.785   5.457 -0.1514  0.3209 -0.6353
 4298TIP3    H134385   1.283   5.755   5.533  1.1948 -1.8458 -0.5294
 4298TIP3    H234386   1.405   5.835   5.494  0.7840 -1.1452 -0.3922
 4299TIP3   OH234387   3.947   2.018   2.065  0.4243 -0.0493 -0.1898
 4299TIP3    H134388   3.852   2.026   2.080  0.5397  2.6758 -0.3656
 4299TIP3    H234389   3.967   2.085   2.000  2.7205  0.6288  1.1014
 4300TIP3   OH234390   5.637   3.921  16.480  0.0587  0.3888 -0.4083
 4300TIP3    H134391   5.694   3.980  16.431 -3.3220  2.3695 -2.3062
 4300TIP3    H234392   5.609   3.855  16.416  0.6944 -0.9845  0.6693
 4301TIP3   OH234393   6.639   3.022  11.477 -0.0071 -0.8176 -0.7216
 4301TIP3    H134394   6.563   3.072  11.447  0.0054 -0.7639 -0.6655
 4301TIP3    H234395   6.677   2.986  11.397  1.7240  1.7205 -1.1539
 4302TIP3   OH234396   6.758   2.610   2.211  0.0280 -0.2357 -0.4623
 4302TIP3    H134397   6.813   2.671   2.162 -1.9426  0.6789 -1.6748
 4302TIP3    H234398   6.754   2.646   2.299  0.0526  0.5986 -0.7981
 4303TIP3   OH234399   0.956   3.594   3.205  0.1167  0.0465 -0.3924
 4303TIP3    H134400   0.957   3.671   3.147  0.9163  0.7190  0.4822
 4303TIP3    H234401   1.048   3.571   3.216 -0.1716 -1.8229 -1.6192
 4304TIP3   OH234402   5.206   0.216  10.980  0.0881 -0.0477 -0.9446
 4304TIP3    H134403   5.149   0.175  11.046 -0.6286 -0.1242 -1.6011
 4304TIP3    H234404   5.239   0.295  11.023 -2.0276  1.0453 -1.1856
 4305TIP3   OH234405   1.397   3.360  11.725 -0.3163  0.3679  0.4351
 4305TIP3    H134406   1.343   3.396  11.795 -0.1902  0.3529  0.5405
 4305TIP3    H234407   1.437   3.436  11.683 -0.6751  0.4015  0.1435
 4306TIP3   OH234408   2.490   4.484  13.272 -0.4681  0.2598  0.1133
 4306TIP3    H134409   2.421   4.487  13.206 -1.2115  0.7979  0.9004
 4306TIP3    H234410   2.447   4.507  13.354  0.2073 -1.4628  1.0079
 4307TIP3   OH234411   4.127   1.221   0.925  0.1412 -0.7970 -0.2776
 4307TIP3    H134412   4.071   1.227   0.848  0.8877 -0.8235 -0.8252
 4307TIP3    H234413   4.081   1.272   0.992 -0.5381 -0.8255 -0.7160
 4308TIP3   OH234414   0.538   3.334   3.010 -0.1245 -0.8771 -0.1576
 4308TIP3    H134415   0.625   3.296   3.000 -0.4200 -1.5240 -0.3808
 4308TIP3    H234416   0.543   3.419   2.967  1.1111  0.2368  2.0268
 4309TIP3   OH234417   4.406   5.150  10.658  0.4886  0.4542 -0.1772
 4309TIP3    H134418   4.326   5.121  10.615  0.7669  1.2469 -1.2643
 4309TIP3    H234419   4.476   5.104  10.613  0.6351 -0.8503  1.2919
 4310TIP3   OH234420   5.195   2.176  11.504 -0.0404 -0.9480  0.4036
 4310TIP3    H134421   5.219   2.120  11.429 -0.2081  0.7781 -1.0152
 4310TIP3    H234422   5.145   2.118  11.562 -2.9791 -1.5783 -2.4749
 4311TIP3   OH234423   3.643   1.797  14.444  0.0914 -1.1076  0.1697
 4311TIP3    H134424   3.628   1.753  14.528  1.1569  0.1189  1.0447
 4311TIP3    H234425   3.728   1.763  14.415  0.1895 -0.7859  0.0780
 4312TIP3   OH234426   1.206   6.282   1.507  0.2544 -0.7255 -0.2105
 4312TIP3    H134427   1.261   6.324   1.573  0.6884 -0.8685 -0.4744
 4312TIP3    H234428   1.232   6.322   1.424  0.1407 -0.9720 -0.3690
 4313TIP3   OH234429   5.652   2.090   5.957 -0.0600 -0.3070  0.1221
 4313TIP3    H134430   5.629   2.040   5.879  0.9965 -1.8613  0.7549
 4313TIP3    H234431   5.582   2.072   6.019 -0.6751  0.5857 -0.2807
 4314TIP3   OH234432   4.689   5.931  11.765  0.3026 -0.0469 -0.3053
 4314TIP3    H134433   4.686   5.851  11.817 -1.3137  0.1269 -0.1062
 4314TIP3    H234434   4.782   5.957  11.767  0.2853  0.1213  2.7631
 4315TIP3   OH234435   5.888   1.150   0.838  0.4640  0.3257 -0.5371
 4315TIP3    H134436   5.808   1.099   0.830  0.4270  0.2919  0.0190
 4315TIP3    H234437   5.911   1.174   0.748 -0.0223  0.1101 -0.7182
 4316TIP3   OH234438   5.567   6.659  12.337  0.8951  0.0249  0.7229
 4316TIP3    H134439   5.557   6.703  12.422  0.5954 -0.0785  0.7439
 4316TIP3    H234440   5.635   6.709  12.292  1.4968 -0.2931  1.2636
 4317TIP3   OH234441   3.556   4.671  14.958  0.2226 -0.0469  0.6481
 4317TIP3    H134442   3.493   4.734  14.924  1.2653  0.4488 -0.4567
 4317TIP3    H234443   3.599   4.716  15.031  0.8042  0.4580  0.0083
 4318TIP3   OH234444   6.784   3.826  13.212 -0.3248  0.3637 -0.4096
 4318TIP3    H134445   6.742   3.851  13.294 -2.6088 -0.6741 -1.1644
 4318TIP3    H234446   6.826   3.742  13.231  0.5093  0.8756  0.0691
 4319TIP3   OH234447   2.570   3.496   1.144 -0.0726 -0.3704 -0.5046
 4319TIP3    H134448   2.572   3.591   1.141  0.2017 -0.3129  0.7345
 4319TIP3    H234449   2.659   3.471   1.166 -0.3305 -0.8537  0.0396
 4320TIP3   OH234450   5.198   1.906   3.343  0.1428 -0.0121  0.4122
 4320TIP3    H134451   5.163   1.840   3.402 -1.0330 -0.8467 -1.1228
 4320TIP3    H234452   5.270   1.862   3.298  0.2225  0.1917  0.3405
 4321TIP3   OH234453   1.033   0.496  14.480  0.2236  0.3990 -0.0744
 4321TIP3    H134454   1.126   0.509  14.459  0.3064 -0.6426 -0.4109
 4321TIP3    H234455   0.999   0.448  14.404 -0.6397  0.9553 -0.0405
 4322TIP3   OH234456   5.510   0.241   6.487  0.0920  0.0854  0.2305
 4322TIP3    H134457   5.598   0.279   6.491 -0.3446  1.0721  1.4892
 4322TIP3    H234458   5.482   0.254   6.397  0.8557  0.6604  0.0632
 4323TIP3   OH234459   5.843   1.444   4.797 -0.2652  0.9173  0.4524
 4323TIP3    H134460   5.843   1.474   4.888 -0.9654 -1.3380  1.2494
 4323TIP3    H234461   5.752   1.452   4.769 -1.1229 -2.9148  1.6434
 4324TIP3   OH234462   1.325   3.892   2.370  0.1782  0.3875 -0.0538
 4324TIP3    H134463   1.266   3.919   2.441  0.8524  1.7449  0.0280
 4324TIP3    H234464   1.408   3.936   2.390  0.3251  0.9748 -1.7834
 4325TIP3   OH234465   6.594   4.260  11.314  0.0822  0.2057 -0.5551
 4325TIP3    H134466   6.609   4.275  11.408  1.4681  0.6834 -0.8313
 4325TIP3    H234467   6.662   4.199  11.288 -0.3394  0.0214 -1.2473
 4326TIP3   OH234468   5.191   0.217   0.048  0.0812  0.2015  0.4116
 4326TIP3    H134469   5.172   0.274   0.123 -0.5201  0.5624 -0.0008
 4326TIP3    H234470   5.178   0.274  -0.028  0.8463 -0.1131  0.0347
 4327TIP3   OH234471   3.600   2.695  12.951  0.4388 -0.3902  0.0599
 4327TIP3    H134472   3.521   2.749  12.957  0.4729 -0.4468  1.1375
 4327TIP3    H234473   3.660   2.734  13.014  0.1665 -2.1545  1.4715
 4328TIP3   OH234474   0.080   2.937   5.416 -0.1095  0.1073  0.2063
 4328TIP3    H134475   0.072   2.842   5.422  0.2759  0.0971  0.6769
 4328TIP3    H234476   0.007   2.971   5.468  1.0866  0.0384  2.0198
 4329TIP3   OH234477   1.984   6.260  11.633  0.4028 -0.0713  0.2679
 4329TIP3    H134478   2.022   6.328  11.688 -1.6189  0.3331  1.2848
 4329TIP3    H234479   1.913   6.304  11.586  2.4927 -0.2013 -3.4113
 4330TIP3   OH234480   5.464   5.067  13.931 -0.0778  0.7599  0.9484
 4330TIP3    H134481   5.531   5.099  13.991  2.5946 -0.5976 -1.1562
 4330TIP3    H234482   5.492   5.097  13.845 -0.2437 -2.7038 -0.4491
 4331TIP3   OH234483   6.148   5.804   5.196 -0.3923 -0.3150  0.0210
 4331TIP3    H134484   6.185   5.768   5.277 -1.5943 -1.8744 -0.0712
 4331TIP3    H234485   6.222   5.812   5.137  0.8265  2.4105  1.7338
 4332TIP3   OH234486   4.815   5.445   0.158  0.1013 -0.3137 -0.3472
 4332TIP3    H134487   4.885   5.500   0.194  0.8159 -0.4845 -1.4178
 4332TIP3    H234488   4.851   5.412   0.075 -0.6463 -1.7007 -0.1504
 4333TIP3   OH234489   2.484   3.443  12.838  0.3770  0.0154  0.4032
 4333TIP3    H134490   2.409   3.491  12.873  0.7098  0.3374  0.6790
 4333TIP3    H234491   2.559   3.474  12.889  0.9523  0.8633 -0.9066
 4334TIP3   OH234492   0.253   2.982  16.387  0.1398 -0.2666  0.2597
 4334TIP3    H134493   0.232   2.895  16.352 -0.1446 -0.0773 -0.0483
 4334TIP3    H234494   0.343   2.997  16.358  0.0142 -0.2438 -0.1336
 4335TIP3   OH234495   2.530   0.183   3.114 -0.3172  0.5573  0.0988
 4335TIP3    H134496   2.554   0.127   3.187 -0.7592 -0.7203 -0.7016
 4335TIP3    H234497   2.501   0.265   3.155 -1.3582 -0.4245  1.4121
 4336TIP3   OH234498   0.938   5.582   3.486  0.1750  0.2312 -0.2858
 4336TIP3    H134499   0.888   5.510   3.525 -0.9064  0.5513 -1.0622
 4336TIP3    H234500   0.887   5.609   3.410  0.1730  2.3356  0.3992
 4337TIP3   OH234501   4.645   5.796   2.418  0.2476 -0.1049 -0.3596
 4337TIP3    H134502   4.635   5.887   2.390 -0.4972 -0.1596 -0.2874
 4337TIP3    H234503   4.558   5.757   2.403  0.4804 -0.7243 -0.1130
 4338TIP3   OH234504   6.856   1.544  15.928  0.0460  0.1956 -0.0552
 4338TIP3    H134505   6.877   1.568  15.837  0.9993  2.1619  0.6184
 4338TIP3    H234506   6.925   1.483  15.953  1.1326  1.4094  0.0192
 4339TIP3   OH234507   0.573   1.888  11.532 -0.4024 -0.1079  0.0794
 4339TIP3    H134508   0.479   1.890  11.510 -0.1373  0.3788 -1.0907
 4339TIP3    H234509   0.617   1.874  11.448  0.7296  2.8910  0.0576
 4340TIP3   OH234510   2.401   6.065  12.078 -0.4609 -0.9521 -0.3818
 4340TIP3    H134511   2.403   6.158  12.057 -2.5299 -0.8531 -0.3301
 4340TIP3    H234512   2.448   6.023  12.005  0.8660  0.1317 -0.1882
 4341TIP3   OH234513   2.114   0.684   2.888  0.5904  0.0356  0.4441
 4341TIP3    H134514   2.130   0.700   2.795 -0.4349  0.7484  0.3798
 4341TIP3    H234515   2.106   0.589   2.895 -1.9616  0.0817 -0.6728
 4342TIP3   OH234516   3.018   0.092  16.453  0.4579 -0.1688  0.6540
 4342TIP3    H134517   2.953   0.158  16.474 -0.0576 -0.7680  0.9625
 4342TIP3    H234518   2.979   0.009  16.481  1.2939 -0.5507  0.7239
 4343TIP3   OH234519   2.240   5.234   3.513 -0.1397  0.1906  0.0834
 4343TIP3    H134520   2.231   5.148   3.554  1.5025 -0.4051 -0.7454
 4343TIP3    H234521   2.153   5.253   3.478 -0.3498 -1.4596 -0.3536
 4344TIP3   OH234522   1.978   6.120  16.540  0.1816 -0.2953 -0.1273
 4344TIP3    H134523   1.978   6.028  16.566  1.9894 -0.2343  0.2446
 4344TIP3    H234524   2.066   6.134  16.505 -0.3294  1.1005 -0.8967
 4345TIP3   OH234525   5.790   6.135   1.370  0.3411 -0.1273 -0.2818
 4345TIP3    H134526   5.841   6.213   1.393 -1.4281  1.0658 -0.2294
 4345TIP3    H234527   5.778   6.090   1.454 -0.2996  0.6072  0.0352
 4346TIP3   OH234528   0.007   3.084   2.620  0.2670  0.5247  0.0301
 4346TIP3    H134529   0.058   3.066   2.699  1.7057 -0.9769 -1.1512
 4346TIP3    H234530   0.063   3.054   2.549 -1.2524  1.2310 -1.5305
 4347TIP3   OH234531   0.821   5.016  12.165 -0.1736  0.0139 -0.0116
 4347TIP3    H134532   0.854   4.926  12.168 -0.1131  0.0514  0.4827
 4347TIP3    H234533   0.730   5.008  12.135 -0.6671 -0.3552  1.5104
 4348TIP3   OH234534   5.531   6.654  13.784 -0.2044  0.2439  0.3272
 4348TIP3    H134535   5.592   6.706  13.837 -0.8265  0.5921  0.7170
 4348TIP3    H234536   5.501   6.584  13.843 -2.9427  2.1351  1.4269
 4349TIP3   OH234537   2.937   5.291  10.687 -0.4937  0.4109 -0.6146
 4349TIP3    H134538   2.964   5.215  10.738  0.9916 -0.7775 -3.0179
 4349TIP3    H234539   2.846   5.273  10.664 -1.0406  0.7475  1.1187
 4350TIP3   OH234540   6.805   1.268  11.542  0.2598 -0.1805 -0.7972
 4350TIP3    H134541   6.834   1.358  11.524  0.1812  0.3261  1.3188
 4350TIP3    H234542   6.710   1.276  11.554  0.5383 -0.0094  1.8934
 4351TIP3   OH234543   1.029   2.122   2.172  0.2568 -0.3288 -0.6332
 4351TIP3    H134544   1.115   2.149   2.139  0.2357 -1.1848 -1.4440
 4351TIP3    H234545   1.049   2.069   2.250  0.3613  0.8259  0.1534
 4352TIP3   OH234546   1.545   4.810  12.325  0.6949 -0.2847 -0.2330
 4352TIP3    H134547   1.581   4.896  12.346 -1.1824  0.4446  0.1150
 4352TIP3    H234548   1.482   4.827  12.255 -0.6793 -1.1614  0.7546
 4353TIP3   OH234549   2.133   6.556  15.627  0.0677  0.1028  0.4253
 4353TIP3    H134550   2.158   6.573  15.718  0.8347 -2.2992  0.7431
 4353TIP3    H234551   2.062   6.618  15.609  1.1182  1.8678  2.0320
 4354TIP3   OH234552   5.938   6.524  13.793 -0.0184 -0.1247  0.4077
 4354TIP3    H134553   5.909   6.489  13.877 -0.6950 -1.1138 -0.2062
 4354TIP3    H234554   6.021   6.480  13.776 -0.2777 -0.5427  0.1962
 4355TIP3   OH234555   0.589   0.175   5.282 -0.2912 -0.2546 -0.2783
 4355TIP3    H134556   0.646   0.130   5.220 -0.4455 -0.1689 -0.4848
 4355TIP3    H234557   0.503   0.175   5.240 -0.3178  0.1286 -0.2282
 4356TIP3   OH234558   3.799   3.476   2.901  0.3182  0.5694  0.6200
 4356TIP3    H134559   3.877   3.483   2.846  2.6504 -2.8038  3.0708
 4356TIP3    H234560   3.726   3.484   2.839  2.6133  1.0548 -2.2925
 4357TIP3   OH234561   4.215   6.082  13.942 -0.0255  0.1879  0.0457
 4357TIP3    H134562   4.268   6.144  13.993 -1.2792  0.6127  0.8737
 4357TIP3    H234563   4.143   6.135  13.908  0.8437 -0.0508 -2.3546
 4358TIP3   OH234564   1.741   0.855  10.489 -0.1329 -0.3519 -0.0948
 4358TIP3    H134565   1.707   0.929  10.540  2.3356 -1.1568  3.0011
 4358TIP3    H234566   1.786   0.896  10.415  1.2112  1.3237  1.5551
 4359TIP3   OH234567   4.223   6.778  14.503  0.1444  0.1383 -0.2272
 4359TIP3    H134568   4.170   6.848  14.465 -0.0670  0.8031  1.2123
 4359TIP3    H234569   4.174   6.749  14.580  1.1833 -0.2151  0.3283
 4360TIP3   OH234570   4.197   3.107  16.127 -0.0495  0.3699 -0.2866
 4360TIP3    H134571   4.255   3.033  16.144  0.2665  0.8229  0.6514
 4360TIP3    H234572   4.256   3.176  16.095  0.2608  1.4133  2.3022
 4361TIP3   OH234573   5.280   1.333  14.725 -0.4097 -0.2081 -0.0836
 4361TIP3    H134574   5.283   1.427  14.747 -0.5326  0.1524 -1.5058
 4361TIP3    H234575   5.323   1.290  14.799 -0.2598  0.9820  0.5527
 4362TIP3   OH234576   6.496   3.968  10.911 -0.4228 -0.2278 -0.5985
 4362TIP3    H134577   6.534   3.880  10.903  0.2810 -0.0215  0.2197
 4362TIP3    H234578   6.477   3.995  10.822  0.3097 -0.8094 -0.9375
 4363TIP3   OH234579   5.513   3.063  14.187  0.0949  0.5021 -0.4121
 4363TIP3    H134580   5.443   2.998  14.188 -1.1262  1.7565 -1.4330
 4363TIP3    H234581   5.593   3.011  14.175 -0.7144 -0.8943  0.0236
 4364TIP3   OH234582   3.591   1.102  11.417  0.8049 -0.3416 -0.3423
 4364TIP3    H134583   3.514   1.140  11.374 -0.3800  2.9486  4.0179
 4364TIP3    H234584   3.665   1.153  11.385  0.4013  0.0735 -0.6189
 4365TIP3   OH234585   4.097   3.933   1.031 -0.8691 -0.3989  0.2179
 4365TIP3    H134586   4.015   3.921   1.079 -0.4311 -1.3526  0.7652
 4365TIP3    H234587   4.142   3.849   1.039  0.7604  0.5042  1.0835
 4366TIP3   OH234588   2.802   0.725   0.675  1.1925 -0.2751  0.8088
 4366TIP3    H134589   2.721   0.722   0.624  1.3117 -2.4482  0.6585
 4366TIP3    H234590   2.802   0.813   0.714 -0.5139  0.2826 -0.3015
 4367TIP3   OH234591   3.790   5.711  14.996 -0.7679 -0.3614  0.1083
 4367TIP3    H134592   3.750   5.646  14.938 -0.3409 -0.9497  0.4637
 4367TIP3    H234593   3.743   5.792  14.977  0.4757 -0.0980 -2.3541
 4368TIP3   OH234594   0.853   2.884   5.578 -0.0637  0.0523  0.1210
 4368TIP3    H134595   0.928   2.914   5.629 -0.1184  0.2594  0.0844
 4368TIP3    H234596   0.891   2.840   5.502  0.0162 -0.2922  0.3630
 4369TIP3   OH234597   0.674   5.478   5.281  0.1975  0.0770  0.3674
 4369TIP3    H134598   0.644   5.407   5.339  0.5312 -1.8287 -1.6531
 4369TIP3    H234599   0.676   5.555   5.337  0.3406 -1.6065  2.8363
 4370TIP3   OH234600   1.471   2.593   2.574  0.4463  0.2399 -0.1203
 4370TIP3    H134601   1.504   2.572   2.662 -1.0852  0.5079  0.5526
 4370TIP3    H234602   1.445   2.685   2.579  1.3845  0.5900 -1.2165
 4371TIP3   OH234603   3.873   3.562   4.840 -0.3833 -0.2681  0.4036
 4371TIP3    H134604   3.819   3.573   4.918  0.7357 -1.3271  1.3577
 4371TIP3    H234605   3.861   3.470   4.816  0.7315 -0.4317  0.4411
 4372TIP3   OH234606   5.122   3.352  15.147 -0.2440 -0.1367  0.0375
 4372TIP3    H134607   5.165   3.339  15.232  0.1963 -1.0697 -0.3123
 4372TIP3    H234608   5.093   3.265  15.122  1.2643 -0.2228 -1.6182
 4373TIP3   OH234609   1.243   2.644  11.520  0.1574  0.6716  0.6669
 4373TIP3    H134610   1.217   2.734  11.504 -1.6848 -0.0311 -0.7438
 4373TIP3    H234611   1.286   2.616  11.439 -0.9204 -0.2028  0.3588
 4374TIP3   OH234612   4.629   4.341   4.966 -0.2877 -0.1965  0.4311
 4374TIP3    H134613   4.625   4.427   5.007 -0.2282  0.0852 -0.1448
 4374TIP3    H234614   4.602   4.356   4.876 -0.3932 -0.8051  0.3577
 4375TIP3   OH234615   2.681   0.930  14.882 -0.0405 -0.4311  0.4600
 4375TIP3    H134616   2.617   0.911  14.814  1.1341 -0.0969 -0.7650
 4375TIP3    H234617   2.659   1.018  14.912  0.6527  0.2299 -0.9174
 4376TIP3   OH234618   5.550   2.762   4.470  0.6670 -0.6506  0.0205
 4376TIP3    H134619   5.566   2.728   4.382  1.1106 -0.8817  0.1839
 4376TIP3    H234620   5.636   2.758   4.513  0.8513  1.1608 -0.1094
 4377TIP3   OH234621   1.248   4.812   5.165 -0.4332 -0.8808  0.8292
 4377TIP3    H134622   1.205   4.730   5.188  0.4258 -1.5896 -0.0174
 4377TIP3    H234623   1.297   4.837   5.243  1.4418 -2.5915  0.2856
 4378TIP3   OH234624   6.806   4.414   1.707  0.3179 -0.2782 -0.7030
 4378TIP3    H134625   6.802   4.326   1.669 -0.4136 -0.6817  0.2855
 4378TIP3    H234626   6.863   4.405   1.783 -1.6746 -0.4883  0.8531
 4379TIP3   OH234627   4.745   2.460   0.614  0.3682 -0.0440  0.1795
 4379TIP3    H134628   4.777   2.521   0.681  0.3181  0.5451 -0.3182
 4379TIP3    H234629   4.787   2.377   0.635  1.3397  0.4311  0.2166
 4380TIP3   OH234630   2.814   5.563   5.786  0.1587 -0.3595 -0.4921
 4380TIP3    H134631   2.864   5.505   5.729  3.9054  1.6382  0.4216
 4380TIP3    H234632   2.755   5.610   5.727  1.6957 -0.5244 -2.2597
 4381TIP3   OH234633   3.194   4.791  13.620  0.1203 -0.0485  0.3392
 4381TIP3    H134634   3.203   4.864  13.682  1.8043 -0.0434  0.1353
 4381TIP3    H234635   3.214   4.830  13.535 -1.0530 -0.3111 -0.0665
 4382TIP3   OH234636   0.437   2.240  10.160  0.7312  0.2946  0.2391
 4382TIP3    H134637   0.451   2.195  10.077  4.0271  0.5628  0.5212
 4382TIP3    H234638   0.460   2.176  10.227  0.7338  0.9078  0.8413
 4383TIP3   OH234639   3.810   2.688  14.177  0.2383  0.0091 -0.7950
 4383TIP3    H134640   3.856   2.604  14.169  0.9408  0.3617 -0.5536
 4383TIP3    H234641   3.880   2.753  14.178 -0.1716  0.4643  1.1144
 4384TIP3   OH234642   4.294   3.359   3.728  0.1943 -0.4588  0.6949
 4384TIP3    H134643   4.303   3.431   3.666 -0.5359 -0.7659  0.2160
 4384TIP3    H234644   4.341   3.286   3.688 -0.5372 -0.7484  0.3333
 4385TIP3   OH234645   3.008   6.503   0.378 -0.4765 -0.4870 -0.4934
 4385TIP3    H134646   3.018   6.576   0.440 -1.2083 -1.5856  0.9753
 4385TIP3    H234647   3.088   6.506   0.326 -0.9637  2.0377 -1.2681
 4386TIP3   OH234648   4.629   1.640   2.543 -0.7427  0.0768 -0.1801
 4386TIP3    H134649   4.705   1.585   2.562 -1.2157 -0.3083  0.6051
 4386TIP3    H234650   4.661   1.730   2.555 -0.0103 -0.0077 -1.3167
 4387TIP3   OH234651   6.706   2.755   5.258  0.0943 -0.3401 -0.3462
 4387TIP3    H134652   6.618   2.742   5.294  1.2726 -1.2523  2.4061
 4387TIP3    H234653   6.696   2.829   5.198 -2.5020 -0.2961  0.0381
 4388TIP3   OH234654   1.314   2.360   4.255 -0.2981 -0.0656 -0.5160
 4388TIP3    H134655   1.291   2.320   4.171  0.6954 -1.9311  0.0399
 4388TIP3    H234656   1.264   2.310   4.319  2.1773 -1.5803  0.3507
 4389TIP3   OH234657   1.758   1.648   6.529 -0.0705  0.0123  0.3111
 4389TIP3    H134658   1.707   1.677   6.453 -0.3715 -0.6879  0.2435
 4389TIP3    H234659   1.782   1.729   6.574  1.0919  0.5356 -1.1518
 4390TIP3   OH234660   5.045   5.155   1.052  0.1954 -0.2596 -0.5113
 4390TIP3    H134661   5.118   5.131   0.995  1.7012 -0.1703  1.2568
 4390TIP3    H234662   5.061   5.247   1.074 -0.2666 -0.3171  0.1010
 4391TIP3   OH234663   5.333   6.739   0.936 -0.7264  0.2264  0.3707
 4391TIP3    H134664   5.378   6.676   0.879 -1.1775  0.2585 -0.0239
 4391TIP3    H234665   5.399   6.806   0.953  0.0247 -0.7340  1.4510
 4392TIP3   OH234666   6.733   2.620   3.897 -0.3838 -0.4197 -0.3056
 4392TIP3    H134667   6.648   2.625   3.939 -0.5073  1.7857 -0.7367
 4392TIP3    H234668   6.714   2.590   3.808 -0.8472  1.0569 -0.7196
 4393TIP3   OH234669   4.990   1.581  13.648  0.6778  0.3417 -0.4373
 4393TIP3    H134670   5.046   1.630  13.709 -0.2465  1.6084 -0.5711
 4393TIP3    H234671   5.018   1.610  13.561  2.0228 -1.4945 -0.6893
 4394TIP3   OH234672   1.057   0.845  15.532 -0.4088 -0.7536 -0.5152
 4394TIP3    H134673   0.962   0.857  15.534 -0.3029  0.5655  2.7150
 4394TIP3    H234674   1.075   0.780  15.599  1.1051  1.3178  1.2488
 4395TIP3   OH234675   3.689   0.209   2.852  0.6963  0.0562  0.4027
 4395TIP3    H134676   3.671   0.186   2.761 -1.6243 -1.9666  1.2322
 4395TIP3    H234677   3.635   0.286   2.869  1.8617  1.0159 -0.1407
 4396TIP3   OH234678   6.583   2.246  16.498 -0.0515 -0.3400 -0.5621
 4396TIP3    H134679   6.584   2.273  16.406 -0.0638 -1.6210 -0.9607
 4396TIP3    H234680   6.544   2.158  16.497 -2.0295  0.4365  0.9107
 4397TIP3   OH234681   5.671   4.109   6.052 -0.1602  0.6458 -0.6096
 4397TIP3    H134682   5.682   4.195   6.093 -1.4355  0.0172  1.1455
 4397TIP3    H234683   5.691   4.124   5.960  2.4432  2.2182  0.0904
 4398TIP3   OH234684   5.407   1.421   0.030  0.7136 -0.0368  0.3301
 4398TIP3    H134685   5.435   1.415  -0.061  0.4714  2.8764 -0.0399
 4398TIP3    H234686   5.486   1.448   0.077  0.3403  0.6457  0.5784
 4399TIP3   OH234687   6.253   3.838  11.366 -0.1961 -0.2954 -0.2171
 4399TIP3    H134688   6.234   3.931  11.378  1.6536  0.1681 -0.5966
 4399TIP3    H234689   6.305   3.814  11.442  1.6359 -0.2977 -1.4122
 4400TIP3   OH234690   5.291   2.091  13.489 -0.7467  0.7475  0.4552
 4400TIP3    H134691   5.323   2.046  13.412 -1.2115  2.1099 -0.5713
 4400TIP3    H234692   5.360   2.080  13.554 -1.0031 -1.7157  0.3985
 4401TIP3   OH234693   5.018   1.685  12.132  0.3134 -0.2932 -0.8494
 4401TIP3    H134694   5.011   1.769  12.177  0.8111 -0.8903  0.3973
 4401TIP3    H234695   4.928   1.656  12.121  0.1379  0.4073 -1.3131
 4402TIP3   OH234696   5.322   6.163  14.199  0.3260 -0.4285  0.2760
 4402TIP3    H134697   5.312   6.070  14.180 -0.2873 -0.6188  1.4032
 4402TIP3    H234698   5.248   6.205  14.156  0.5410 -0.4749 -0.1412
 4403TIP3   OH234699   6.010   0.213   0.967 -0.4054 -0.0549 -0.2322
 4403TIP3    H134700   6.050   0.252   0.889 -1.4068 -0.4483 -0.9763
 4403TIP3    H234701   6.057   0.252   1.040  1.3184 -0.4946 -1.0480
 4404TIP3   OH234702   6.591   0.439   2.385 -0.2972  0.9384  0.4344
 4404TIP3    H134703   6.584   0.345   2.369  0.3911  0.9069  0.2844
 4404TIP3    H234704   6.630   0.445   2.472  1.0020  1.0628 -0.1370
 4405TIP3   OH234705   2.775   1.737   2.066  0.0092 -0.0610  0.2352
 4405TIP3    H134706   2.788   1.831   2.081 -1.7726  0.6551 -2.1652
 4405TIP3    H234707   2.724   1.708   2.141  0.1704  0.9962  0.7745
 4406TIP3   OH234708   3.120   3.192  12.704  0.3122 -0.0074 -0.6222
 4406TIP3    H134709   3.042   3.218  12.754 -0.3455 -0.3664 -1.4318
 4406TIP3    H234710   3.129   3.098  12.720 -1.5852 -0.7665 -3.3225
 4407TIP3   OH234711   4.485   2.695   2.194 -0.4015 -0.3532 -0.4047
 4407TIP3    H134712   4.567   2.743   2.204  0.3495 -1.7043  0.2021
 4407TIP3    H234713   4.511   2.603   2.191 -1.7084 -0.7335 -2.3227
 4408TIP3   OH234714   2.908   0.756   3.501  0.2198 -0.8236 -0.1783
 4408TIP3    H134715   2.958   0.674   3.496  0.7479 -0.5292  0.2603
 4408TIP3    H234716   2.964   0.820   3.457  0.9665 -0.1365  1.6779
 4409TIP3   OH234717   2.166   5.048  13.011 -0.0710 -0.1882  0.3417
 4409TIP3    H134718   2.106   4.974  13.006  0.2558 -0.4121 -0.2893
 4409TIP3    H234719   2.198   5.060  12.921 -0.8791  1.3424  0.2109
 4410TIP3   OH234720   6.652   0.330   1.136 -0.1289  0.3092 -0.0961
 4410TIP3    H134721   6.637   0.422   1.158  0.3361  0.7849 -1.6720
 4410TIP3    H234722   6.576   0.304   1.085  0.4149  0.2499 -0.8874
 4411TIP3   OH234723   5.057   4.974   5.229 -0.3113  0.3989 -0.5128
 4411TIP3    H134724   4.967   4.948   5.251 -0.1218 -0.7677 -1.0732
 4411TIP3    H234725   5.106   4.962   5.310 -0.5728  0.6909 -0.3060
 4412TIP3   OH234726   5.176   0.353   0.294 -0.4662 -0.5627 -0.4106
 4412TIP3    H134727   5.117   0.379   0.365  0.2354  2.8119 -0.8907
 4412TIP3    H234728   5.261   0.340   0.337 -0.3593  0.0736 -0.4192
 4413TIP3   OH234729   4.289   5.626  12.295 -0.6112  0.1509 -0.4806
 4413TIP3    H134730   4.236   5.558  12.253 -2.1751  0.7619  0.4334
 4413TIP3    H234731   4.230   5.669  12.356  1.4240 -0.4135  2.1229
 4414TIP3   OH234732   6.124   6.328  15.356 -0.5359  0.1683 -0.2415
 4414TIP3    H134733   6.051   6.270  15.334  0.8467 -2.7607  2.1848
 4414TIP3    H234734   6.198   6.295  15.304  0.1758 -0.0267  0.8578
 4415TIP3   OH234735   3.197   4.504  14.806  0.0250 -0.0293  0.8167
 4415TIP3    H134736   3.134   4.548  14.749 -0.8936 -1.9172  0.3017
 4415TIP3    H234737   3.173   4.412  14.802  3.5604 -1.0589 -0.3771
 4416TIP3   OH234738   3.934   4.840   3.077  0.2311 -0.3398  0.6533
 4416TIP3    H134739   3.910   4.917   3.025  2.4049  0.2943  0.4819
 4416TIP3    H234740   3.996   4.793   3.022 -0.3215 -1.7293  1.1650
 4417TIP3   OH234741   5.810   0.939  15.518  0.0086  0.1376  0.0234
 4417TIP3    H134742   5.794   1.005  15.585  2.5689  4.2228 -2.9099
 4417TIP3    H234743   5.902   0.915  15.528  0.4385  0.8213 -1.9035
 4418TIP3   OH234744   6.735   3.344  15.112 -0.4258 -0.2420  0.4416
 4418TIP3    H134745   6.776   3.370  15.195  1.6486  0.0082 -0.5939
 4418TIP3    H234746   6.716   3.427  15.068  1.0352 -0.3606 -0.4752
 4419TIP3   OH234747   0.151   5.936  13.084 -0.0416  0.2024  0.1302
 4419TIP3    H134748   0.076   5.892  13.044  0.8156 -0.9282 -0.2927
 4419TIP3    H234749   0.142   6.028  13.057 -1.2965  0.1116  0.1544
 4420TIP3   OH234750   4.334   1.582  11.391  0.4937 -0.0895 -0.2196
 4420TIP3    H134751   4.398   1.565  11.460  0.9056  0.7383 -0.3884
 4420TIP3    H234752   4.312   1.495  11.357  0.2855 -0.4985  0.9429
 4421TIP3   OH234753   4.308   3.367   2.497  0.1230 -0.0329  0.5060
 4421TIP3    H134754   4.385   3.310   2.501  1.5843  1.6703 -1.4095
 4421TIP3    H234755   4.251   3.325   2.432  0.4876 -0.0876  0.2206
 4422TIP3   OH234756   3.304   5.117   5.774 -0.2306  0.0474 -0.2859
 4422TIP3    H134757   3.326   5.209   5.794 -1.6803  0.4635 -0.5081
 4422TIP3    H234758   3.338   5.068   5.849 -0.4004  0.8976  0.3683
 4423TIP3   OH234759   1.477   0.390   1.851  0.2748 -0.2502  0.0340
 4423TIP3    H134760   1.521   0.407   1.768 -0.3803 -1.6522 -0.6296
 4423TIP3    H234761   1.509   0.304   1.878 -0.8244 -0.5717  0.3623
 4424TIP3   OH234762   5.822   4.664   2.786  0.3855  0.0011 -0.1825
 4424TIP3    H134763   5.890   4.720   2.822 -1.2672  0.8354  1.8722
 4424TIP3    H234764   5.789   4.614   2.861 -0.5580 -1.1414 -1.3000
 4425TIP3   OH234765   4.417   1.752  12.032  0.2476  0.2393  0.1285
 4425TIP3    H134766   4.491   1.749  12.093  0.6187  2.0120 -0.1728
 4425TIP3    H234767   4.438   1.825  11.973 -0.9040 -0.3612 -1.0761
 4426TIP3   OH234768   0.143   3.050  14.655  0.2278  0.5823 -0.0054
 4426TIP3    H134769   0.106   3.056  14.743  2.2078 -0.0901  0.9269
 4426TIP3    H234770   0.187   3.134  14.641 -0.9596  1.1079 -0.8315
 4427TIP3   OH234771   3.675   5.475   2.868 -0.2711 -0.3360 -0.2869
 4427TIP3    H134772   3.659   5.498   2.776  0.9785 -0.1866 -0.4760
 4427TIP3    H234773   3.709   5.555   2.908 -0.2312 -0.5733  0.1592
 4428TIP3   OH234774   3.577   3.567   6.253  0.2037 -0.4240 -0.3850
 4428TIP3    H134775   3.582   3.657   6.287  0.8589  0.3370 -2.3414
 4428TIP3    H234776   3.498   3.567   6.198 -1.0563 -1.7337  1.3247
 4429TIP3   OH234777   5.901   3.481   0.960  0.1060  0.2351  0.1490
 4429TIP3    H134778   5.949   3.552   1.003 -0.7138  0.0793  1.3724
 4429TIP3    H234779   5.862   3.523   0.884  0.8149  0.7509  0.0542
 4430TIP3   OH234780   3.272   1.321   0.489  0.3051  0.5405 -0.3073
 4430TIP3    H134781   3.229   1.249   0.442 -1.3272  0.3296  1.3904
 4430TIP3    H234782   3.254   1.303   0.581  1.3147  2.2408  0.2556
 4431TIP3   OH234783   0.154   1.107  16.464 -0.5383 -0.0853  0.2676
 4431TIP3    H134784   0.232   1.096  16.410 -0.7481 -0.1341 -0.0302
 4431TIP3    H234785   0.090   1.046  16.426 -0.9251  0.4075  0.1182
 4432TIP3   OH234786   4.424   3.104   4.347  0.1086  0.4914 -0.0323
 4432TIP3    H134787   4.370   3.148   4.281 -0.0936 -0.6778 -0.6606
 4432TIP3    H234788   4.514   3.128   4.323 -0.0574  1.6854  0.4660
 4433TIP3   OH234789   0.410   5.667   1.975 -0.4049 -0.5709  0.1780
 4433TIP3    H134790   0.350   5.593   1.971 -0.9721 -0.1863  1.1067
 4433TIP3    H234791   0.381   5.726   1.905 -1.2635 -0.2884  0.7616
 4434TIP3   OH234792   6.743   4.317   4.502 -0.3477 -0.2252  0.0269
 4434TIP3    H134793   6.704   4.329   4.588 -0.2135  0.8175 -0.0446
 4434TIP3    H234794   6.672   4.335   4.440  0.0582  1.0079 -0.0955
 4435TIP3   OH234795   3.880   6.691   6.508  0.3026  0.4638  0.2193
 4435TIP3    H134796   3.927   6.661   6.585  1.6737 -0.2896 -0.8636
 4435TIP3    H234797   3.949   6.724   6.449 -0.6718  0.7527 -0.7947
 4436TIP3   OH234798   6.677   4.239  11.605  0.0263 -0.3687  0.3555
 4436TIP3    H134799   6.767   4.271  11.603  0.6397 -2.0135 -1.7330
 4436TIP3    H234800   6.679   4.160  11.659  0.1526 -1.1699 -0.7916
 4437TIP3   OH234801   0.656   2.967  16.742  0.1888  0.3506 -0.2727
 4437TIP3    H134802   0.690   2.982  16.830  2.4950  3.0953 -1.4806
 4437TIP3    H234803   0.560   2.969  16.752  0.3801 -0.0172  2.1878
 4438TIP3   OH234804   2.693   2.707  13.705  0.0306 -0.5043 -0.6586
 4438TIP3    H134805   2.667   2.615  13.710 -0.1043 -0.4068  1.8837
 4438TIP3    H234806   2.639   2.751  13.771 -0.1491  1.5058 -2.0365
 4439TIP3   OH234807   4.106   2.707   5.353 -0.8754  0.0383 -0.3744
 4439TIP3    H134808   4.085   2.614   5.366 -1.4521  0.2779  0.4891
 4439TIP3    H234809   4.200   2.707   5.336 -0.3063 -0.5141  2.2655
 4440TIP3   OH234810   4.608   3.965   1.888  0.0761  0.4617 -0.2758
 4440TIP3    H134811   4.548   4.031   1.925 -0.2301  0.8193 -1.3645
 4440TIP3    H234812   4.551   3.892   1.864  0.3281  0.0651  0.3128
 4441TIP3   OH234813   0.453   6.201   3.309  0.0355 -0.2756 -0.3114
 4441TIP3    H134814   0.527   6.148   3.340 -0.1135 -0.1584  0.2529
 4441TIP3    H234815   0.422   6.247   3.387 -0.1662  0.2469 -0.6949
 4442TIP3   OH234816   4.829   2.381   2.601 -0.0944  0.0894  0.7182
 4442TIP3    H134817   4.832   2.448   2.532  0.6365  0.1394  0.7947
 4442TIP3    H234818   4.798   2.303   2.556 -0.5447  0.3663  0.5367
 4443TIP3   OH234819   2.350   6.408   2.691  0.0347 -0.2539 -0.2614
 4443TIP3    H134820   2.284   6.349   2.656 -0.6784  0.9377 -1.0251
 4443TIP3    H234821   2.430   6.387   2.643 -0.3484 -0.2337 -0.9132
 4444TIP3   OH234822   5.701   0.423  13.135 -0.2384  0.4911  0.1240
 4444TIP3    H134823   5.791   0.453  13.123  0.3674 -0.3644  2.0880
 4444TIP3    H234824   5.707   0.327  13.132 -1.5864  0.3864 -2.5625
 4445TIP3   OH234825   2.294   0.435  14.470 -0.4525 -0.4980 -0.4735
 4445TIP3    H134826   2.231   0.363  14.465 -0.1067 -0.8712  0.4411
 4445TIP3    H234827   2.343   0.430  14.387 -0.7336 -1.0309 -0.6095
 4446TIP3   OH234828   4.762   0.931   4.181 -0.2089 -0.1094 -0.8294
 4446TIP3    H134829   4.694   0.876   4.219  1.0078  0.9690  3.4955
 4446TIP3    H234830   4.725   1.020   4.184  0.9642  0.3809  0.8493
 4447TIP3   OH234831   2.434   0.746   2.276 -0.3005 -0.2976  0.3415
 4447TIP3    H134832   2.495   0.679   2.306  0.2390 -1.0823 -2.2636
 4447TIP3    H234833   2.348   0.703   2.278 -0.1377 -0.6551 -0.0627
 4448TIP3   OH234834   6.031   1.788   6.089 -0.0160  0.4160 -0.6266
 4448TIP3    H134835   6.028   1.696   6.063  1.5658  0.4346 -0.9464
 4448TIP3    H234836   6.025   1.786   6.184  1.1335 -0.1091 -0.5501
 4449TIP3   OH234837   2.352   4.526   0.305  0.7494 -0.3599  0.0228
 4449TIP3    H134838   2.445   4.509   0.291  1.2687  1.9667  0.2590
 4449TIP3    H234839   2.350   4.603   0.362 -1.2958  0.4814 -1.0624
 4450TIP3   OH234840   4.902   6.335   0.423  0.0588  0.2763 -0.1844
 4450TIP3    H134841   4.884   6.359   0.514 -0.7131  0.1768 -0.3090
 4450TIP3    H234842   4.827   6.368   0.374  0.5046  0.3821 -0.7961
 4451TIP3   OH234843   6.817   2.631   0.817 -0.5391  0.5382  0.0812
 4451TIP3    H134844   6.749   2.653   0.881 -0.1032  1.4426  0.2461
 4451TIP3    H234845   6.865   2.559   0.859 -0.5082  0.8519  0.6004
 4452TIP3   OH234846   5.731   1.892   0.010  0.4740  0.3509  0.2838
 4452TIP3    H134847   5.761   1.975   0.048 -0.5648  0.0781  1.7587
 4452TIP3    H234848   5.636   1.894   0.018  0.4411 -1.0799  0.5952
 4453TIP3   OH234849   6.847   4.035   3.629  0.2268 -0.5246 -0.6211
 4453TIP3    H134850   6.891   4.052   3.711 -0.7520  0.5946 -0.2912
 4453TIP3    H234851   6.781   4.105   3.622 -0.8958 -1.6194 -1.4877
 4454TIP3   OH234852   3.824   2.983  11.510  0.0822  0.4353  0.0681
 4454TIP3    H134853   3.763   3.023  11.447  1.0285 -0.1777 -1.2849
 4454TIP3    H234854   3.909   3.019  11.486  0.7414 -1.2317 -0.2409
 4455TIP3   OH234855   1.567   1.807   2.162 -0.7390 -0.2699  0.3526
 4455TIP3    H134856   1.476   1.820   2.133 -1.0492 -1.9696  0.4702
 4455TIP3    H234857   1.583   1.714   2.149  0.3772 -0.3566  2.0950
 4456TIP3   OH234858   1.419   5.740  15.381 -0.3134 -0.3552 -0.0430
 4456TIP3    H134859   1.343   5.683  15.368 -1.3495  0.6545  1.2397
 4456TIP3    H234860   1.399   5.819  15.330  0.2460 -0.3884 -0.3185
 4457TIP3   OH234861   6.039   2.780  10.565  1.0553  0.1711 -0.1785
 4457TIP3    H134862   5.969   2.780  10.500  2.2298  3.2467 -1.6329
 4457TIP3    H234863   6.106   2.722  10.528  0.0379 -1.4213  0.3945
 4458TIP3   OH234864   2.097   6.566  14.693 -0.0490  0.3504  0.3788
 4458TIP3    H134865   2.183   6.523  14.693  0.1638  0.6767  2.5134
 4458TIP3    H234866   2.114   6.652  14.653  0.7503  0.6299  1.2907
 4459TIP3   OH234867   6.316   4.384   5.568 -0.1814 -0.0037 -0.5379
 4459TIP3    H134868   6.326   4.470   5.527  0.0979 -0.4325 -1.3957
 4459TIP3    H234869   6.360   4.392   5.652 -2.4301  1.4860  0.5943
 4460TIP3   OH234870   4.287   5.260  15.837 -0.0844 -0.0702  0.0713
 4460TIP3    H134871   4.259   5.351  15.844  0.8520  0.1600  1.0649
 4460TIP3    H234872   4.222   5.211  15.887 -0.9839 -0.0524 -1.0454
 4461TIP3   OH234873   6.450   0.088  11.781 -0.3315  0.3762 -0.2871
 4461TIP3    H134874   6.493   0.115  11.862 -1.3463  0.9444  0.0829
 4461TIP3    H234875   6.516   0.100  11.713 -0.3604  2.8327  0.0168
 4462TIP3   OH234876   3.962   3.569   4.104 -0.4379  0.2311  0.6209
 4462TIP3    H134877   3.925   3.647   4.063 -1.9464 -1.0284 -0.5728
 4462TIP3    H234878   3.984   3.512   4.030 -1.8701 -1.5306  1.4690
 4463TIP3   OH234879   4.431   2.519  15.068  0.2062  0.5243  0.0821
 4463TIP3    H134880   4.507   2.568  15.101  0.7368  0.1890 -0.6151
 4463TIP3    H234881   4.356   2.571  15.093  0.7207  1.3122  0.0135
 4464TIP3   OH234882   5.549   5.181   4.623 -0.0845 -0.3924  0.0558
 4464TIP3    H134883   5.481   5.130   4.578 -1.9609 -0.6345  2.9288
 4464TIP3    H234884   5.622   5.121   4.634 -0.5149 -1.0341 -0.5594
 4465TIP3   OH234885   3.029   3.614  13.177  0.2982  0.2085  0.2611
 4465TIP3    H134886   3.007   3.707  13.185 -0.9201 -0.0096 -0.3249
 4465TIP3    H234887   3.065   3.591  13.262 -1.1356  0.7846  1.0559
 4466TIP3   OH234888   5.855   2.926  11.517  0.3734  0.3917 -0.0926
 4466TIP3    H134889   5.936   2.896  11.558  0.5688 -1.5486 -1.7434
 4466TIP3    H234890   5.817   2.848  11.477 -0.7246  1.8041 -2.0183
 4467TIP3   OH234891   1.993   2.786   1.185  0.4492  0.0762  0.1647
 4467TIP3    H134892   2.054   2.825   1.122  0.3712  0.8914  0.5733
 4467TIP3    H234893   1.975   2.857   1.248 -0.4144 -0.3442  0.4124
 4468TIP3   OH234894   1.162   0.198  13.309  0.0017 -0.3018  0.1015
 4468TIP3    H134895   1.211   0.119  13.331 -0.4893 -0.8310 -0.6643
 4468TIP3    H234896   1.071   0.169  13.301 -0.0715  0.1669 -1.0344
 4469TIP3   OH234897   3.458   5.337  15.600 -0.0311 -0.0416  0.2135
 4469TIP3    H134898   3.429   5.386  15.523 -1.2006  1.4698  1.5446
 4469TIP3    H234899   3.546   5.370  15.618  0.3233 -0.5419 -0.5793
 4470TIP3   OH234900   3.599   3.124   5.250 -0.2141 -0.1520  0.3508
 4470TIP3    H134901   3.519   3.129   5.301 -0.2650 -1.1083  0.3899
 4470TIP3    H234902   3.570   3.097   5.163 -0.0276  0.4572  0.0971
 4471TIP3   OH234903   4.615   6.219   0.458  0.2353 -0.3449  0.2648
 4471TIP3    H134904   4.536   6.177   0.491  1.0379 -1.4025  0.8726
 4471TIP3    H234905   4.630   6.293   0.517  0.1282 -0.5981  0.6091
 4472TIP3   OH234906   0.830   5.301   6.336  0.3772  0.6755 -0.6454
 4472TIP3    H134907   0.813   5.395   6.340  0.2669  0.6456  2.3173
 4472TIP3    H234908   0.921   5.294   6.306  1.3950  1.9988  1.7578
 4473TIP3   OH234909   1.325   5.235  15.737  0.9216  0.1394  0.2315
 4473TIP3    H134910   1.323   5.260  15.829  1.0439 -2.5809  1.0820
 4473TIP3    H234911   1.236   5.204  15.719  1.3884 -1.1338  0.0287
 4474TIP3   OH234912   5.842   4.049   4.140 -0.8168 -0.1076  0.0588
 4474TIP3    H134913   5.850   3.954   4.146 -1.1976 -0.0736  1.4384
 4474TIP3    H234914   5.929   4.079   4.113 -0.6128 -0.8207 -0.0977
 4475TIP3   OH234915   4.680   0.919  14.370  0.3836  0.3534  0.1129
 4475TIP3    H134916   4.591   0.924  14.405  0.9148  2.7387  1.3571
 4475TIP3    H234917   4.737   0.926  14.447  1.6206  1.4738 -0.8423
 4476TIP3   OH234918   4.966   0.336  11.611  0.2590  0.1370 -0.3037
 4476TIP3    H134919   4.959   0.254  11.660 -0.4737 -0.9147 -2.0571
 4476TIP3    H234920   4.953   0.404  11.676 -2.7668 -1.2315  0.7034
 4477TIP3   OH234921   4.653   4.574   3.313  0.2704  0.3191  0.1167
 4477TIP3    H134922   4.681   4.483   3.320 -1.7399 -0.4154 -0.5666
 4477TIP3    H234923   4.645   4.604   3.403  0.4065 -0.3712  0.3639
 4478TIP3   OH234924   5.175   1.924   2.911 -0.1805 -0.1331  0.2646
 4478TIP3    H134925   5.129   1.852   2.954 -0.7271 -1.2382 -2.0397
 4478TIP3    H234926   5.141   1.924   2.822  2.3187  0.7944 -0.7626
 4479TIP3   OH234927   6.427   2.752  12.663 -0.6683 -0.3840  0.6044
 4479TIP3    H134928   6.462   2.707  12.740 -0.4247 -0.2857  0.5535
 4479TIP3    H234929   6.350   2.701  12.638 -0.2619 -0.9115  0.4109
 4480TIP3   OH234930   6.784   6.189   1.898 -0.1525 -0.4009 -0.4088
 4480TIP3    H134931   6.829   6.137   1.964 -0.8255 -0.6164 -0.1107
 4480TIP3    H234932   6.694   6.157   1.899  0.0484 -1.1043 -2.1461
 4481TIP3   OH234933   4.124   1.611  15.412  0.1792 -0.3058 -0.5884
 4481TIP3    H134934   4.162   1.638  15.496 -1.9482 -1.8933  0.9906
 4481TIP3    H234935   4.083   1.690  15.377  0.6037  0.2449  0.1402
 4482TIP3   OH234936   4.103   5.461  13.556 -0.3119 -0.0069  0.0148
 4482TIP3    H134937   4.033   5.417  13.603 -1.6123  1.3932 -0.5499
 4482TIP3    H234938   4.112   5.546  13.598  0.3724  0.2194 -0.5529
 4483TIP3   OH234939   4.223   3.676  16.929 -0.5954  0.2895  0.4528
 4483TIP3    H134940   4.276   3.653  17.005  2.3786 -0.5397 -1.6625
 4483TIP3    H234941   4.189   3.593  16.897 -0.4538  0.4111 -0.0284
 4484TIP3   OH234942   4.842   0.964  10.432 -0.3558 -0.4140  0.3223
 4484TIP3    H134943   4.929   0.925  10.444  0.5016  1.1139 -0.6740
 4484TIP3    H234944   4.787   0.891  10.402  0.7709 -1.2201  0.1532
 4485TIP3   OH234945   2.919   5.215   0.450  0.2894  0.5206  0.4077
 4485TIP3    H134946   2.886   5.305   0.460 -1.2394  0.3136 -1.9707
 4485TIP3    H234947   2.911   5.177   0.537  0.0912  2.3952  1.2602
 4486TIP3   OH234948   5.119   4.210  11.632 -0.5573  0.4427 -0.1724
 4486TIP3    H134949   5.067   4.135  11.661  0.1419 -0.1843 -0.5035
 4486TIP3    H234950   5.123   4.202  11.537 -0.6853  1.0396 -0.2316
 4487TIP3   OH234951   1.027   1.008   4.165  0.2488 -0.0063 -0.4311
 4487TIP3    H134952   1.055   0.921   4.136 -0.2013 -0.7248  1.1583
 4487TIP3    H234953   1.085   1.029   4.238 -2.0816 -0.8043  1.8537
 4488TIP3   OH234954   0.520   4.697  13.002 -0.5474 -0.2251 -0.0885
 4488TIP3    H134955   0.492   4.777  12.957  0.7191  1.5095  1.9819
 4488TIP3    H234956   0.439   4.658  13.035 -1.1079  0.8619 -0.1344
 4489TIP3   OH234957   5.087   1.712  12.929  0.8108 -0.4251  0.1920
 4489TIP3    H134958   5.103   1.713  13.023  2.4062  0.6087 -0.0546
 4489TIP3    H234959   5.121   1.628  12.899  2.6332  0.2603  0.2136
 4490TIP3   OH234960   0.751   4.385  12.258 -0.1102  0.1664 -0.2475
 4490TIP3    H134961   0.740   4.479  12.271 -0.2715 -0.0835  1.7275
 4490TIP3    H234962   0.819   4.360  12.320  0.6811 -0.8756 -1.4829
 4491TIP3   OH234963   0.482   4.797  16.775  0.0335 -0.1742 -0.1363
 4491TIP3    H134964   0.501   4.726  16.714 -0.8853  1.8585 -3.0201
 4491TIP3    H234965   0.533   4.872  16.742 -0.7920  1.1146  1.3724
 4492TIP3   OH234966   0.448   0.528  15.442  0.0381  0.3173 -0.6905
 4492TIP3    H134967   0.445   0.447  15.492 -0.1082  0.2928 -0.7371
 4492TIP3    H234968   0.468   0.596  15.506 -0.6301  0.3555 -0.5104
 4493TIP3   OH234969   5.716   4.892  10.991  0.0095 -0.1627  0.4115
 4493TIP3    H134970   5.645   4.918  10.932  0.5679  1.2806  0.3247
 4493TIP3    H234971   5.777   4.843  10.935  1.2023  2.3344 -0.6215
 4494TIP3   OH234972   6.059   1.762   4.510  0.2163  0.4043 -0.1161
 4494TIP3    H134973   6.037   1.684   4.562 -0.1548  0.1895 -0.5850
 4494TIP3    H234974   6.017   1.834   4.557 -2.2229 -0.0799 -1.3652
 4495TIP3   OH234975   0.541   2.923  12.402  0.6170  0.0581  0.2463
 4495TIP3    H134976   0.621   2.876  12.377  1.1833  1.2297 -0.2610
 4495TIP3    H234977   0.552   2.940  12.496  1.1445  0.5045  0.1147
 4496TIP3   OH234978   3.320   0.618   3.959 -0.4121  0.3170 -0.0031
 4496TIP3    H134979   3.389   0.683   3.976  0.9483 -1.2439  0.7896
 4496TIP3    H234980   3.274   0.609   4.042 -0.6281  0.2991 -0.1236
 4497TIP3   OH234981   6.541   1.014  11.629 -0.2502 -0.1170 -0.8070
 4497TIP3    H134982   6.479   1.061  11.684  0.4366  1.0316 -0.9957
 4497TIP3    H234983   6.581   1.081  11.574  1.8866 -0.6479 -0.0078
 4498TIP3   OH234984   2.012   1.925   4.792  0.3540  0.1408  0.4175
 4498TIP3    H134985   2.010   1.902   4.699  2.3243 -1.0769  0.6019
 4498TIP3    H234986   1.929   1.891   4.827  0.4130 -1.1199 -0.5673
 4499TIP3   OH234987   1.123   5.870  16.487  0.2326  0.3590 -0.4710
 4499TIP3    H134988   1.148   5.940  16.427 -0.7473 -0.1745 -1.5352
 4499TIP3    H234989   1.100   5.797  16.430 -0.7438 -0.1589  0.5620
 4500TIP3   OH234990   4.159   3.766  16.335 -0.2221  0.6692 -0.4942
 4500TIP3    H134991   4.223   3.714  16.384 -1.0540  0.6613  0.6217
 4500TIP3    H234992   4.173   3.741  16.244  0.7315 -0.0232 -0.1793
 4501TIP3   OH234993   1.970   0.665   2.540  0.0644  0.1575  0.3837
 4501TIP3    H134994   1.885   0.702   2.563  0.2961  0.3388  0.9668
 4501TIP3    H234995   1.949   0.582   2.497 -0.4578  0.9048 -0.8683
 4502TIP3   OH234996   6.608   5.029  13.985 -0.6875 -0.6559  0.4547
 4502TIP3    H134997   6.557   5.066  14.057 -1.2854  0.8498 -0.7071
 4502TIP3    H234998   6.546   5.024  13.912  0.5995  0.4614 -0.7621
 4503TIP3   OH234999   5.279   3.718  16.355  0.1810 -0.5215 -0.6480
 4503TIP3    H135000   5.288   3.736  16.449  1.2104 -0.2213 -0.7926
 4503TIP3    H235001   5.253   3.626  16.351  2.5461 -1.2935 -0.0957
 4504TIP3   OH235002   1.924   0.784   1.285 -0.5730  0.9077  0.2374
 4504TIP3    H135003   1.967   0.791   1.370 -0.8552 -1.5963  0.6646
 4504TIP3    H235004   1.932   0.691   1.261 -1.6253  1.2935 -1.8609
 4505TIP3   OH235005   0.108   4.960  13.040  0.5144 -0.2702  0.0372
 4505TIP3    H135006   0.028   4.932  13.084 -0.3373 -1.4295 -2.0726
 4505TIP3    H235007   0.098   5.055  13.030 -2.6999 -0.7459 -3.7306
 4506TIP3   OH235008   1.563   1.668  15.506  0.6274 -0.1487 -0.3020
 4506TIP3    H135009   1.510   1.589  15.497  1.9333 -1.1777  0.5858
 4506TIP3    H235010   1.559   1.690  15.599 -2.4279  2.8835 -0.9363
 4507TIP3   OH235011   4.417   4.442   5.360  0.9158 -0.4719  0.0130
 4507TIP3    H135012   4.479   4.515   5.365  1.5253 -1.0595  1.3533
 4507TIP3    H235013   4.347   4.474   5.302  2.0219  0.5200 -0.8306
 4508TIP3   OH235014   0.465   1.566   3.972  0.7927 -0.1045 -0.0001
 4508TIP3    H135015   0.557   1.583   3.989  1.0578 -0.9685 -0.5127
 4508TIP3    H235016   0.418   1.620   4.036  1.5870  1.7458 -0.8949
 4509TIP3   OH235017   6.634   5.331   4.946 -0.0869  0.8188  0.0115
 4509TIP3    H135018   6.546   5.315   4.912  0.2712 -2.6343  0.4097
 4509TIP3    H235019   6.621   5.390   5.020 -2.1798 -0.1765  0.5126
 4510TIP3   OH235020   3.270   0.794   5.210  0.2193 -0.0246  0.0026
 4510TIP3    H135021   3.242   0.717   5.159 -0.7462 -0.8309  1.6274
 4510TIP3    H235022   3.365   0.790   5.210  0.1831 -1.4660  0.3567
 4511TIP3   OH235023   0.996   4.007   1.785  0.9673 -0.7165 -0.5549
 4511TIP3    H135024   1.083   4.035   1.816  0.3667  0.3407  0.2412
 4511TIP3    H235025   0.935   4.046   1.848 -0.1206 -1.0085 -1.4077
 4512TIP3   OH235026   6.696   1.253   0.872  0.3813 -0.1363  0.4976
 4512TIP3    H135027   6.775   1.209   0.841  0.3647 -0.6174  1.1327
 4512TIP3    H235028   6.728   1.326   0.925  0.4020  0.0481  0.2318
 4513TIP3   OH235029   6.556   4.455   3.192  0.4693  0.2222 -0.0127
 4513TIP3    H135030   6.545   4.530   3.134  0.2290 -0.6759 -1.1639
 4513TIP3    H235031   6.474   4.406   3.184 -0.1273  0.7691  2.1489
 4514TIP3   OH235032   3.027   2.129   5.005  0.1562 -0.2889 -0.0530
 4514TIP3    H135033   2.998   2.122   4.915  1.6880  0.7697 -0.6716
 4514TIP3    H235034   3.094   2.061   5.013 -0.5031 -0.8854  0.5304
 4515TIP3   OH235035   0.709   5.792   2.827  0.0314 -0.3514 -0.0599
 4515TIP3    H135036   0.780   5.728   2.823  0.1948 -0.1650 -0.1604
 4515TIP3    H235037   0.692   5.814   2.735  0.2513  0.0528 -0.0066
 4516TIP3   OH235038   0.953   0.091   0.684  0.2239 -0.0468 -0.1917
 4516TIP3    H135039   0.863   0.087   0.716 -0.0711  1.1010 -0.8173
 4516TIP3    H235040   0.958   0.024   0.616  0.4374 -1.4846  1.1805
 4517TIP3   OH235041   1.003   3.555  13.964  0.0147  0.2305 -0.2481
 4517TIP3    H135042   1.009   3.523  13.874 -0.7661  1.3642 -0.7263
 4517TIP3    H235043   0.910   3.576  13.976 -0.4222 -2.2946  1.7093
 4518TIP3   OH235044   5.202   4.127  16.486  0.1901  0.0793  0.0942
 4518TIP3    H135045   5.150   4.109  16.408  0.7920 -1.4453  0.0084
 4518TIP3    H235046   5.241   4.043  16.510 -1.5187  0.0098  3.2066
 4519TIP3   OH235047   2.940   3.054  13.587  0.2786  0.7573 -0.5871
 4519TIP3    H135048   2.925   3.006  13.505 -0.9122  1.2602 -0.6749
 4519TIP3    H235049   2.939   3.146  13.561 -1.5565  0.9990  0.1746
 4520TIP3   OH235050   4.461   1.044  12.481  0.7565  0.2277 -0.3201
 4520TIP3    H135051   4.544   1.079  12.515  0.0631  1.8606 -0.2325
 4520TIP3    H235052   4.393   1.096  12.523 -0.2998 -0.5427 -1.0100
 4521TIP3   OH235053   1.731   4.559   4.528  0.2546 -0.2639  0.2249
 4521TIP3    H135054   1.765   4.594   4.446 -0.6551 -0.3995 -0.2273
 4521TIP3    H235055   1.723   4.636   4.585  2.4881 -0.4035  0.8008
 4522TIP3   OH235056   5.360   6.423   5.272 -0.0138  0.3409  0.1046
 4522TIP3    H135057   5.333   6.500   5.323  0.6667  1.0958 -0.6338
 4522TIP3    H235058   5.279   6.393   5.230 -0.4724  0.0478  1.1510
 4523TIP3   OH235059   5.637   6.306  16.312  0.0898  0.1356 -0.2927
 4523TIP3    H135060   5.643   6.230  16.254 -0.1548 -0.1653  0.0692
 4523TIP3    H235061   5.640   6.269  16.401  0.2616  0.5726 -0.1102
 4524TIP3   OH235062   4.068   6.845  15.120  0.8710 -0.3321  0.1962
 4524TIP3    H135063   4.136   6.820  15.183  1.4652 -1.5149 -0.8409
 4524TIP3    H235064   4.037   6.761  15.085  0.5861  0.2855 -1.0876
 4525TIP3   OH235065   4.575   3.741  14.548 -0.1467 -0.0066  0.4571
 4525TIP3    H135066   4.546   3.802  14.480  0.3461 -1.3692 -1.0417
 4525TIP3    H235067   4.668   3.730  14.532 -0.4325 -2.0231 -0.0735
 4526TIP3   OH235068   3.430   0.313  16.234 -0.0034  0.4369 -0.0063
 4526TIP3    H135069   3.488   0.347  16.302 -0.4231  3.9728 -1.2303
 4526TIP3    H235070   3.342   0.326  16.269 -0.1879  1.0198 -0.6732
 4527TIP3   OH235071   2.160   2.541  16.139 -0.0730  0.4094  0.2358
 4527TIP3    H135072   2.220   2.616  16.133  1.7713 -0.9295  0.9772
 4527TIP3    H235073   2.111   2.556  16.220 -1.7046  2.1225 -0.9760
 4528TIP3   OH235074   5.654   4.913   2.609  0.2016  0.0530 -0.1756
 4528TIP3    H135075   5.568   4.952   2.595 -0.0560  0.1906  1.5793
 4528TIP3    H235076   5.642   4.820   2.587 -0.4082  0.0578  0.1187
 4529TIP3   OH235077   5.041   1.423  13.245 -0.0593 -0.3565  0.6488
 4529TIP3    H135078   5.028   1.426  13.150  2.7484 -0.2573  0.1815
 4529TIP3    H235079   5.046   1.515  13.271 -0.4337 -0.3869  0.8291
 4530TIP3   OH235080   5.480   0.768   6.278 -0.2905  0.2621  0.9153
 4530TIP3    H135081   5.534   0.814   6.214  1.9786 -1.2386  1.6485
 4530TIP3    H235082   5.451   0.837   6.339  1.3216  1.0278  0.8545
 4531TIP3   OH235083   6.640   3.444   5.142  0.2145 -0.2254  0.0360
 4531TIP3    H135084   6.643   3.536   5.169 -1.7620 -0.1483  0.1364
 4531TIP3    H235085   6.732   3.418   5.135  0.8102  1.3541  1.3392
 4532TIP3   OH235086   6.068   1.683  15.516  0.1855  0.2734 -1.2698
 4532TIP3    H135087   6.014   1.693  15.594  2.6887 -1.1375  0.8263
 4532TIP3    H235088   6.018   1.626  15.459 -0.5248 -1.1709  0.6693
 4533TIP3   OH235089   2.008   4.150  14.503 -0.1223 -0.3931 -0.2220
 4533TIP3    H135090   2.016   4.187  14.415 -1.5517  0.2173 -0.1122
 4533TIP3    H235091   1.998   4.056  14.488  0.1645 -0.3601 -0.6677
 4534TIP3   OH235092   5.294   2.615  13.538 -0.4501 -0.4380 -0.5295
 4534TIP3    H135093   5.371   2.656  13.498 -0.2731 -1.1124 -0.9144
 4534TIP3    H235094   5.319   2.600  13.629 -0.6160  0.5316 -0.3215
 4535TIP3   OH235095   2.522   3.482   5.233  0.1378  0.6056  0.0848
 4535TIP3    H135096   2.453   3.422   5.204  2.6366 -3.6381  1.9486
 4535TIP3    H235097   2.574   3.499   5.155 -0.4852  0.1432 -0.4409
 4536TIP3   OH235098   2.984   0.461  14.478 -0.0973 -0.4039 -0.1188
 4536TIP3    H135099   2.929   0.538  14.493  1.7729  0.8481  0.8226
 4536TIP3    H235100   2.948   0.394  14.536 -0.5551  0.4412  0.6090
 4537TIP3   OH235101   0.854   6.674  14.204  0.3331  0.3546 -0.1797
 4537TIP3    H135102   0.947   6.649  14.197  0.6949  1.5458  0.1582
 4537TIP3    H235103   0.855   6.769  14.210 -1.0368  0.5145 -1.8523
 4538TIP3   OH235104   0.228   1.671  11.343 -0.2758  0.3018 -0.5616
 4538TIP3    H135105   0.323   1.685  11.334  0.4975 -2.2141  2.0795
 4538TIP3    H235106   0.215   1.580  11.316 -1.8132  0.3851 -0.1651
 4539TIP3   OH235107   4.663   1.347   3.823  0.1390  0.5384 -0.1578
 4539TIP3    H135108   4.699   1.304   3.745 -0.2892  0.1462 -0.1451
 4539TIP3    H235109   4.728   1.329   3.891 -1.0705 -2.1176  0.4307
 4540TIP3   OH235110   2.788   6.801  10.443  0.3136 -0.4479 -0.2234
 4540TIP3    H135111   2.810   6.708  10.444  1.4389 -0.2022 -0.5122
 4540TIP3    H235112   2.823   6.833  10.360  0.1128  0.2744 -0.0369
 4541TIP3   OH235113   6.000   0.485  11.832 -0.0025  0.1839 -0.3834
 4541TIP3    H135114   5.991   0.391  11.818 -1.0046  0.1282  0.4971
 4541TIP3    H235115   5.959   0.526  11.756 -2.0429 -0.1076  0.5011
 4542TIP3   OH235116   4.258   2.450  11.903  0.3705  0.6343 -0.5566
 4542TIP3    H135117   4.203   2.500  11.963 -0.6037 -0.8712 -0.1343
 4542TIP3    H235118   4.327   2.412  11.958 -0.7818 -1.1184 -0.2234
 4543TIP3   OH235119   4.702   2.122  17.016 -0.6115  0.2617 -0.0032
 4543TIP3    H135120   4.750   2.196  17.053  0.0840 -0.3959  0.4237
 4543TIP3    H235121   4.639   2.098  17.084 -0.7978  0.4217 -0.1182
 4544TIP3   OH235122   6.018   1.671   0.396 -0.4233  0.0181 -0.0699
 4544TIP3    H135123   5.937   1.719   0.378  0.0091  0.8321  0.1121
 4544TIP3    H235124   5.993   1.579   0.391 -1.4704  0.2582  0.4565
 4545TIP3   OH235125   3.350   5.957  16.459  0.3070 -0.3927  0.8337
 4545TIP3    H135126   3.401   5.901  16.517 -0.4817 -0.7375  1.2048
 4545TIP3    H235127   3.411   5.980  16.388  0.5278 -2.0133  0.4674
 4546TIP3   OH235128   6.204   3.137  15.460  0.2384 -0.4388  0.0257
 4546TIP3    H135129   6.258   3.066  15.424  2.0463  1.2803 -0.8438
 4546TIP3    H235130   6.234   3.146  15.550  0.7561 -0.1221 -0.1724
 4547TIP3   OH235131   2.894   5.041   1.346 -0.0111  0.5940 -0.4839
 4547TIP3    H135132   2.927   5.010   1.261 -0.3863 -1.4920  0.0773
 4547TIP3    H235133   2.939   5.124   1.360  0.2147  0.8810 -2.6186
 4548TIP3   OH235134   6.570   3.665  17.113 -0.1555  0.4159 -0.6120
 4548TIP3    H135135   6.554   3.639  17.022 -1.3944 -0.8815 -0.0636
 4548TIP3    H235136   6.612   3.588  17.152 -1.9733 -0.0605  0.5276
 4549TIP3   OH235137   0.365   2.856  11.749 -0.1005 -0.3842  0.3870
 4549TIP3    H135138   0.278   2.872  11.714  0.7453  0.9070 -1.2603
 4549TIP3    H235139   0.350   2.833  11.841 -2.1452  0.0396  0.2077
 4550TIP3   OH235140   3.695   1.338   2.042  0.4233  0.4605 -0.1827
 4550TIP3    H135141   3.649   1.254   2.044  1.2259  0.0166  0.5631
 4550TIP3    H235142   3.630   1.400   2.011 -0.0771 -0.5033 -1.1393
 4551TIP3   OH235143   5.928   3.229   3.347 -0.0593 -0.2868 -0.0298
 4551TIP3    H135144   5.952   3.147   3.390  2.1355 -0.2865 -1.1034
 4551TIP3    H235145   5.834   3.222   3.332  0.0342 -2.4923  0.1336
 4552TIP3   OH235146   3.960   2.100   5.613 -0.6091  0.0811  0.3142
 4552TIP3    H135147   4.004   2.018   5.588  0.4842  1.2116 -1.8456
 4552TIP3    H235148   3.867   2.078   5.616 -0.2824 -1.3746  0.3573
 4553TIP3   OH235149   2.903   1.444  10.571 -0.3421  0.0123  0.2281
 4553TIP3    H135150   2.916   1.507  10.641  0.1595  2.4318 -1.8735
 4553TIP3    H235151   2.832   1.481  10.518  1.0329 -0.2961 -1.9684
 4554TIP3   OH235152   4.896   5.605   3.585 -0.0237  0.0914 -0.3864
 4554TIP3    H135153   4.838   5.532   3.562  1.4884 -0.9928 -0.9792
 4554TIP3    H235154   4.963   5.603   3.517  1.0781  0.8751  0.6458
 4555TIP3   OH235155   5.000   6.068  13.265 -0.2643  0.3477 -0.2623
 4555TIP3    H135156   5.068   6.110  13.318  0.8625 -2.5534  0.8103
 4555TIP3    H235157   5.048   6.014  13.202 -1.3658 -2.4643  1.0789
 4556TIP3   OH235158   2.271   4.968   4.024  0.1981  0.7046 -0.0368
 4556TIP3    H135159   2.244   5.023   3.950  4.2857  0.4115 -2.0418
 4556TIP3    H235160   2.316   4.894   3.984 -1.4046 -2.0273  2.7340
 4557TIP3   OH235161   6.849   0.897  16.332 -0.1223 -0.0284 -0.1785
 4557TIP3    H135162   6.834   0.896  16.237  0.5740 -0.9514 -0.2957
 4557TIP3    H235163   6.922   0.836  16.345  0.4766  0.8759  0.8414
 4558TIP3   OH235164   5.542   1.472   1.397 -0.0761 -0.6266  0.1527
 4558TIP3    H135165   5.502   1.402   1.345 -0.6643  0.6722 -1.2231
 4558TIP3    H235166   5.470   1.512   1.444  0.4147 -1.6024  1.8385
 4559TIP3   OH235167   5.009   6.561   0.981 -0.1794  0.2816 -0.0305
 4559TIP3    H135168   5.088   6.613   0.999  1.0805 -1.6681  0.4454
 4559TIP3    H235169   4.937   6.623   0.985  1.3706  2.2151 -0.8709
 4560TIP3   OH235170   1.521   3.264   0.438 -0.6047 -0.1141  0.3439
 4560TIP3    H135171   1.504   3.345   0.390 -0.1130 -0.2030  0.0165
 4560TIP3    H235172   1.481   3.278   0.524 -2.3488 -0.3155 -0.3926
 4561TIP3   OH235173   6.863   3.323   4.418 -0.6732 -0.1676  0.0976
 4561TIP3    H135174   6.828   3.404   4.456  0.4662  0.3117  0.1705
 4561TIP3    H235175   6.957   3.340   4.407 -0.2376 -1.7905  0.9424
 4562TIP3   OH235176   2.868   2.815  13.188  0.0855  0.3448  0.6201
 4562TIP3    H135177   2.899   2.821  13.278  2.0626  1.0989 -0.0362
 4562TIP3    H235178   2.933   2.759  13.144 -0.5869  0.3488 -0.4174
 4563TIP3   OH235179   0.628   3.820  12.602 -0.2277 -0.2171  0.5068
 4563TIP3    H135180   0.677   3.738  12.612 -0.9135 -0.4358  2.6377
 4563TIP3    H235181   0.690   3.881  12.564  0.8231 -1.2788  0.4697
 4564TIP3   OH235182   4.562   2.661  12.134 -0.4471  0.0079 -0.2123
 4564TIP3    H135183   4.473   2.695  12.124 -0.6732 -0.6447 -0.4813
 4564TIP3    H235184   4.554   2.590  12.197 -0.0946  0.0209 -0.1490
 4565TIP3   OH235185   5.223   0.580   2.086  0.1796 -0.1339  0.4615
 4565TIP3    H135186   5.242   0.649   2.149  1.4212 -0.6133  0.6299
 4565TIP3    H235187   5.200   0.504   2.139 -0.8153  0.0247  0.2830
 4566TIP3   OH235188   6.187   6.442  12.211 -0.1737 -0.1830 -0.6033
 4566TIP3    H135189   6.144   6.362  12.180  1.4910  0.0524 -4.0446
 4566TIP3    H235190   6.136   6.512  12.171  0.2329  0.3297 -0.2195
 4567TIP3   OH235191   5.422   3.949  14.984  0.2484  0.3168 -0.5273
 4567TIP3    H135192   5.487   4.011  14.952  1.3956 -0.8994 -0.6129
 4567TIP3    H235193   5.434   3.948  15.078  0.1264  0.3346 -0.5114
 4568TIP3   OH235194   5.801   2.271   3.935  0.4839  0.0144 -0.2374
 4568TIP3    H135195   5.824   2.360   3.907 -0.4467 -0.0958 -1.4813
 4568TIP3    H235196   5.707   2.265   3.917  0.3566 -0.9259  0.6977
 4569TIP3   OH235197   3.563   6.102   0.388  0.6899  0.0531  0.1926
 4569TIP3    H135198   3.532   6.168   0.450  0.5873  1.1697 -1.0151
 4569TIP3    H235199   3.556   6.020   0.437 -1.8030  0.5409  0.8484
 4570TIP3   OH235200   3.756   2.624  16.444  0.0953  0.2586  0.6337
 4570TIP3    H135201   3.791   2.626  16.355  1.5555  1.1076  1.2060
 4570TIP3    H235202   3.828   2.591  16.498 -0.2222  1.2677  1.7241
 4571TIP3   OH235203   6.281   0.468  15.363 -0.2008  0.5294  0.8184
 4571TIP3    H135204   6.223   0.394  15.348 -1.6856  0.7223  4.4844
 4571TIP3    H235205   6.366   0.429  15.382 -0.8000 -0.2757  1.9936
 4572TIP3   OH235206   5.323   2.110   1.051 -0.3380  0.3668  0.0362
 4572TIP3    H135207   5.359   2.023   1.033 -3.7200 -1.1399 -0.1357
 4572TIP3    H235208   5.339   2.159   0.970  2.7498  0.4480  0.5786
 4573TIP3   OH235209   0.386   4.245   6.038  0.2493  0.0165  0.2873
 4573TIP3    H135210   0.319   4.177   6.040  0.8096 -0.5278  0.8533
 4573TIP3    H235211   0.340   4.325   6.064 -0.2689 -0.2632  0.2458
 4574TIP3   OH235212   1.292   2.193  10.913 -0.3953  0.6156  0.4693
 4574TIP3    H135213   1.294   2.104  10.948 -0.5175  0.7336  0.7798
 4574TIP3    H235214   1.199   2.212  10.901 -0.4290  1.0293  1.2661
 4575TIP3   OH235215   4.014   4.427  13.066 -0.3059  0.5271 -0.0472
 4575TIP3    H135216   3.957   4.429  12.989 -0.4482 -0.6931  0.0114
 4575TIP3    H235217   4.102   4.442  13.030 -0.2565 -0.9267 -0.5889
 4576TIP3   OH235218   0.518   2.140   2.932 -0.3010 -0.3702  0.4808
 4576TIP3    H135219   0.526   2.164   3.024 -0.6767 -0.1426  0.4583
 4576TIP3    H235220   0.607   2.146   2.898  0.3588 -3.2076  1.4650
 4577TIP3   OH235221   3.530   6.314  15.774  0.2104  0.4164  0.3642
 4577TIP3    H135222   3.610   6.300  15.825  0.5811  2.4298  0.4192
 4577TIP3    H235223   3.561   6.334  15.686 -0.3980 -1.9505 -0.4734
 4578TIP3   OH235224   0.725   1.795   0.908  0.3263 -0.0602  0.2950
 4578TIP3    H135225   0.762   1.736   0.973  0.3411 -0.6578 -0.2471
 4578TIP3    H235226   0.650   1.747   0.872  1.2016 -0.3596 -1.1789
 4579TIP3   OH235227   0.697   2.399   0.943 -0.2042 -0.3711 -0.0908
 4579TIP3    H135228   0.771   2.457   0.928 -0.3469 -0.3514 -0.7780
 4579TIP3    H235229   0.685   2.397   1.038 -1.4169  2.2956 -0.0987
 4580TIP3   OH235230   6.610   2.923   6.563  0.1470  0.7277  0.3609
 4580TIP3    H135231   6.610   2.842   6.614  0.0166  0.1047 -0.6033
 4580TIP3    H235232   6.653   2.900   6.481 -1.1486  1.2513 -0.4978
 4581TIP3   OH235233   4.180   4.746  16.057 -0.2749  0.2635 -0.0128
 4581TIP3    H135234   4.260   4.697  16.038  1.0963  2.3552  0.0781
 4581TIP3    H235235   4.138   4.758  15.972 -0.5411 -0.8563 -0.0585
 4582TIP3   OH235236   5.030   5.664  14.195  0.3131  0.0612 -0.6061
 4582TIP3    H135237   5.049   5.698  14.282  0.5331 -0.2639 -0.5271
 4582TIP3    H235238   5.044   5.569  14.202  1.1285  0.1266 -1.1982
 4583TIP3   OH235239   6.569   1.462   4.201  0.9020  0.1460  0.1782
 4583TIP3    H135240   6.486   1.446   4.246  2.2812  0.6045  3.1040
 4583TIP3    H235241   6.552   1.538   4.146 -0.3299  1.0542  1.7204
 4584TIP3   OH235242   2.085   0.599  12.352  0.5573  0.3909 -0.2922
 4584TIP3    H135243   2.168   0.604  12.304  1.4177 -2.4015  0.7313
 4584TIP3    H235244   2.109   0.610  12.444  0.0350 -1.6413  0.1327
 4585TIP3   OH235245   1.750   6.807  11.198  0.2731 -0.3671 -0.1534
 4585TIP3    H135246   1.787   6.727  11.163 -0.6897 -0.2468 -1.5537
 4585TIP3    H235247   1.676   6.779  11.252 -1.9539 -0.4331 -2.9847
 4586TIP3   OH235248   3.436   0.137   0.308  0.2059  0.0401  0.0649
 4586TIP3    H135249   3.420   0.213   0.364 -1.5986  1.7010 -2.5075
 4586TIP3    H235250   3.490   0.170   0.237 -0.9430 -0.9189 -1.3207
 4587TIP3   OH235251   2.710   5.747   2.688 -0.5778 -0.0394  0.7979
 4587TIP3    H135252   2.634   5.805   2.685 -0.8198 -0.2959  1.6099
 4587TIP3    H235253   2.674   5.661   2.709 -0.1486 -0.3525  0.2928
 4588TIP3   OH235254   2.946   2.003  11.908 -0.8408  0.6689  0.4331
 4588TIP3    H135255   2.986   2.080  11.868 -0.4445 -0.2408 -0.9837
 4588TIP3    H235256   2.998   1.929  11.876 -0.2109 -0.1073  2.9992
 4589TIP3   OH235257   0.897   5.341   5.989 -0.2690 -0.9787  0.2002
 4589TIP3    H135258   0.869   5.413   6.046 -0.0064 -0.7115 -0.0045
 4589TIP3    H235259   0.948   5.284   6.046  1.7625  0.3416 -0.1953
 4590TIP3   OH235260   1.125   4.377  14.368 -0.6229 -0.3063  0.3959
 4590TIP3    H135261   1.082   4.293  14.352 -0.2656 -0.2390 -1.0465
 4590TIP3    H235262   1.138   4.414  14.280  0.6335  0.5435  0.9220
 4591TIP3   OH235263   4.929   4.733  17.035 -0.7471  0.0505 -0.4870
 4591TIP3    H135264   4.891   4.722  17.122  2.4604  0.0711  1.0511
 4591TIP3    H235265   4.923   4.646  16.995 -0.7489 -0.3899  0.4410
 4592TIP3   OH235266   6.130   3.009  12.980 -0.2787  0.1980  0.7840
 4592TIP3    H135267   6.118   2.916  12.960 -0.0111  0.1504  0.8382
 4592TIP3    H235268   6.183   3.042  12.908 -1.2559  0.5526  0.1980
 4593TIP3   OH235269   6.579   3.784   4.651 -0.4493  0.1514  0.0770
 4593TIP3    H135270   6.527   3.788   4.732 -2.4384  1.2379 -1.1707
 4593TIP3    H235271   6.581   3.874   4.620 -0.8494 -0.4241 -1.7387
 4594TIP3   OH235272   5.197   6.574  14.631  0.1267 -0.4020 -0.0566
 4594TIP3    H135273   5.141   6.624  14.572  1.6458  1.1697 -0.2434
 4594TIP3    H235274   5.230   6.502  14.577 -0.2424 -0.2626 -0.4750
 4595TIP3   OH235275   5.029   5.899   4.235 -0.7847  0.1766 -0.3626
 4595TIP3    H135276   5.095   5.905   4.304 -0.3919 -0.8028 -0.6432
 4595TIP3    H235277   5.027   5.807   4.211 -1.4166  0.3898 -1.1866
 4596TIP3   OH235278   4.735   3.007  11.354  0.6737  0.3703 -0.4120
 4596TIP3    H135279   4.665   2.970  11.408 -0.3545  0.7469 -1.4535
 4596TIP3    H235280   4.798   3.042  11.417 -0.0545 -0.0046  0.5502
 4597TIP3   OH235281   5.760   2.513   0.338 -0.0713 -0.0130 -0.0997
 4597TIP3    H135282   5.851   2.485   0.329  0.0895  1.0614 -2.7931
 4597TIP3    H235283   5.762   2.583   0.403  1.0686  0.1272 -0.2675
 4598TIP3   OH235284   4.929   3.336  11.893 -0.4534  0.6381  0.2117
 4598TIP3    H135285   4.876   3.260  11.916 -2.8163  2.4329  1.1271
 4598TIP3    H235286   4.968   3.365  11.976  1.2479 -0.0649 -0.2902
 4599TIP3   OH235287   5.368   1.002   3.357  0.0611  0.0715  0.9786
 4599TIP3    H135288   5.452   1.006   3.311 -2.0743  1.2986 -3.2267
 4599TIP3    H235289   5.344   0.909   3.355  0.1788  0.0570 -0.1190
 4600TIP3   OH235290   0.115   0.327  12.558 -0.3568  0.2164 -0.4308
 4600TIP3    H135291   0.053   0.258  12.579 -0.5672  0.4335 -0.3268
 4600TIP3    H235292   0.183   0.321  12.626 -0.0017 -0.3368 -0.8290
 4601TIP3   OH235293   0.120   3.535   2.238 -0.1016 -0.1903 -0.0823
 4601TIP3    H135294   0.187   3.598   2.265 -0.7428 -0.1280  1.4782
 4601TIP3    H235295   0.143   3.511   2.149  0.7338  1.4989 -0.3444
 4602TIP3   OH235296   4.083   0.439  15.146 -0.4576 -0.2113 -0.5127
 4602TIP3    H135297   4.044   0.453  15.232  2.4395 -1.6094  1.2087
 4602TIP3    H235298   4.124   0.523  15.124 -2.3376  0.5584 -1.2508
 4603TIP3   OH235299   5.705   2.656  13.622  0.2614 -0.3116  0.4676
 4603TIP3    H135300   5.646   2.674  13.549  0.4425  0.5463  0.5220
 4603TIP3    H235301   5.654   2.676  13.700  0.3762 -0.2948  0.5396
 4604TIP3   OH235302   3.942   6.161  13.197  0.1749 -0.3106  0.4425
 4604TIP3    H135303   3.964   6.078  13.155  2.0505 -0.0274  0.7826
 4604TIP3    H235304   4.006   6.170  13.268 -1.1697  0.5425  1.5999
 4605TIP3   OH235305   4.640   3.211  10.678 -0.6422 -0.2747 -0.1097
 4605TIP3    H135306   4.676   3.280  10.623 -0.5989  0.6466  1.0443
 4605TIP3    H235307   4.717   3.171  10.718 -0.7684  0.4194  0.8582
 4606TIP3   OH235308   1.942   4.116  11.943 -0.1657 -0.3275 -0.7360
 4606TIP3    H135309   1.859   4.163  11.954  0.8051  1.0601  1.4887
 4606TIP3    H235310   2.006   4.184  11.925  1.6970 -0.1283  4.7025
 4607TIP3   OH235311   2.366   2.700  11.824  0.3903 -0.6239 -0.6923
 4607TIP3    H135312   2.378   2.616  11.867 -2.1174  0.1147  1.6728
 4607TIP3    H235313   2.406   2.764  11.883  0.8430  0.0362 -1.6721
 4608TIP3   OH235314   5.114   6.366   5.117 -0.1939 -0.6688 -0.0487
 4608TIP3    H135315   5.112   6.325   5.030  0.1774  0.1228 -0.4448
 4608TIP3    H235316   5.075   6.301   5.175  2.4267 -2.5725 -0.2257
 4609TIP3   OH235317   3.475   5.352   3.029  0.2758 -0.2953 -0.5631
 4609TIP3    H135318   3.537   5.411   2.985  0.9799 -0.4749  0.1616
 4609TIP3    H235319   3.530   5.282   3.065 -0.1577  0.2252  1.2398
 4610TIP3   OH235320   6.460   0.986   0.038 -0.0046  0.1173 -0.0428
 4610TIP3    H135321   6.439   0.900   0.074  0.2591  0.3276  0.6188
 4610TIP3    H235322   6.554   0.997   0.052  0.5036 -0.5578 -2.4494
 4611TIP3   OH235323   5.953   5.878   5.658  0.5308 -0.0918  0.3545
 4611TIP3    H135324   5.953   5.844   5.747 -1.5275 -1.3899 -0.0690
 4611TIP3    H235325   5.958   5.973   5.669  1.7860 -0.2864  1.7597
 4612TIP3   OH235326   6.386   0.619   5.241 -0.4489 -0.0840  0.1548
 4612TIP3    H135327   6.375   0.623   5.336  0.6969  0.5783  0.2839
 4612TIP3    H235328   6.318   0.676   5.207  0.1661  1.0283  0.6979
 4613TIP3   OH235329   2.256   0.216   0.969 -0.0110 -0.2334 -0.2286
 4613TIP3    H135330   2.236   0.140   0.913  0.3206  0.1578 -0.8914
 4613TIP3    H235331   2.221   0.291   0.921  2.8303  0.4661 -1.3693
 4614TIP3   OH235332   0.515   6.579   4.039 -0.2368  0.2262 -0.1184
 4614TIP3    H135333   0.520   6.564   4.134 -0.4531  0.5022 -0.0649
 4614TIP3    H235334   0.451   6.514   4.009 -1.8658  1.5957  0.2436
 4615TIP3   OH235335   6.170   6.029  10.786  0.3319 -0.1080 -0.2914
 4615TIP3    H135336   6.179   6.033  10.881 -1.9440  0.8946 -0.0633
 4615TIP3    H235337   6.084   5.989  10.771  0.0695  0.9452 -1.9000
 4616TIP3   OH235338   6.050   4.072   3.695 -0.0452  0.1457 -0.1374
 4616TIP3    H135339   6.126   4.130   3.706 -1.2281  1.6995  0.1148
 4616TIP3    H235340   5.989   4.098   3.764 -0.7683 -1.1862 -0.2367
 4617TIP3   OH235341   5.200   4.785   5.734 -0.7320 -0.6338 -0.1903
 4617TIP3    H135342   5.176   4.693   5.744 -0.1392 -0.7967 -0.2195
 4617TIP3    H235343   5.208   4.818   5.824 -2.8127 -0.0919 -0.1539
 4618TIP3   OH235344   1.665   3.447   5.977  0.4620  0.4223  0.3490
 4618TIP3    H135345   1.592   3.469   6.034 -0.4828 -0.8032 -0.3309
 4618TIP3    H235346   1.698   3.364   6.011 -0.7973 -0.8889 -1.4267
 4619TIP3   OH235347   6.822   6.593  14.810  0.4122  0.2158 -0.2398
 4619TIP3    H135348   6.787   6.635  14.732  1.2209 -1.1664 -1.3920
 4619TIP3    H235349   6.801   6.500  14.799 -1.1803  0.2024  2.1444
 4620TIP3   OH235350   5.133   6.234  16.946 -0.0960 -0.0863 -0.2283
 4620TIP3    H135351   5.080   6.159  16.971  0.7662 -0.2106  1.4114
 4620TIP3    H235352   5.074   6.309  16.952 -1.0160 -0.5968 -2.0744
 4621TIP3   OH235353   2.813   2.025  12.776  0.1274 -0.1134 -0.0277
 4621TIP3    H135354   2.727   2.057  12.805 -0.0463 -0.0051 -0.6347
 4621TIP3    H235355   2.794   1.976  12.695  0.2355 -2.6339  1.3747
 4622TIP3   OH235356   6.568   6.462  13.342  0.0332 -0.2335 -0.0862
 4622TIP3    H135357   6.583   6.555  13.326 -1.7724  0.7119  2.8082
 4622TIP3    H235358   6.482   6.445  13.303 -0.5612 -0.1042  1.1233
 4623TIP3   OH235359   1.947   0.651   3.534  0.6650 -0.0329 -0.4936
 4623TIP3    H135360   2.029   0.693   3.559  0.5853 -0.3713  0.4083
 4623TIP3    H235361   1.883   0.686   3.596  0.0623  0.4571 -1.3862
 4624TIP3   OH235362   6.444   0.972  14.438  0.0631 -0.4142 -0.1471
 4624TIP3    H135363   6.398   1.005  14.514  0.7115  0.7463 -0.2455
 4624TIP3    H235364   6.511   1.038  14.419  1.7559 -2.0025 -0.0270
 4625TIP3   OH235365   3.716   1.620   6.218 -0.3935 -0.0223  0.4978
 4625TIP3    H135366   3.727   1.653   6.307  0.4323 -1.9065  1.1381
 4625TIP3    H235367   3.745   1.529   6.222 -0.1809 -0.1070 -1.7445
 4626TIP3   OH235368   5.658   1.601  11.458  0.2086 -0.1783 -0.5758
 4626TIP3    H135369   5.731   1.650  11.497 -0.4615  0.5251 -0.1673
 4626TIP3    H235370   5.637   1.648  11.378 -1.9747  1.7115  0.9714
 4627TIP3   OH235371   4.289   2.261  13.811 -0.8224 -0.0906 -0.1588
 4627TIP3    H135372   4.335   2.341  13.787 -0.3607 -0.2815  0.0761
 4627TIP3    H235373   4.230   2.244  13.738 -1.4339  0.8369  0.0911
 4628TIP3   OH235374   6.554   0.341   0.181  0.4437 -0.3236  0.3433
 4628TIP3    H135375   6.545   0.311   0.090 -0.8728 -0.7595  0.5982
 4628TIP3    H235376   6.616   0.280   0.220  1.2875  0.0682 -0.3302
 4629TIP3   OH235377   1.942   3.150   0.728  0.1565  0.4921  0.1435
 4629TIP3    H135378   1.912   3.138   0.638 -0.4511 -0.1293  0.4134
 4629TIP3    H235379   1.872   3.200   0.770  0.1390  0.2369  0.4273
 4630TIP3   OH235380   0.085   3.201  12.789 -0.1690 -0.4479  0.3673
 4630TIP3    H135381   0.029   3.156  12.852  0.7557  0.1570  1.6413
 4630TIP3    H235382   0.122   3.274  12.837  0.7156 -0.0793 -0.8264
 4631TIP3   OH235383   6.273   3.408  15.335 -0.0042 -0.1837 -0.8949
 4631TIP3    H135384   6.276   3.396  15.240 -2.2036 -1.8451 -0.8342
 4631TIP3    H235385   6.285   3.320  15.370  1.3096  0.4751  0.4506
 4632TIP3   OH235386   2.515   1.706  14.048  0.2133 -0.1583 -0.4610
 4632TIP3    H135387   2.540   1.777  13.990  3.5268 -1.7191 -1.1854
 4632TIP3    H235388   2.555   1.728  14.132  1.7110 -1.3364 -0.8312
 4633TIP3   OH235389   4.882   0.549   1.678  0.0304 -0.3713  0.4701
 4633TIP3    H135390   4.816   0.618   1.678 -0.6880 -1.0416  0.7908
 4633TIP3    H235391   4.922   0.552   1.765  0.8719  0.4285  0.0802
 4634TIP3   OH235392   3.057   5.278   0.198 -0.6441  0.3432 -0.9385
 4634TIP3    H135393   2.968   5.296   0.166 -0.6603 -0.3241 -1.2910
 4634TIP3    H235394   3.045   5.264   0.292 -0.9462  0.1004 -1.0077
 4635TIP3   OH235395   0.428   3.377  11.780  0.1852  0.0722 -0.3986
 4635TIP3    H135396   0.455   3.460  11.821  1.9728  0.2035 -1.7415
 4635TIP3    H235397   0.508   3.324  11.778 -0.3319 -0.6981 -1.8579
 4636TIP3   OH235398   2.042   4.564   4.276  0.0711  0.1942 -0.4587
 4636TIP3    H135399   2.121   4.524   4.313 -0.0454 -0.1939 -0.6308
 4636TIP3    H235400   2.003   4.613   4.349  0.6524  0.6704 -0.4571
 4637TIP3   OH235401   4.178   2.159   0.931  0.6698 -0.1578 -0.2780
 4637TIP3    H135402   4.122   2.093   0.973 -0.0029  1.1231  0.8929
 4637TIP3    H235403   4.119   2.233   0.914  2.0968  1.5241  1.6340
 4638TIP3   OH235404   5.939   1.596  11.922 -0.2583 -0.0655  0.4336
 4638TIP3    H135405   5.935   1.516  11.869  0.2187 -0.5561  1.1280
 4638TIP3    H235406   6.011   1.580  11.983  0.0690  1.0392  0.3462
 4639TIP3   OH235407   6.171   4.945   0.681 -0.3653  0.3201 -0.1850
 4639TIP3    H135408   6.166   4.907   0.769  0.2176 -1.5395 -0.8999
 4639TIP3    H235409   6.115   4.888   0.628  0.1439  0.7630 -1.2228
 4640TIP3   OH235410   0.364   0.374   1.465 -0.0167  0.1812  0.2994
 4640TIP3    H135411   0.316   0.368   1.382 -4.1377  0.2650  2.3939
 4640TIP3    H235412   0.375   0.468   1.480 -0.9596  0.2515  0.6341
 4641TIP3   OH235413   4.709   4.240  12.343  0.4298  0.2449  0.5761
 4641TIP3    H135414   4.649   4.205  12.278 -0.3408 -3.0357  2.8271
 4641TIP3    H235415   4.655   4.297  12.398  0.8355  2.0877 -0.8194
 4642TIP3   OH235416   6.659   2.707   1.539 -0.3939  0.4596  0.4068
 4642TIP3    H135417   6.687   2.742   1.454  2.1816  0.8776  1.3335
 4642TIP3    H235418   6.568   2.736   1.548 -0.4766  1.0939 -1.8256
 4643TIP3   OH235419   5.791   2.824   2.260  0.1209  0.2467  0.3463
 4643TIP3    H135420   5.775   2.731   2.278  0.6592  0.3827  1.6156
 4643TIP3    H235421   5.738   2.842   2.182  1.4787 -1.5766 -1.1095
 4644TIP3   OH235422   6.027   5.170  12.260  0.1897 -0.0498  0.2180
 4644TIP3    H135423   5.967   5.103  12.229  1.5912 -1.4987  0.4647
 4644TIP3    H235424   6.030   5.158  12.355  0.6931  0.1294  0.2305
 4645TIP3   OH235425   5.577   3.853   4.741 -0.1746  0.0608 -0.0669
 4645TIP3    H135426   5.569   3.759   4.757 -0.2476  0.4162  2.3737
 4645TIP3    H235427   5.670   3.867   4.722  0.4280 -0.2187  2.3384
 4646TIP3   OH235428   5.335   2.878   4.008  0.2759 -0.2686 -0.1895
 4646TIP3    H135429   5.333   2.806   4.072 -1.1867 -0.2830 -0.2021
 4646TIP3    H235430   5.281   2.946   4.048 -0.5101 -0.2078 -1.3158
 4647TIP3   OH235431   1.304   0.263   3.383 -0.0478  0.1195  0.1993
 4647TIP3    H135432   1.218   0.235   3.415  0.0316  0.6940  0.9437
 4647TIP3    H235433   1.303   0.241   3.290 -1.3665  0.9841 -0.0171
 4648TIP3   OH235434   5.153   5.596  13.865 -0.1598 -0.3465 -0.3974
 4648TIP3    H135435   5.217   5.651  13.820  0.2591 -0.3156  0.2187
 4648TIP3    H235436   5.088   5.574  13.798  0.2134  0.0574 -0.8978
 4649TIP3   OH235437   3.931   3.570   3.197 -0.0148 -0.3174  0.0314
 4649TIP3    H135438   3.924   3.666   3.196  1.8221 -0.1287 -1.8570
 4649TIP3    H235439   3.888   3.542   3.117  0.3611 -0.9811  0.0565
 4650TIP3   OH235440   6.669   3.942  13.416 -0.0191 -0.7341  0.2574
 4650TIP3    H135441   6.703   4.026  13.445 -1.4311 -0.6316  1.7320
 4650TIP3    H235442   6.624   3.905  13.493  0.2870 -2.6916 -0.4335
 4651TIP3   OH235443   0.393   3.103   4.430 -0.0470  0.3189 -0.6972
 4651TIP3    H135444   0.466   3.042   4.418 -2.4305 -2.3578 -3.0206
 4651TIP3    H235445   0.376   3.101   4.524 -0.2607 -3.1271 -0.6662
 4652TIP3   OH235446   6.190   4.772  12.081  0.4879 -0.9914 -0.5780
 4652TIP3    H135447   6.192   4.681  12.109  1.6196 -1.3387 -1.7085
 4652TIP3    H235448   6.239   4.773  11.999  2.3164  0.9796  0.4381
 4653TIP3   OH235449   0.096   6.830   4.046 -0.6375 -0.4520  0.4685
 4653TIP3    H135450   0.176   6.882   4.044 -0.0424 -1.3553  0.2185
 4653TIP3    H235451   0.121   6.745   4.011 -1.4694 -1.0779  1.3185
 4654TIP3   OH235452   0.445   3.765  14.520 -0.2367  0.2596  0.0696
 4654TIP3    H135453   0.451   3.860  14.510 -2.0427  0.3359 -0.5562
 4654TIP3    H235454   0.470   3.749  14.612  0.8243  1.2336 -0.0268
 4655TIP3   OH235455   0.614   1.409   4.195  0.3027 -0.5023 -0.2811
 4655TIP3    H135456   0.591   1.355   4.120  0.3892  1.3816 -1.7463
 4655TIP3    H235457   0.649   1.490   4.157 -0.7322  1.0045  1.7445
 4656TIP3   OH235458   4.644   2.771  13.300  0.4121 -0.1689 -0.8966
 4656TIP3    H135459   4.589   2.725  13.363  0.4514 -0.7832 -1.3046
 4656TIP3    H235460   4.725   2.720  13.296  1.1967  0.9466  0.0006
 4657TIP3   OH235461   0.921   3.850  14.260  0.2233  0.3774  0.4612
 4657TIP3    H135462   0.905   3.852  14.354 -1.3230 -2.8781  0.4164
 4657TIP3    H235463   0.842   3.809  14.223  0.8860  1.3202 -2.2521
 4658TIP3   OH235464   0.715   1.243   3.657  0.2167  0.2072 -0.7507
 4658TIP3    H135465   0.662   1.188   3.599 -1.3800 -0.3194  1.0951
 4658TIP3    H235466   0.778   1.183   3.696  1.9069  0.7326 -2.5344
 4659TIP3   OH235467   4.709   3.642   6.216 -0.5337  0.3124  0.2670
 4659TIP3    H135468   4.739   3.651   6.126  2.3926 -0.4987  1.0627
 4659TIP3    H235469   4.750   3.561   6.248  0.3404  1.6605  2.9263
 4660TIP3   OH235470   4.270   1.538  12.984  0.0058  0.3096 -0.1978
 4660TIP3    H135471   4.345   1.580  12.942  0.8091 -0.5381  0.3474
 4660TIP3    H235472   4.305   1.504  13.067 -1.4044  1.4863  0.9286
 4661TIP3   OH235473   5.055   4.104  11.113  0.1909 -0.2476  0.3665
 4661TIP3    H135474   5.132   4.104  11.055 -0.1017  0.8640 -0.0565
 4661TIP3    H235475   5.012   4.021  11.095  1.9291 -1.4315  1.5022
 4662TIP3   OH235476   4.327   2.540   2.572 -0.3482 -0.3849  0.2120
 4662TIP3    H135477   4.249   2.579   2.531  0.4064  2.0995  0.9404
 4662TIP3    H235478   4.374   2.499   2.500 -0.8625  0.7319 -0.8021
 4663TIP3   OH235479   1.197   3.904   4.879 -0.1964  0.1265  0.0359
 4663TIP3    H135480   1.164   3.838   4.817 -1.2389  0.8839 -0.2507
 4663TIP3    H235481   1.157   3.879   4.962  0.4704 -0.3539  0.2255
 4664TIP3   OH235482   2.596   1.342  12.676  0.0722  0.3599 -0.2479
 4664TIP3    H135483   2.645   1.324  12.757  1.7140 -0.5673 -1.3710
 4664TIP3    H235484   2.600   1.437  12.665 -0.7489  0.5721  1.0707
 4665TIP3   OH235485   1.246   2.187   2.003 -0.5412 -0.1488  0.0917
 4665TIP3    H135486   1.228   2.277   2.031 -0.3339  0.3624 -1.3466
 4665TIP3    H235487   1.341   2.178   2.010 -0.5996 -0.4084  0.6302
 4666TIP3   OH235488   6.244   2.342   3.952  0.9309 -0.0499  0.0159
 4666TIP3    H135489   6.215   2.285   3.881 -1.2965  1.9686 -0.8052
 4666TIP3    H235490   6.336   2.361   3.932  0.6434 -0.3636 -1.7529
 4667TIP3   OH235491   1.701   2.921  15.134  0.1636  0.5002 -0.4575
 4667TIP3    H135492   1.753   2.917  15.214  0.3844  0.8542 -0.5795
 4667TIP3    H235493   1.615   2.950  15.164 -1.1094 -3.4528  0.2659
 4668TIP3   OH235494   0.071   5.121  11.321 -0.5093 -0.2513 -0.4221
 4668TIP3    H135495   0.078   5.057  11.392 -1.1009  0.3663  0.2066
 4668TIP3    H235496   0.138   5.186  11.339 -1.2084  0.3532  0.0513
 4669TIP3   OH235497   4.330   6.474   5.603  0.5610 -0.0656  0.4696
 4669TIP3    H135498   4.256   6.422   5.635  0.3844  0.9689  1.8163
 4669TIP3    H235499   4.334   6.454   5.510 -0.7997 -0.8915  0.5540
 4670TIP3   OH235500   4.594   4.935  15.653 -0.3643 -0.2166  0.5213
 4670TIP3    H135501   4.659   4.991  15.609  0.0976  1.2959  2.9437
 4670TIP3    H235502   4.514   4.947  15.602  0.4381  0.4686 -0.6309
 4671TIP3   OH235503   0.991   2.425   4.818  0.0631  0.8876  0.5000
 4671TIP3    H135504   0.923   2.363   4.793 -1.0829  1.2445  2.4717
 4671TIP3    H235505   0.995   2.487   4.745 -1.9849  1.0311  0.4401
 4672TIP3   OH235506   6.811   2.619  16.525  0.1730 -0.1643 -0.6803
 4672TIP3    H135507   6.763   2.651  16.449 -0.2528 -0.3257 -0.4835
 4672TIP3    H235508   6.874   2.557  16.490  0.1530 -0.0441 -0.9286
 4673TIP3   OH235509   3.532   3.101  11.977 -0.4875  0.1507  0.0509
 4673TIP3    H135510   3.501   3.011  11.970  0.8664 -0.2633 -0.8547
 4673TIP3    H235511   3.512   3.126  12.067  0.3327 -1.5224  0.7354
 4674TIP3   OH235512   1.406   3.725  16.800  0.2472  0.7089  0.5000
 4674TIP3    H135513   1.435   3.778  16.726  1.2780 -1.7205 -0.9284
 4674TIP3    H235514   1.482   3.719  16.857  0.9651 -1.2183 -0.5877
 4675TIP3   OH235515   6.552   4.212  13.790  0.2724  0.6282  0.1309
 4675TIP3    H135516   6.565   4.132  13.840  0.0770  0.7644  0.4026
 4675TIP3    H235517   6.506   4.183  13.711 -0.9059  0.6318  0.7889
 4676TIP3   OH235518   3.843   5.849  15.677  0.0467  0.4172 -0.0148
 4676TIP3    H135519   3.787   5.784  15.720  1.3619 -1.4286 -0.9441
 4676TIP3    H235520   3.922   5.853  15.731 -1.0185  3.3618  1.5583
 4677TIP3   OH235521   1.005   5.076  16.644  0.0445  0.1544 -0.1989
 4677TIP3    H135522   1.072   5.116  16.589 -0.7886  2.2001  0.2087
 4677TIP3    H235523   0.923   5.118  16.618 -0.3740  1.3587  2.6654
 4678TIP3   OH235524   5.618   4.891   5.977  0.3622 -0.2154  0.0573
 4678TIP3    H135525   5.625   4.983   6.003  1.3688 -0.2103 -0.1822
 4678TIP3    H235526   5.688   4.847   6.026 -1.0215 -1.1334  1.2955
 4679TIP3   OH235527   2.789   1.801   0.422  0.7808 -0.2009  0.2043
 4679TIP3    H135528   2.806   1.894   0.435  0.9128 -0.2739  0.5819
 4679TIP3    H235529   2.874   1.765   0.396  0.3846  0.0538 -1.5870
 4680TIP3   OH235530   2.237   1.526  15.170  0.3467  0.2120 -0.2158
 4680TIP3    H135531   2.332   1.519  15.179  0.1425 -2.0727  0.7310
 4680TIP3    H235532   2.209   1.439  15.143 -1.7046  0.2049  1.6823
 4681TIP3   OH235533   0.728   3.742  11.739  0.3522 -0.4748 -0.0155
 4681TIP3    H135534   0.778   3.793  11.803 -0.5006 -0.3589  0.5595
 4681TIP3    H235535   0.701   3.806  11.673  0.6686 -0.4820 -0.1569
 4682TIP3   OH235536   6.795   5.883  15.635  0.3522 -0.2683 -0.2509
 4682TIP3    H135537   6.774   5.859  15.725 -1.8336  1.9885 -0.0614
 4682TIP3    H235538   6.875   5.936  15.642 -0.6805  1.2422  0.6183
 4683TIP3   OH235539   2.561   4.732  12.147 -0.1482  0.2128  0.6778
 4683TIP3    H135540   2.570   4.739  12.242  3.1228  1.5872  0.4100
 4683TIP3    H235541   2.523   4.817  12.121  2.5414  1.4604  0.5464
 4684TIP3   OH235542   0.926   2.646  15.807 -0.0482 -0.2373 -0.0928
 4684TIP3    H135543   0.950   2.557  15.835 -0.1621 -0.3139 -0.2404
 4684TIP3    H235544   0.924   2.642  15.712  0.9470  0.1816 -0.1414
 4685TIP3   OH235545   1.332   1.658  12.130  0.2957  0.1756  0.2077
 4685TIP3    H135546   1.253   1.642  12.181  1.6155 -0.9471  2.0330
 4685TIP3    H235547   1.331   1.591  12.061  0.5435 -1.0502  1.3604
 4686TIP3   OH235548   1.534   1.453  11.730 -0.2959  0.2870 -0.1180
 4686TIP3    H135549   1.454   1.437  11.779  0.1822 -1.1952  0.2139
 4686TIP3    H235550   1.505   1.492  11.647 -1.2877  0.4207  0.2891
 4687TIP3   OH235551   5.397   4.433   1.704  0.6675 -0.0288  0.2004
 4687TIP3    H135552   5.432   4.371   1.768  0.2952  1.3273  1.7963
 4687TIP3    H235553   5.463   4.502   1.700 -0.0140  0.6439  0.3093
 4688TIP3   OH235554   0.610   4.302   2.299 -0.2079 -0.3181 -0.4201
 4688TIP3    H135555   0.558   4.381   2.284  1.3245  0.8377  0.0784
 4688TIP3    H235556   0.681   4.307   2.235 -0.3830 -1.5834 -0.7374
 4689TIP3   OH235557   2.726   4.916  13.944  0.0731  0.6577  0.9639
 4689TIP3    H135558   2.731   4.821  13.931 -0.0543  0.6183  1.1913
 4689TIP3    H235559   2.693   4.926  14.033 -1.7811  0.8844  0.3125
 4690TIP3   OH235560   2.277   0.677  16.578 -0.0525  0.3678 -0.5847
 4690TIP3    H135561   2.251   0.666  16.669  4.5768 -2.3254  0.7806
 4690TIP3    H235562   2.217   0.621  16.528 -1.6003  0.5233  1.0285
 4691TIP3   OH235563   5.073   2.981   4.451  0.1446 -0.1182  0.5468
 4691TIP3    H135564   5.120   3.038   4.512 -0.0579  0.6028  0.0387
 4691TIP3    H235565   5.005   3.037   4.413  0.4823 -0.4536 -0.6023
 4692TIP3   OH235566   5.160   2.550  14.130  0.1636 -0.6192 -0.2825
 4692TIP3    H135567   5.157   2.640  14.161 -0.2333 -0.6828 -0.1386
 4692TIP3    H235568   5.074   2.514  14.150  0.3916 -1.0983 -0.1424
 4693TIP3   OH235569   6.860   3.240   5.625 -0.1363  0.2670  0.4657
 4693TIP3    H135570   6.806   3.184   5.570  1.3551  0.1585 -0.9749
 4693TIP3    H235571   6.864   3.194   5.709  0.2703 -1.3365 -0.3834
 4694TIP3   OH235572   2.066   5.664   4.324  0.2662  0.7509 -0.0664
 4694TIP3    H135573   2.039   5.690   4.236  0.6922 -0.0635 -0.4466
 4694TIP3    H235574   2.031   5.733   4.381  0.8375  1.8274 -0.9689
 4695TIP3   OH235575   4.236   0.731   3.570  0.8850 -0.0407  0.1526
 4695TIP3    H135576   4.148   0.700   3.547  0.6156  0.0729  0.9968
 4695TIP3    H235577   4.286   0.722   3.489  0.8507 -2.7582  0.3263
 4696TIP3   OH235578   1.609   6.457  12.079  0.4313  0.1666 -0.1011
 4696TIP3    H135579   1.643   6.404  12.008  1.3254  0.1352  0.3364
 4696TIP3    H235580   1.535   6.408  12.113  0.4392 -0.1577 -0.5540
 4697TIP3   OH235581   6.203   3.603  13.256  0.4346  0.2831 -0.1078
 4697TIP3    H135582   6.176   3.577  13.168  3.5748  1.1247 -1.4545
 4697TIP3    H235583   6.194   3.523  13.308 -0.3158 -0.5514 -1.4601
 4698TIP3   OH235584   3.802   6.426   0.899  0.1200  0.2078 -0.0108
 4698TIP3    H135585   3.785   6.352   0.956  1.0771  1.2933  1.7621
 4698TIP3    H235586   3.755   6.500   0.940  5.0353  2.3056  2.6782
 4699TIP3   OH235587   1.603   6.494  11.331 -0.0915  0.1164  0.1186
 4699TIP3    H135588   1.560   6.568  11.374  0.7640  0.0221  1.1587
 4699TIP3    H235589   1.671   6.534  11.278 -2.3640  0.4227 -2.8569
 4700TIP3   OH235590   0.299   3.210  11.622 -0.4612  0.8442  0.5838
 4700TIP3    H135591   0.350   3.237  11.546  0.7637  0.4052  1.2293
 4700TIP3    H235592   0.323   3.273  11.690  0.4741 -0.3149  1.3563
 4701TIP3   OH235593   6.320   2.569   0.638  0.0588  0.3762 -0.0670
 4701TIP3    H135594   6.262   2.626   0.689  1.2440  0.4441  1.2461
 4701TIP3    H235595   6.281   2.568   0.551 -2.4538 -0.3101  0.9627
 4702TIP3   OH235596   3.893   0.925  13.384 -0.3291 -0.2708 -0.4208
 4702TIP3    H135597   3.909   0.932  13.478  1.6775  0.7652 -0.7924
 4702TIP3    H235598   3.970   0.881  13.349 -0.1332  1.0681 -1.7976
 4703TIP3   OH235599   5.002   0.094   0.222 -0.2484 -0.0680 -0.2217
 4703TIP3    H135600   5.095   0.111   0.233 -0.8306  2.4087  1.8271
 4703TIP3    H235601   4.981   0.128   0.135  0.4733  0.9170 -0.0217
 4704TIP3   OH235602   4.327   6.412   1.343  0.1256 -0.0909 -0.1830
 4704TIP3    H135603   4.388   6.448   1.408 -0.6258 -0.5698  0.8297
 4704TIP3    H235604   4.245   6.459   1.359 -0.0152 -0.0905 -0.9124
 4705TIP3   OH235605   2.110   0.838   0.524  0.1287 -0.0861 -0.3364
 4705TIP3    H135606   2.147   0.905   0.582  0.4793 -0.3836 -0.2142
 4705TIP3    H235607   2.032   0.879   0.487 -0.6056 -0.1801  1.0191
 4706TIP3   OH235608   1.841   3.795   3.045  0.0696  0.0809  0.0501
 4706TIP3    H135609   1.937   3.791   3.046  0.0467 -0.7228  0.9296
 4706TIP3    H235610   1.818   3.821   3.134 -0.5345  0.3568 -0.1831
 4707TIP3   OH235611   2.640   1.235  11.663  0.7028  0.3435  0.4964
 4707TIP3    H135612   2.657   1.155  11.714 -1.3729 -0.5244 -0.0665
 4707TIP3    H235613   2.610   1.299  11.728 -2.1848 -0.8383  0.4870
 4708TIP3   OH235614   6.125   3.417   2.116  0.0759 -0.1208  0.2809
 4708TIP3    H135615   6.041   3.421   2.072 -0.4757  0.3110  1.3210
 4708TIP3    H235616   6.185   3.463   2.057 -0.5431  0.0739 -0.2111
 4709TIP3   OH235617   0.229   2.048   1.640 -0.3281 -0.4106  0.1967
 4709TIP3    H135618   0.208   2.102   1.715 -0.6770 -0.1211 -0.1060
 4709TIP3    H235619   0.281   2.104   1.583 -1.9945  0.1500 -0.8502
 4710TIP3   OH235620   0.392   5.107  15.660  0.5013  0.1467  0.6023
 4710TIP3    H135621   0.347   5.171  15.716  1.7594  1.2973  0.3610
 4710TIP3    H235622   0.470   5.083  15.711  0.2736 -0.8623  0.4873
 4711TIP3   OH235623   5.940   4.261   3.089 -0.1794 -0.4709  0.6192
 4711TIP3    H135624   6.009   4.236   3.150  3.0950  0.3252 -2.3623
 4711TIP3    H235625   5.983   4.260   3.003 -3.9363  0.2020 -1.5039
 4712TIP3   OH235626   1.563   6.260   1.035  0.3086  0.2317  0.0482
 4712TIP3    H135627   1.476   6.294   1.015  1.7814  3.5028 -1.4575
 4712TIP3    H235628   1.568   6.264   1.131 -1.1100  0.1390  0.1549
 4713TIP3   OH235629   1.960   2.384   3.690 -0.1238 -0.4788 -0.0838
 4713TIP3    H135630   1.878   2.342   3.662 -1.4376  1.3971  0.7624
 4713TIP3    H235631   2.005   2.317   3.740 -1.5639 -1.2925  0.1894
 4714TIP3   OH235632   1.411   1.961   1.798 -0.1199  0.3504  0.7655
 4714TIP3    H135633   1.405   2.030   1.732  0.1526  0.2540  0.6381
 4714TIP3    H235634   1.403   1.880   1.748  0.1196  0.2764  0.8448
 4715TIP3   OH235635   2.692   0.933   2.521 -0.2271  0.2964  0.0160
 4715TIP3    H135636   2.654   1.003   2.469 -0.6949 -0.4825 -0.7111
 4715TIP3    H235637   2.617   0.889   2.560 -0.3597 -2.4556 -2.9480
 4716TIP3   OH235638   6.715   3.222  14.742 -0.1328  0.0330  0.1167
 4716TIP3    H135639   6.653   3.250  14.810  0.6604  2.2231  0.0287
 4716TIP3    H235640   6.786   3.181  14.790 -1.2755 -1.8580  0.2736
 4717TIP3   OH235641   6.343   1.551   5.040 -0.4831 -0.5419 -0.0836
 4717TIP3    H135642   6.379   1.530   5.126  0.7836  0.3857 -0.3622
 4717TIP3    H235643   6.367   1.476   4.985 -1.1272 -1.0464  0.3073
 4718TIP3   OH235644   1.701   4.036   0.993  0.0615 -0.1489  0.0170
 4718TIP3    H135645   1.750   3.965   0.951  0.7943  0.8854 -0.9442
 4718TIP3    H235646   1.768   4.090   1.034 -0.6031 -0.8082  2.0732
 4719TIP3   OH235647   4.548   1.369   4.337 -0.4004 -0.0474  0.2404
 4719TIP3    H135648   4.599   1.417   4.403 -0.0193 -0.6587  0.3972
 4719TIP3    H235649   4.502   1.302   4.387  0.9648 -1.4171 -0.2600
 4720TIP3   OH235650   0.726   3.728   1.496  0.0053 -0.6904 -0.2521
 4720TIP3    H135651   0.820   3.716   1.485  0.2510  1.7726 -1.3065
 4720TIP3    H235652   0.717   3.811   1.542 -1.6764 -0.0355 -1.6820
 4721TIP3   OH235653   2.534   4.774   4.617 -0.7425 -0.1618 -0.0381
 4721TIP3    H135654   2.508   4.725   4.695 -0.1894 -0.1129  0.1802
 4721TIP3    H235655   2.587   4.846   4.650  1.8439 -1.6650 -0.5966
 4722TIP3   OH235656   5.097   2.033   4.773 -0.2283  0.3609  0.0030
 4722TIP3    H135657   5.177   2.071   4.809  0.2800  1.2558 -1.9192
 4722TIP3    H235658   5.026   2.081   4.816  0.1760 -0.7847  2.1103
 4723TIP3   OH235659   4.736   2.515  14.853 -0.5408 -0.4068 -0.3246
 4723TIP3    H135660   4.784   2.464  14.788 -0.6383 -0.4887 -0.3321
 4723TIP3    H235661   4.646   2.484  14.846 -0.5679 -0.3547 -0.2105
 4724TIP3   OH235662   1.715   6.749   4.181 -0.3328  0.8595 -0.7883
 4724TIP3    H135663   1.767   6.681   4.139  0.9478  2.1345 -1.3206
 4724TIP3    H235664   1.626   6.713   4.182  0.3643 -0.9850 -0.6560
 4725TIP3   OH235665   0.829   4.100  13.774 -0.0610  0.5554 -0.0455
 4725TIP3    H135666   0.916   4.073  13.746  0.6574  2.2878  0.3759
 4725TIP3    H235667   0.779   4.110  13.693  0.0543 -0.6242 -0.2789
 4726TIP3   OH235668   1.668   3.483  13.020 -0.3090  0.3712  0.2516
 4726TIP3    H135669   1.633   3.428  12.949 -4.2816  1.4390  1.1629
 4726TIP3    H235670   1.724   3.546  12.975 -1.3878 -0.0024 -1.7538
 4727TIP3   OH235671   2.407   5.039   2.134  0.1950  0.1896 -0.2771
 4727TIP3    H135672   2.382   5.113   2.079  1.2630  1.3553  0.7338
 4727TIP3    H235673   2.483   5.070   2.183  0.8516 -1.6918 -0.0291
 4728TIP3   OH235674   0.994   4.213  15.417  0.7058 -0.2419 -0.1125
 4728TIP3    H135675   1.006   4.122  15.391 -0.5710 -1.4212  2.9275
 4728TIP3    H235676   0.927   4.210  15.485 -0.3404  3.1709 -0.7699
 4729TIP3   OH235677   2.236   3.361  11.171 -0.0076  0.5352  0.2041
 4729TIP3    H135678   2.215   3.275  11.207 -1.5173  0.5676 -0.4916
 4729TIP3    H235679   2.331   3.363  11.167  0.0915 -0.6810  1.2100
 4730TIP3   OH235680   3.108   4.430   2.867 -0.2912  0.4010  0.4009
 4730TIP3    H135681   3.089   4.376   2.944 -1.0712  0.6862  0.4126
 4730TIP3    H235682   3.030   4.423   2.813  0.1998  0.3152 -0.3097
 4731TIP3   OH235683   1.082   3.201  16.442  0.0091  0.0678  0.1078
 4731TIP3    H135684   1.153   3.207  16.506  1.6140 -0.9443 -1.4770
 4731TIP3    H235685   1.092   3.278  16.387  0.7143 -0.7316 -0.9066
 4732TIP3   OH235686   3.830   4.624  16.938 -0.3226 -0.3477  0.4256
 4732TIP3    H135687   3.816   4.533  16.962 -0.8642 -0.0012  1.4642
 4732TIP3    H235688   3.881   4.661  17.010 -0.2120  0.2104  0.0743
 4733TIP3   OH235689   5.661   4.930  14.815  0.2815 -0.1348 -0.0588
 4733TIP3    H135690   5.633   4.844  14.847  1.2797 -0.5457 -0.2630
 4733TIP3    H235691   5.659   4.922  14.719  3.4523 -1.0391 -0.1673
 4734TIP3   OH235692   4.096   4.169  10.138 -0.5592  0.7818 -0.4680
 4734TIP3    H135693   4.026   4.155  10.202  0.3087  2.3395  0.8955
 4734TIP3    H235694   4.103   4.264  10.130  1.6583  0.6827 -0.2494
 4735TIP3   OH235695   0.335   2.862   5.660  0.3385  0.2449 -0.8493
 4735TIP3    H135696   0.320   2.830   5.571  0.8497  1.8410 -1.5517
 4735TIP3    H235697   0.250   2.857   5.702  0.2345 -1.1990 -1.1779
 4736TIP3   OH235698   6.476   3.664  13.278 -0.0503  0.2874  0.3438
 4736TIP3    H135699   6.384   3.661  13.252  0.4864  1.4407 -1.9359
 4736TIP3    H235700   6.516   3.727  13.218  1.9588  0.9118  2.2152
 4737TIP3   OH235701   5.530   3.037   2.458  0.2328  0.1072 -0.3846
 4737TIP3    H135702   5.462   3.101   2.437  0.6074  0.6378 -0.0015
 4737TIP3    H235703   5.553   2.999   2.373 -2.0856 -1.7028 -0.3149
 4738TIP3   OH235704   3.939   6.107   2.548 -0.3425 -0.2326 -0.4365
 4738TIP3    H135705   3.993   6.028   2.556  0.4846  0.2920 -0.7231
 4738TIP3    H235706   4.001   6.176   2.523 -1.3673  0.0695 -2.3179
 4739TIP3   OH235707   1.981   6.267  16.063  0.1457 -0.2411  0.1387
 4739TIP3    H135708   1.899   6.304  16.031  0.1930  0.4754  0.8203
 4739TIP3    H235709   1.954   6.192  16.116  0.0484 -1.2124 -1.1994
 4740TIP3   OH235710   1.494   5.908   1.070  0.1583  0.3038 -0.1493
 4740TIP3    H135711   1.452   5.977   1.020 -0.1858 -2.0142 -3.4036
 4740TIP3    H235712   1.428   5.881   1.134 -0.5135  1.4754 -0.3167
 4741TIP3   OH235713   5.607   1.463  15.267 -0.1517  0.3345  0.6382
 4741TIP3    H135714   5.526   1.425  15.301 -1.2292  2.0002  0.0903
 4741TIP3    H235715   5.577   1.531  15.207  1.6941 -0.2061 -0.9685
 4742TIP3   OH235716   1.557   5.921   4.107 -0.2613  0.6206 -0.0327
 4742TIP3    H135717   1.505   5.843   4.089 -0.4578  0.6130  0.5510
 4742TIP3    H235718   1.622   5.923   4.037  0.8369 -1.0082  0.8801
 4743TIP3   OH235719   0.454   3.187   0.246 -0.2103  1.4685  0.2026
 4743TIP3    H135720   0.452   3.162   0.153  0.1091  1.0681  0.3009
 4743TIP3    H235721   0.505   3.268   0.247  0.2728  1.1698  0.0938
 4744TIP3   OH235722   3.342   5.433  13.844  0.0410  0.7267  0.3173
 4744TIP3    H135723   3.285   5.508  13.863  1.3512  2.8082 -3.1353
 4744TIP3    H235724   3.431   5.467  13.853  0.7091 -0.8665  0.1038
 4745TIP3   OH235725   5.916   5.003   2.663  0.5637  0.5792  0.1372
 4745TIP3    H135726   5.979   4.937   2.633 -0.1602 -0.3205  0.5222
 4745TIP3    H235727   5.844   4.997   2.600 -1.3705 -1.9471  2.3687
 4746TIP3   OH235728   2.424   2.730   4.884  0.2500  0.3807  0.1763
 4746TIP3    H135729   2.512   2.743   4.917  0.8977 -0.0944 -1.2769
 4746TIP3    H235730   2.432   2.659   4.820 -0.8865  1.2899 -1.0535
 4747TIP3   OH235731   1.860   1.956  16.121  0.0812  0.0320 -0.7670
 4747TIP3    H135732   1.765   1.967  16.116  0.1262  1.0546  0.0742
 4747TIP3    H235733   1.887   1.938  16.031 -0.6449  2.2475 -1.5068
 4748TIP3   OH235734   1.967   5.287   2.857 -0.1071  0.3601 -0.1720
 4748TIP3    H135735   1.901   5.354   2.843 -0.7908 -0.5927 -1.6975
 4748TIP3    H235736   2.050   5.334   2.852 -0.6024  1.4285  0.9550
 4749TIP3   OH235737   1.360   5.592   5.260 -0.0854 -0.2461  0.7286
 4749TIP3    H135738   1.277   5.595   5.212  0.0537 -0.3949  0.4734
 4749TIP3    H235739   1.356   5.666   5.321  0.1335  0.5241 -0.1703
 4750TIP3   OH235740   4.402   6.357   5.363 -0.7991  0.3219 -0.5232
 4750TIP3    H135741   4.457   6.287   5.397 -1.3192  0.6100  1.0151
 4750TIP3    H235742   4.400   6.343   5.269  0.4918 -0.7021 -0.4216
 4751TIP3   OH235743   2.416   0.337  12.589 -0.2983  0.1617 -0.1760
 4751TIP3    H135744   2.468   0.405  12.633 -1.5080  0.8315  0.2799
 4751TIP3    H235745   2.401   0.371  12.501  0.2580 -0.1490 -0.3884
 4752TIP3   OH235746   0.737   0.166   2.527 -0.1108 -0.1250  0.0142
 4752TIP3    H135747   0.718   0.260   2.520 -1.0302 -0.3912 -1.4359
 4752TIP3    H235748   0.744   0.136   2.437  3.8043 -0.8014  0.3999
 4753TIP3   OH235749   4.858   4.768   2.060  0.1318 -0.4852  0.7407
 4753TIP3    H135750   4.857   4.673   2.050  2.3242 -0.5077  0.0749
 4753TIP3    H235751   4.857   4.801   1.970 -2.2320  0.2237  0.9805
 4754TIP3   OH235752   3.226   6.170   1.519 -0.5959 -0.2809  0.1413
 4754TIP3    H135753   3.167   6.238   1.486 -1.8172 -0.6893  1.3617
 4754TIP3    H235754   3.255   6.204   1.604  0.8747 -0.1374 -0.3981
 4755TIP3   OH235755   0.044   6.513   2.940 -0.3717  0.1289  0.3794
 4755TIP3    H135756   0.014   6.576   2.875 -0.9671 -2.4268 -2.0195
 4755TIP3    H235757   0.135   6.538   2.957  0.3746  0.0220 -2.7736
 4756TIP3   OH235758   0.690   1.620   5.617  0.4871 -0.1115  0.3335
 4756TIP3    H135759   0.722   1.702   5.655  3.0150 -0.9127  0.0993
 4756TIP3    H235760   0.647   1.576   5.690 -2.0001  1.8287  0.2011
 4757TIP3   OH235761   5.802   6.247  13.620 -0.3406 -0.9778  0.4724
 4757TIP3    H135762   5.752   6.327  13.638 -1.3395 -1.4956  0.1122
 4757TIP3    H235763   5.843   6.262  13.535 -0.1678 -0.6815  0.6081
 4758TIP3   OH235764   4.615   5.808  15.391  0.5383  0.8524  0.2036
 4758TIP3    H135765   4.676   5.795  15.463  0.7278 -1.3021 -0.2745
 4758TIP3    H235766   4.623   5.901  15.368  2.3867  0.9761  1.2411
 4759TIP3   OH235767   1.606   1.106  16.671 -0.2731 -0.1798 -0.2662
 4759TIP3    H135768   1.556   1.152  16.738 -2.5780  0.7470 -2.4427
 4759TIP3    H235769   1.604   1.014  16.699  0.9997  0.4498  2.1216
 4760TIP3   OH235770   5.788   4.779   6.504 -0.2506  0.1420 -0.6826
 4760TIP3    H135771   5.807   4.872   6.511  2.0530 -0.3030  0.0806
 4760TIP3    H235772   5.728   4.761   6.576  1.3298  0.6462  0.8559
 4761TIP3   OH235773   4.182   0.952   0.996  0.4715 -0.5531 -0.4633
 4761TIP3    H135774   4.177   1.010   1.072 -0.8833 -2.4242  0.9748
 4761TIP3    H235775   4.113   0.983   0.938  1.8743  1.2374 -1.2605
 4762TIP3   OH235776   0.646   0.998   4.170  0.0167  0.2760 -0.0173
 4762TIP3    H135777   0.712   1.049   4.216 -0.4086  0.5431  0.3102
 4762TIP3    H235778   0.573   1.060   4.156  0.3601  0.3775 -1.5876
 4763TIP3   OH235779   2.128   4.848  16.851  0.1288  0.3422 -0.0606
 4763TIP3    H135780   2.085   4.791  16.914 -0.5378  2.4046  1.4692
 4763TIP3    H235781   2.058   4.907  16.820  1.0561  1.2542 -0.4915
 4764TIP3   OH235782   1.396   1.941  15.968  0.2096  0.7197 -0.1921
 4764TIP3    H135783   1.436   1.990  16.040 -0.5885  1.5530 -0.2918
 4764TIP3    H235784   1.337   1.879  16.011  1.5105 -0.4677 -0.0490
 4765TIP3   OH235785   0.810   5.782  15.516  0.7622  0.2830 -0.0665
 4765TIP3    H135786   0.838   5.873  15.531  0.7187  0.3358 -0.2982
 4765TIP3    H235787   0.830   5.767  15.423 -1.2207  0.7547 -0.6086
 4766TIP3   OH235788   5.373   0.977   6.422 -0.0369  0.2483  0.2649
 4766TIP3    H135789   5.430   1.051   6.440  0.6923 -0.5773  1.4705
 4766TIP3    H235790   5.324   0.964   6.503 -0.2888 -0.4801  0.0075
 4767TIP3   OH235791   1.290   5.324  15.994  0.4686  0.1298  0.3076
 4767TIP3    H135792   1.360   5.371  16.038 -0.5080  2.2309 -0.2413
 4767TIP3    H235793   1.217   5.387  15.991 -0.7834 -1.2933 -0.8358
 4768TIP3   OH235794   3.930   1.585  14.955 -0.0583 -0.0241  0.7182
 4768TIP3    H135795   3.989   1.528  15.004  1.6557  1.1308  0.0686
 4768TIP3    H235796   3.917   1.541  14.871  1.9044  0.8508 -0.0961
 4769TIP3   OH235797   4.177   2.335  14.515 -0.5253 -0.8870 -0.4794
 4769TIP3    H135798   4.225   2.285  14.449  0.4930  0.8062 -1.0912
 4769TIP3    H235799   4.088   2.300  14.512 -0.1959 -1.6823 -1.8820
 4770TIP3   OH235800   3.435   6.076  12.122  0.0104  0.1775 -0.3591
 4770TIP3    H135801   3.412   6.123  12.041  0.3139 -0.5072 -0.8579
 4770TIP3    H235802   3.361   6.092  12.181  0.3417  1.7126 -0.3142
 4771TIP3   OH235803   5.447   1.353  12.394 -0.4542 -0.6447  0.1431
 4771TIP3    H135804   5.439   1.288  12.324 -0.6836 -1.2621  0.7351
 4771TIP3    H235805   5.362   1.353  12.438  0.4207 -2.0956  1.9900
 4772TIP3   OH235806   4.825   4.751   0.851 -0.0215 -0.8436 -0.1665
 4772TIP3    H135807   4.807   4.757   0.757  1.1324 -2.5098 -0.5517
 4772TIP3    H235808   4.742   4.724   0.890 -0.2881 -1.0197 -0.8458
 4773TIP3   OH235809   5.193   3.531  13.997  0.2507  0.0926 -0.3689
 4773TIP3    H135810   5.274   3.582  13.996 -0.0756  0.7147 -2.9036
 4773TIP3    H235811   5.136   3.575  13.934 -1.5912 -1.0912  0.3716
 4774TIP3   OH235812   3.870   4.579   0.720 -0.6302 -0.2490 -0.4983
 4774TIP3    H135813   3.948   4.545   0.764 -1.4563 -2.2484 -0.4908
 4774TIP3    H235814   3.803   4.581   0.788 -0.3193  2.7952 -0.1391
 4775TIP3   OH235815   0.014   5.076   1.138 -0.0409 -0.0868  0.2331
 4775TIP3    H135816  -0.081   5.068   1.143 -0.0001  0.2205  2.0111
 4775TIP3    H235817   0.029   5.171   1.138  0.1948 -0.0057 -3.1064
 4776TIP3   OH235818   4.914   5.482  15.709  0.1663  0.6129  0.0228
 4776TIP3    H135819   4.952   5.522  15.787  1.5508  0.2480 -0.4263
 4776TIP3    H235820   4.869   5.403  15.740  2.1071 -0.4420  0.3042
 4777TIP3   OH235821   6.659   4.486   2.654  0.0616 -0.3323 -0.2769
 4777TIP3    H135822   6.689   4.416   2.596  0.2778  0.5988 -1.3121
 4777TIP3    H235823   6.736   4.510   2.705  0.4082  0.2546 -1.0705
 4778TIP3   OH235824   3.391   1.249   2.991  0.2197  0.1220  0.2992
 4778TIP3    H135825   3.379   1.323   3.050  0.8613  0.8133 -0.4101
 4778TIP3    H235826   3.486   1.238   2.986  0.3747  1.6918 -2.4905
 4779TIP3   OH235827   0.648   6.033   5.808 -0.2106 -0.1147  0.5215
 4779TIP3    H135828   0.567   5.990   5.784  0.1333 -1.1064  1.1083
 4779TIP3    H235829   0.621   6.118   5.843 -0.7579  1.6204 -3.5127
 4780TIP3   OH235830   4.224   6.094  16.363 -0.0226 -0.3372 -0.2749
 4780TIP3    H135831   4.148   6.074  16.418 -0.6795 -1.4336 -1.5338
 4780TIP3    H235832   4.297   6.052  16.408 -0.5869 -1.4320 -0.3444
 4781TIP3   OH235833   3.901   5.552  13.295  0.1437  0.1440 -0.3834
 4781TIP3    H135834   3.994   5.530  13.306 -0.6021 -2.5009  1.9290
 4781TIP3    H235835   3.861   5.470  13.266 -1.4197  1.4280 -2.0576
 4782TIP3   OH235836   1.622   1.047   1.818  0.0096  0.0801  0.4909
 4782TIP3    H135837   1.652   1.132   1.786 -4.1055  1.4118 -0.5346
 4782TIP3    H235838   1.618   1.058   1.913 -0.7243  1.2008  0.3532
 4783TIP3   OH235839   0.233   5.579  15.003 -0.0573 -0.0541  0.5554
 4783TIP3    H135840   0.140   5.558  15.015 -0.0800 -0.1800  0.1837
 4783TIP3    H235841   0.242   5.592  14.909  0.2915  0.0156  0.5986
 4784TIP3   OH235842   4.604   6.091   3.378  0.7447  0.7208  0.4042
 4784TIP3    H135843   4.587   6.003   3.344  0.0332  0.2115  1.9586
 4784TIP3    H235844   4.683   6.120   3.332  0.6752 -0.4936 -0.5417
 4785TIP3   OH235845   2.276   4.771   4.964  0.2939 -0.2048 -0.5376
 4785TIP3    H135846   2.361   4.741   4.931  0.7542  0.5150 -0.0490
 4785TIP3    H235847   2.246   4.701   5.022 -0.3793 -1.3430 -2.2000
 4786TIP3   OH235848   1.721   1.598  14.742 -0.5749 -0.3532  0.1852
 4786TIP3    H135849   1.705   1.626  14.833  0.3418  0.4278  0.1133
 4786TIP3    H235850   1.815   1.580  14.739 -0.3357  0.9986 -0.9769
 4787TIP3   OH235851   3.036   3.682  14.191 -0.7603  0.1623 -0.3895
 4787TIP3    H135852   3.103   3.735  14.149 -1.4133  1.5926  0.2685
 4787TIP3    H235853   2.997   3.631  14.121 -1.2257  1.8254 -1.3944
 4788TIP3   OH235854   0.907   6.756  16.719  0.2704 -0.5261 -0.1413
 4788TIP3    H135855   0.986   6.790  16.676 -0.9417  0.3391 -1.8085
 4788TIP3    H235856   0.932   6.669  16.749  2.2609  0.2358  0.6214
 4789TIP3   OH235857   0.220   5.352  14.344  0.1401  0.5437  0.2331
 4789TIP3    H135858   0.212   5.258  14.364  0.7514  0.2429 -0.8694
 4789TIP3    H235859   0.129   5.382  14.338 -0.0670 -0.1406 -0.1360
 4790TIP3   OH235860   1.918   3.870  10.940 -0.0817 -0.4130 -0.2364
 4790TIP3    H135861   1.950   3.788  10.978  1.8365 -0.8727 -2.6066
 4790TIP3    H235862   1.973   3.938  10.981  0.4826 -0.6566 -0.5878
 4791TIP3   OH235863   5.378   4.353   6.025  0.2877 -0.5465  0.6506
 4791TIP3    H135864   5.469   4.367   6.050  0.5665 -0.7169 -0.2194
 4791TIP3    H235865   5.372   4.260   6.003 -0.4270 -0.8355  1.9472
 4792TIP3   OH235866   2.289   5.118  11.362 -0.6904 -0.1067  0.0773
 4792TIP3    H135867   2.333   5.145  11.281 -3.3029 -1.0619 -1.7893
 4792TIP3    H235868   2.312   5.187  11.425 -0.3350  1.9264 -2.1064
 4793TIP3   OH235869   5.677   6.597  11.393 -0.2049  0.2797 -0.2798
 4793TIP3    H135870   5.765   6.619  11.363 -0.3378 -0.3895 -1.2123
 4793TIP3    H235871   5.620   6.660  11.350 -0.2867  0.0112 -0.5697
 4794TIP3   OH235872   5.452   0.441  17.036  0.0511 -0.3177  0.1871
 4794TIP3    H135873   5.506   0.369  17.068  0.4584 -0.3664 -0.5975
 4794TIP3    H235874   5.444   0.500  17.111  0.8481 -0.5185  0.4354
 4795TIP3   OH235875   2.772   0.321   2.873 -0.3088 -0.2201 -0.2225
 4795TIP3    H135876   2.717   0.337   2.949 -1.0437 -0.8386 -0.6175
 4795TIP3    H235877   2.830   0.397   2.869 -1.4190  0.6628 -0.0485
 4796TIP3   OH235878   3.546   6.268   3.465  0.9173  0.0787 -0.4262
 4796TIP3    H135879   3.529   6.175   3.483  0.4415 -0.4659 -3.2177
 4796TIP3    H235880   3.641   6.275   3.465  0.9482 -0.2296  0.5336
 4797TIP3   OH235881   3.016   5.461  13.483  0.0048  0.2498 -0.0968
 4797TIP3    H135882   3.018   5.552  13.514  0.1064  0.1538  0.1847
 4797TIP3    H235883   3.050   5.466  13.393  3.9071  0.0273  1.1730
 4798TIP3   OH235884   4.098   0.135   4.934 -0.0292 -0.3565  0.3295
 4798TIP3    H135885   4.127   0.219   4.968  0.6697 -0.6456  0.4486
 4798TIP3    H235886   4.106   0.075   5.008 -0.2358 -0.5951  0.1592
 4799TIP3   OH235887   6.034   5.578   1.660 -0.0724  0.3232 -0.0897
 4799TIP3    H135888   5.966   5.612   1.602  0.0846 -1.2745 -1.2923
 4799TIP3    H235889   6.116   5.595   1.614  0.0633 -0.8473 -0.3146
 4800TIP3   OH235890   0.589   0.977  16.486 -0.1003  0.9185  0.1191
 4800TIP3    H135891   0.683   0.994  16.495  0.3839 -0.7961 -1.1150
 4800TIP3    H235892   0.579   0.884  16.510 -1.0203  0.3399 -2.2293
 4801TIP3   OH235893   0.031   0.360   2.748  0.2415  0.5961  0.2766
 4801TIP3    H135894   0.008   0.449   2.719 -0.1888  0.7090  0.9307
 4801TIP3    H235895   0.043   0.311   2.667 -0.7419  0.9453 -0.0975
 4802TIP3   OH235896   2.343   6.656   5.186  0.1055 -0.2979 -0.0108
 4802TIP3    H135897   2.343   6.586   5.251 -0.4086  1.7700  2.3917
 4802TIP3    H235898   2.270   6.712   5.211 -0.2606  0.5044 -2.5782
 4803TIP3   OH235899   5.185   5.776  14.952  0.5897  0.5063 -0.4552
 4803TIP3    H135900   5.267   5.789  14.904 -0.2277  0.8214 -1.8196
 4803TIP3    H235901   5.161   5.863  14.983 -0.3500  0.8426 -2.0019
 4804TIP3   OH235902   1.705   3.696   4.974 -0.6895  0.5399  0.3749
 4804TIP3    H135903   1.700   3.702   5.070 -0.9238  0.6152  0.3569
 4804TIP3    H235904   1.758   3.772   4.948  2.4730 -1.3567  0.7330
 4805TIP3   OH235905   5.128   4.806  16.017 -0.4124 -0.1892  0.1311
 4805TIP3    H135906   5.074   4.884  16.009  0.0405  0.2072  0.8442
 4805TIP3    H235907   5.144   4.777  15.927 -0.7715  0.4053 -0.1222
 4806TIP3   OH235908   4.239   3.804  14.293  0.6986  0.5407  0.1589
 4806TIP3    H135909   4.193   3.804  14.209  0.5338  1.2881  0.2355
 4806TIP3    H235910   4.318   3.753  14.277 -0.6732 -1.7734  0.3324
 4807TIP3   OH235911   3.352   3.999  16.850 -0.0372  0.1730  0.3516
 4807TIP3    H135912   3.382   4.024  16.938 -0.8580  0.2552  0.6245
 4807TIP3    H235913   3.269   4.046  16.840  1.1005  1.9897 -1.3819
 4808TIP3   OH235914   6.802   4.241  15.811  0.4300  0.3059  0.0203
 4808TIP3    H135915   6.848   4.254  15.729 -0.8990  1.1075 -0.6225
 4808TIP3    H235916   6.713   4.216  15.786 -0.1815  1.1924  1.1941
 4809TIP3   OH235917   5.752   4.195  15.857  0.3924  0.1243 -0.2047
 4809TIP3    H135918   5.769   4.276  15.906  0.1297  0.1413 -0.1414
 4809TIP3    H235919   5.755   4.126  15.923 -1.5676  0.3121  0.1323
 4810TIP3   OH235920   0.608   4.106   5.256 -0.0747 -0.2655 -0.6823
 4810TIP3    H135921   0.614   4.201   5.267  0.4219 -0.4543  0.9841
 4810TIP3    H235922   0.515   4.087   5.268 -0.5555  0.1978 -3.1788
 4811TIP3   OH235923   5.254   3.206   5.763  0.4477  0.3301 -0.0708
 4811TIP3    H135924   5.180   3.199   5.703  0.3639  0.7378 -0.0176
 4811TIP3    H235925   5.216   3.237   5.845  0.7622  1.1755 -0.2311
 4812TIP3   OH235926   4.306   5.930   0.443 -0.2575 -0.3397 -0.0802
 4812TIP3    H135927   4.269   6.005   0.397 -0.9205 -0.4158  0.3148
 4812TIP3    H235928   4.379   5.901   0.388 -0.8271 -0.2247 -0.9109
 4813TIP3   OH235929   6.661   3.996  12.083  0.3028  0.1282  0.8414
 4813TIP3    H135930   6.745   4.007  12.040 -0.5995  2.3026 -0.5558
 4813TIP3    H235931   6.640   4.083  12.118 -0.7008 -0.7181  2.4961
 4814TIP3   OH235932   5.011   0.439  13.354 -0.3747 -0.2763  0.5600
 4814TIP3    H135933   4.920   0.467  13.343  0.0157  0.7777 -0.0720
 4814TIP3    H235934   5.033   0.397  13.271 -0.4091 -0.9428  0.8769
 4815TIP3   OH235935   5.661   1.666   4.887 -0.6215  0.1716 -0.3589
 4815TIP3    H135936   5.711   1.699   4.962 -0.9652 -0.5178  0.1813
 4815TIP3    H235937   5.624   1.583   4.917 -1.4404  0.2849 -1.0133
 4816TIP3   OH235938   2.180   6.659  13.069 -0.2299  0.0342 -0.1713
 4816TIP3    H135939   2.178   6.736  13.012 -1.2114 -0.0855 -0.3155
 4816TIP3    H235940   2.094   6.657  13.109  0.0396 -0.5871  0.3898
 4817TIP3   OH235941   2.563   5.522  14.255  0.2268  0.3532 -0.4964
 4817TIP3    H135942   2.567   5.570  14.337 -0.2962 -1.4147  0.6197
 4817TIP3    H235943   2.484   5.555  14.211 -1.2091 -0.7480  1.1269
 4818TIP3   OH235944   6.837   4.541   6.712  0.4273 -0.4610  0.1531
 4818TIP3    H135945   6.896   4.466   6.701  0.7631 -0.0935 -0.6304
 4818TIP3    H235946   6.783   4.540   6.633 -1.1796 -1.2508  1.2033
 4819TIP3   OH235947   0.315   6.389  13.701 -0.0368  0.3138  0.9231
 4819TIP3    H135948   0.256   6.417  13.631  2.1679 -0.0460 -1.2065
 4819TIP3    H235949   0.381   6.458  13.707 -0.6313  0.7949  3.3714
 4820TIP3   OH235950   5.610   2.599   1.500 -0.2665 -0.2782 -0.3559
 4820TIP3    H135951   5.567   2.669   1.548  0.0125 -0.1087 -0.3503
 4820TIP3    H235952   5.632   2.534   1.567 -0.9157 -0.5718 -0.4247
 4821TIP3   OH235953   6.126   4.421   5.845  0.5794 -0.1947 -0.0947
 4821TIP3    H135954   6.047   4.422   5.790  1.6450 -0.7279 -1.7215
 4821TIP3    H235955   6.141   4.328   5.863  0.5774 -0.0610  0.6079
 4822TIP3   OH235956   1.300   0.940   4.871  0.6356  0.2072 -0.2836
 4822TIP3    H135957   1.226   0.935   4.931  1.1457 -2.1649  0.2569
 4822TIP3    H235958   1.347   0.857   4.884  3.6097  1.7466 -0.3283
 4823TIP3   OH235959   4.875   6.752   0.704  0.3430 -0.3425  0.0465
 4823TIP3    H135960   4.957   6.785   0.740 -0.4415  0.3753  1.2438
 4823TIP3    H235961   4.896   6.664   0.673  1.6202 -0.0681  0.0688
 4824TIP3   OH235962   3.248   1.024   3.779  0.0688  0.0189  0.4749
 4824TIP3    H135963   3.194   0.967   3.725 -0.7403  0.2959  0.9840
 4824TIP3    H235964   3.229   1.113   3.747  0.6958  0.0773  0.2430
 4825TIP3   OH235965   6.538   2.132   3.728  0.2687  0.4199 -0.3196
 4825TIP3    H135966   6.592   2.160   3.802  0.1099  1.8168 -0.7206
 4825TIP3    H235967   6.580   2.051   3.698  1.5606  0.9348  0.0165
 4826TIP3   OH235968   4.969   4.582  12.601  0.3341 -0.0347  0.2802
 4826TIP3    H135969   5.057   4.571  12.566  0.5009 -2.5747  1.2163
 4826TIP3    H235970   4.911   4.546  12.534  0.1071  0.6654  0.0999
 4827TIP3   OH235971   4.503   2.272  14.125  0.6738 -0.1160  0.2462
 4827TIP3    H135972   4.477   2.360  14.099  0.4818  0.8573  3.2832
 4827TIP3    H235973   4.422   2.231  14.156  0.9298 -1.0075 -0.2375
 4828TIP3   OH235974   0.304   3.627   1.603 -0.1069  0.7747  0.3253
 4828TIP3    H135975   0.212   3.631   1.574 -0.5280  1.1875  1.6392
 4828TIP3    H235976   0.333   3.539   1.578 -1.2979  0.1288  1.0990
 4829TIP3   OH235977   1.319   2.069  12.068 -0.4951  0.0876 -0.2278
 4829TIP3    H135978   1.304   2.154  12.111  0.6111  1.2831 -2.1034
 4829TIP3    H235979   1.315   2.088  11.975  2.9244 -1.2822 -0.7941
 4830TIP3   OH235980   3.306   3.508  13.674  0.2384 -0.3052  0.2562
 4830TIP3    H135981   3.299   3.584  13.732 -1.3021  0.4127 -0.8007
 4830TIP3    H235982   3.310   3.433  13.733  2.1634  0.5580  1.3387
 4831TIP3   OH235983   0.560   2.231  15.848 -0.2130 -0.2831 -0.3038
 4831TIP3    H135984   0.637   2.223  15.905 -1.8261 -0.6827  1.9443
 4831TIP3    H235985   0.493   2.177  15.890 -2.2202  1.2763 -1.3149
 4832TIP3   OH235986   2.709   2.228   0.033  0.3483 -0.3164  0.0014
 4832TIP3    H135987   2.657   2.275   0.098 -1.4384 -0.5597 -1.1633
 4832TIP3    H235988   2.746   2.296  -0.023  0.2636 -0.1819  0.1094
 4833TIP3   OH235989   6.189   2.071  11.868 -0.0280 -0.3925 -0.3579
 4833TIP3    H135990   6.212   2.136  11.934 -0.7805  0.3569 -0.8077
 4833TIP3    H235991   6.230   2.103  11.788 -0.1606 -0.6291 -0.5199
 4834TIP3   OH235992   5.953   0.375  10.952 -0.0489 -0.0275 -0.3034
 4834TIP3    H135993   5.931   0.371  11.045 -1.9365  0.0920 -0.6929
 4834TIP3    H235994   5.891   0.439  10.916  1.8393  1.3082 -1.3561
 4835TIP3   OH235995   4.740   4.477   3.957 -0.1843  0.0786  0.8719
 4835TIP3    H135996   4.748   4.386   3.930 -2.0734  0.8236 -2.7032
 4835TIP3    H235997   4.774   4.528   3.884 -2.1246  2.2818  1.3571
 4836TIP3   OH235998   3.513   4.129  14.803 -0.5766  0.3108 -0.5379
 4836TIP3    H135999   3.431   4.165  14.770 -1.3108 -0.2962  0.5385
 4836TIP3    H236000   3.507   4.035  14.786 -0.7082  0.0741  0.6884
 4837TIP3   OH236001   5.664   5.144  12.965  0.2488 -0.5816 -0.3737
 4837TIP3    H136002   5.658   5.237  12.985  0.0852 -0.2672 -1.7711
 4837TIP3    H236003   5.756   5.130  12.943  0.0751 -0.5175 -1.1711
 4838TIP3   OH236004   1.277   0.924  11.787  0.1432 -0.2703  0.2427
 4838TIP3    H136005   1.186   0.908  11.811  0.1246 -2.0888 -0.8546
 4838TIP3    H236006   1.326   0.855  11.832  0.6119 -1.0487 -1.4074
 4839TIP3   OH236007   4.031   0.535  11.298 -0.4644 -0.2025 -0.1114
 4839TIP3    H136008   4.091   0.575  11.361 -1.4319 -0.7522  1.2108
 4839TIP3    H236009   3.965   0.602  11.280 -0.7101 -0.3659  0.1837
 4840TIP3   OH236010   5.683   4.824  15.284  0.3567 -0.0226  0.4635
 4840TIP3    H136011   5.713   4.777  15.205 -1.8067  1.9479 -1.6861
 4840TIP3    H236012   5.628   4.760  15.330 -0.1442 -0.5673 -0.8220
 4841TIP3   OH236013   3.986   6.014  14.345 -0.5054 -0.3076 -0.1466
 4841TIP3    H136014   4.028   5.976  14.268  2.3042  2.2369 -0.0465
 4841TIP3    H236015   3.947   6.096  14.314  0.5320  0.6795  1.0278
 4842TIP3   OH236016   4.609   2.014   3.421  0.0375 -0.6856 -0.4199
 4842TIP3    H136017   4.528   1.966   3.401 -0.9637  0.8392 -0.1536
 4842TIP3    H236018   4.659   2.011   3.340 -0.4916 -1.2301 -0.7366
 4843TIP3   OH236019   5.644   5.823   0.496 -0.0004 -0.3121  0.3188
 4843TIP3    H136020   5.569   5.852   0.445  0.7165  3.2488  1.0602
 4843TIP3    H236021   5.715   5.883   0.473  2.7764 -3.5627 -0.4138
 4844TIP3   OH236022   3.203   2.999  13.135 -0.0557  0.1023  0.4016
 4844TIP3    H136023   3.210   3.078  13.189  0.2255  1.6555 -1.7903
 4844TIP3    H236024   3.288   2.957  13.142 -0.1630  0.0318  1.4755
 4845TIP3   OH236025   5.838   0.968  13.751  0.4725 -0.4802 -0.8294
 4845TIP3    H136026   5.809   1.045  13.702  1.3847  0.5061  0.1058
 4845TIP3    H236027   5.758   0.921  13.772 -0.4513  1.6863  0.9483
 4846TIP3   OH236028   0.275   1.757   1.168 -0.2570  0.0975  0.8455
 4846TIP3    H136029   0.308   1.835   1.213 -0.3356  0.0155  1.0457
 4846TIP3    H236030   0.183   1.754   1.192 -0.9984  1.5832 -1.4619
 4847TIP3   OH236031   3.075   0.125  14.484 -0.4015  0.2006 -0.0811
 4847TIP3    H136032   3.083   0.129  14.389  1.4105  0.1105  0.0275
 4847TIP3    H236033   2.989   0.162  14.503  0.3770  3.0569 -1.5595
 4848TIP3   OH236034   5.847   2.822  11.927 -0.5603  0.0775  0.6854
 4848TIP3    H136035   5.799   2.867  11.997 -1.6171  0.1873 -0.0711
 4848TIP3    H236036   5.794   2.744  11.909  1.7439 -2.1170  2.6650
 4849TIP3   OH236037   5.343   4.778  12.808  0.2724  0.1399  0.4212
 4849TIP3    H136038   5.322   4.791  12.715 -1.3456 -0.3775  0.6726
 4849TIP3    H236039   5.374   4.863  12.838  1.5919  0.1174 -0.7568
 4850TIP3   OH236040   2.299   5.100  16.894  0.4900 -0.4440  0.2322
 4850TIP3    H136041   2.259   5.041  16.830 -1.0264 -0.3558  1.0513
 4850TIP3    H236042   2.379   5.055  16.922  1.8202 -0.0068 -2.4742
 4851TIP3   OH236043   3.189   3.472  16.161 -0.3777 -0.6116  0.0398
 4851TIP3    H136044   3.265   3.519  16.194  0.9618 -2.8245  0.3655
 4851TIP3    H236045   3.142   3.535  16.107  1.0049  1.1855  0.8583
 4852TIP3   OH236046   3.884   1.505   3.127 -0.0964  0.4567  0.3239
 4852TIP3    H136047   3.839   1.589   3.133 -1.5661 -0.0770 -2.0018
 4852TIP3    H236048   3.934   1.511   3.045 -0.0052 -0.8112  0.2705
 4853TIP3   OH236049   1.767   4.982   1.410 -0.1032 -0.1340 -0.1066
 4853TIP3    H136050   1.730   4.971   1.322 -1.3236 -1.9659  0.5896
 4853TIP3    H236051   1.789   4.894   1.438  0.5293  0.4563  1.3421
 4854TIP3   OH236052   5.505   6.374   4.505 -0.0013  0.1120 -0.2749
 4854TIP3    H136053   5.452   6.450   4.481 -1.8794 -1.0138  0.0776
 4854TIP3    H236054   5.584   6.411   4.544 -0.2126  1.8702 -1.3868
 4855TIP3   OH236055   1.860   4.932   2.166 -0.0877 -0.3178  0.2444
 4855TIP3    H136056   1.901   5.019   2.163 -1.1121  0.2503  1.6525
 4855TIP3    H236057   1.840   4.912   2.074  1.3762  0.3205 -0.2430
 4856TIP3   OH236058   5.610   0.779  11.864  0.0336  0.1479  0.5411
 4856TIP3    H136059   5.604   0.770  11.769  0.4893 -0.9075  0.5918
 4856TIP3    H236060   5.622   0.872  11.879  0.8702  0.2282 -0.5101
 4857TIP3   OH236061   6.550   2.780  13.359  0.1689 -0.4128 -0.0518
 4857TIP3    H136062   6.476   2.832  13.390  1.0895 -0.2948  2.1992
 4857TIP3    H236063   6.573   2.819  13.274 -0.2173  1.7980  0.7795
 4858TIP3   OH236064   2.482   3.680   2.258  0.5488 -0.0304 -0.2134
 4858TIP3    H136065   2.530   3.675   2.176 -1.2426  0.4693 -1.3411
 4858TIP3    H236066   2.460   3.589   2.279  1.9166 -0.2661  0.3226
 4859TIP3   OH236067   0.608   0.770   1.150  0.3912 -0.7678 -0.1664
 4859TIP3    H136068   0.685   0.815   1.186  1.2852  0.3577 -3.1082
 4859TIP3    H236069   0.631   0.677   1.153  1.0617 -0.5867  0.6636
 4860TIP3   OH236070   5.212   4.775   2.281  0.3072 -0.1373 -0.4707
 4860TIP3    H136071   5.242   4.865   2.285 -1.6908  0.5502  1.4194
 4860TIP3    H236072   5.272   4.727   2.339  0.3684  0.3406 -0.1286
 4861TIP3   OH236073   5.738   6.454   4.645 -0.1358  0.1273 -0.0399
 4861TIP3    H136074   5.827   6.488   4.657 -0.1477  0.0114  0.3984
 4861TIP3    H236075   5.717   6.413   4.729 -0.7336  0.4657 -0.0209
 4862TIP3   OH236076   0.504   3.031  15.765  0.0387 -0.2034 -0.3177
 4862TIP3    H136077   0.574   2.966  15.775  0.8784  0.8591  1.0753
 4862TIP3    H236078   0.446   3.016  15.840 -0.9208 -0.6611 -1.1197
 4863TIP3   OH236079   0.931   1.975   1.983 -0.0525  0.2852  0.1981
 4863TIP3    H136080   0.873   2.019   1.921  0.7362 -0.2667 -0.9682
 4863TIP3    H236081   0.951   2.041   2.049 -0.9488  0.8715 -0.0989
 4864TIP3   OH236082   5.892   4.640  11.617 -0.2319  0.3420 -0.1129
 4864TIP3    H136083   5.961   4.668  11.679  1.4402  1.7787 -2.4422
 4864TIP3    H236084   5.936   4.579  11.558 -1.4808 -0.1398 -0.5797
 4865TIP3   OH236085   0.247   4.169   5.228  0.7248  0.0250  0.4599
 4865TIP3    H136086   0.156   4.182   5.256  0.4904 -3.5968  1.9552
 4865TIP3    H236087   0.298   4.172   5.309  1.7726  0.5949 -0.1967
 4866TIP3   OH236088   4.782   3.253   1.941 -0.8300  0.0365  0.5748
 4866TIP3    H136089   4.705   3.308   1.956 -0.2541  1.6607 -1.8729
 4866TIP3    H236090   4.856   3.305   1.974 -0.3889  0.3628 -0.8488
 4867TIP3   OH236091   0.824   2.461   3.382  0.2366 -1.0261  0.0449
 4867TIP3    H136092   0.763   2.525   3.419 -1.1769 -0.6152 -2.7346
 4867TIP3    H236093   0.829   2.392   3.448  0.3817  1.0468  2.3268
 4868TIP3   OH236094   4.871   2.364  10.774  0.1082  0.1011 -0.0221
 4868TIP3    H136095   4.917   2.385  10.693 -0.2665 -0.0573 -0.2763
 4868TIP3    H236096   4.886   2.270  10.786  0.1561  0.1225  0.0862
 4869TIP3   OH236097   4.510   1.637  12.937  0.5447 -0.4745  0.2122
 4869TIP3    H136098   4.579   1.616  13.000 -0.7543  0.2948  1.9673
 4869TIP3    H236099   4.528   1.728  12.912  0.2901 -0.3376  0.5213
 4870TIP3   OH236100   2.412   2.154  14.906  0.4220  0.7800  0.1204
 4870TIP3    H136101   2.417   2.187  14.817 -0.1300  1.7628  0.4300
 4870TIP3    H236102   2.337   2.094  14.906  0.7710  0.3405 -0.2005
 4871TIP3   OH236103   0.299   1.150   2.317  0.3381 -0.1586  0.1884
 4871TIP3    H136104   0.263   1.189   2.397  0.2157  0.2947 -0.0788
 4871TIP3    H236105   0.393   1.142   2.334  0.3992  0.4707  0.1683
 4872TIP3   OH236106   1.935   6.516  17.119  0.5348 -0.0781 -0.9895
 4872TIP3    H136107   1.926   6.607  17.150  0.8930  0.2497 -1.8015
 4872TIP3    H236108   1.940   6.525  17.023  1.3265 -0.8910 -1.0290
 4873TIP3   OH236109   2.379   0.594  14.916 -0.2791 -0.1954 -0.7579
 4873TIP3    H136110   2.471   0.567  14.924 -0.4440 -0.8045 -0.8169
 4873TIP3    H236111   2.374   0.677  14.964  0.3447 -0.0520 -0.9273
 4874TIP3   OH236112   2.570   4.388  14.163  0.0496  1.4015 -0.2031
 4874TIP3    H136113   2.640   4.363  14.103  2.1942  0.8489  2.3096
 4874TIP3    H236114   2.491   4.384  14.111  1.1424 -3.1864 -2.0406
 4875TIP3   OH236115   2.469   3.606  14.873  0.1204 -0.1158  0.0879
 4875TIP3    H136116   2.429   3.533  14.826  0.4318 -0.2195 -0.0176
 4875TIP3    H236117   2.522   3.651  14.808 -0.0290  0.1760  0.1651
 4876TIP3   OH236118   3.212   2.550   5.833 -0.0173 -0.1630  0.2869
 4876TIP3    H136119   3.143   2.525   5.893  0.1317  0.8454  0.9111
 4876TIP3    H236120   3.293   2.535   5.881  0.2879 -2.1727 -0.7507
 4877TIP3   OH236121   5.202   1.501  16.434 -0.0144 -0.1197  0.2747
 4877TIP3    H136122   5.227   1.551  16.512 -0.7468 -0.2744  0.6156
 4877TIP3    H236123   5.215   1.409  16.460 -0.8679 -0.1977  0.4334
 4878TIP3   OH236124   1.001   5.440  11.435 -0.0379  0.8975 -0.9468
 4878TIP3    H136125   0.975   5.517  11.385  0.3285  0.8169 -1.2698
 4878TIP3    H236126   1.088   5.417  11.400  0.0699  0.6346 -0.5141
 4879TIP3   OH236127   6.105   4.122  16.414  0.0278  0.0926  0.1055
 4879TIP3    H136128   6.058   4.039  16.409  0.6101 -0.2318  0.0046
 4879TIP3    H236129   6.094   4.150  16.505 -0.7789  0.2730 -0.0339
 4880TIP3   OH236130   4.402   0.972  13.279 -0.7580 -0.2803  0.0635
 4880TIP3    H136131   4.391   1.033  13.352 -1.7624  0.2135 -0.4897
 4880TIP3    H236132   4.392   1.025  13.200  0.1872 -0.8313 -0.4534
 4881TIP3   OH236133   3.187   3.778  12.876 -0.1065  0.2382  0.5687
 4881TIP3    H136134   3.229   3.836  12.812 -0.2825  0.1547  0.3773
 4881TIP3    H236135   3.176   3.695  12.830 -0.0538  0.1180  0.7728
 4882TIP3   OH236136   0.585   0.496   1.842  0.0075 -0.3650  0.4451
 4882TIP3    H136137   0.570   0.402   1.853 -1.1965 -0.3082 -0.5085
 4882TIP3    H236138   0.528   0.537   1.908 -1.1832 -0.2643 -0.6056
 4883TIP3   OH236139   4.016   4.734  12.957  0.0407  0.1366  0.1860
 4883TIP3    H136140   3.924   4.757  12.960 -0.1652 -0.3115 -1.8579
 4883TIP3    H236141   4.024   4.660  13.018 -0.5783  1.1939  1.6295
 4884TIP3   OH236142   4.798   2.118  15.534  0.2884  0.0666  0.6129
 4884TIP3    H136143   4.892   2.114  15.523  0.3473 -0.2197  1.1724
 4884TIP3    H236144   4.767   2.175  15.463  0.8104 -0.3216  0.0727
 4885TIP3   OH236145   3.359   4.750  17.066 -0.3122  0.4413 -0.1922
 4885TIP3    H136146   3.352   4.674  17.124  2.6192  0.1557 -0.0589
 4885TIP3    H236147   3.335   4.717  16.980  0.2576 -0.4928 -0.0103
 4886TIP3   OH236148   3.315   1.484   3.087  0.9428 -0.3736 -0.1162
 4886TIP3    H136149   3.318   1.578   3.070  1.0574 -0.2919  0.3188
 4886TIP3    H236150   3.222   1.462   3.085  0.8254 -0.0390  0.8246
 4887TIP3   OH236151   1.287   3.572  14.683 -0.4213  0.1751  0.3438
 4887TIP3    H136152   1.222   3.564  14.754  0.9345 -0.6890  1.5561
 4887TIP3    H236153   1.277   3.661  14.651 -2.0831  0.1169  0.5986
 4888TIP3   OH236154   6.661   3.211  11.198  0.3018 -0.5299 -0.0798
 4888TIP3    H136155   6.622   3.283  11.149  0.2348  0.3402  1.2078
 4888TIP3    H236156   6.657   3.136  11.139 -0.0533  0.4116 -1.2670
 4889TIP3   OH236157   4.493   1.345   2.784  0.2641 -0.0790 -0.0723
 4889TIP3    H136158   4.431   1.290   2.736  0.6840 -0.5094 -0.1361
 4889TIP3    H236159   4.454   1.432   2.784 -0.7173 -0.5094  0.5617
 4890TIP3   OH236160   3.354   2.681   3.863 -0.2952  0.1141  0.0526
 4890TIP3    H136161   3.300   2.608   3.892 -3.0184  1.7760 -0.4702
 4890TIP3    H236162   3.347   2.679   3.767  0.6771  0.2979 -0.0291
 4891TIP3   OH236163   0.804   0.600  14.554  0.3480  0.0321 -0.0860
 4891TIP3    H136164   0.843   0.653  14.624  2.2338  0.2529 -1.2431
 4891TIP3    H236165   0.878   0.558  14.511 -0.8504 -0.9199 -1.3139
 4892TIP3   OH236166   1.205   1.544  14.967  0.4922  0.0610  0.2724
 4892TIP3    H136167   1.194   1.635  14.942 -0.0984 -0.2580 -0.6838
 4892TIP3    H236168   1.136   1.529  15.032 -0.2011 -0.0236 -0.4721
 4893TIP3   OH236169   6.047   5.665  13.750 -0.0895 -0.2739 -0.1566
 4893TIP3    H136170   6.064   5.572  13.735  0.5379 -0.1956  0.0026
 4893TIP3    H236171   6.118   5.709  13.703  0.3758  0.0650  0.8278
 4894TIP3   OH236172   0.681   5.963   1.192 -0.3568 -0.0628 -0.2827
 4894TIP3    H136173   0.720   5.956   1.104  0.1469  2.5660 -0.3592
 4894TIP3    H236174   0.628   5.884   1.201  0.4524 -0.9523 -2.5003
 4895TIP3   OH236175   4.204   4.854   3.316  0.7988 -0.1490 -0.0514
 4895TIP3    H136176   4.152   4.893   3.386  1.2589  1.3797 -0.5194
 4895TIP3    H236177   4.192   4.759   3.327  1.0405  0.0220  2.2349
 4896TIP3   OH236178   3.222   0.191  15.869 -0.2285  0.5380  0.1955
 4896TIP3    H136179   3.229   0.100  15.896  1.6067  0.8801  1.0147
 4896TIP3    H236180   3.308   0.213  15.834 -1.3711  1.2561 -2.4261
 4897TIP3   OH236181   2.002   4.209  13.375 -0.1404  0.1654  0.7758
 4897TIP3    H136182   2.092   4.238  13.386  0.1657  0.5482 -1.9975
 4897TIP3    H236183   2.002   4.118  13.404  1.0933  0.2181  0.9812
 4898TIP3   OH236184   1.938   4.204  11.420  0.3695  0.3833 -0.0832
 4898TIP3    H136185   1.923   4.286  11.467 -2.6950 -0.1278  0.0180
 4898TIP3    H236186   1.891   4.214  11.337 -0.9123 -1.5531  0.3381
 4899TIP3   OH236187   0.942   6.419  11.735 -0.5319 -0.6760 -0.0920
 4899TIP3    H136188   0.917   6.370  11.814  0.4236 -1.9835 -0.5740
 4899TIP3    H236189   0.976   6.353  11.675  2.8943  0.8020  0.0267
 4900TIP3   OH236190   2.262   1.049  11.554  0.1995 -0.4514  0.2483
 4900TIP3    H136191   2.169   1.041  11.577 -0.0031 -2.5548 -1.0281
 4900TIP3    H236192   2.306   0.989  11.614  0.0830 -3.1411 -2.1266
 4901TIP3   OH236193   0.847   6.555   3.179 -0.2632 -0.3520  0.5533
 4901TIP3    H136194   0.813   6.466   3.188 -0.4265 -0.3813 -0.2551
 4901TIP3    H236195   0.924   6.546   3.122  0.8481 -0.2195  1.9713
 4902TIP3   OH236196   3.268   6.146  11.503  0.0998  0.8516  0.1123
 4902TIP3    H136197   3.254   6.051  11.501  0.9023  0.7004  0.7556
 4902TIP3    H236198   3.320   6.164  11.425  0.9336  0.5678  0.5850
 4903TIP3   OH236199   4.661   0.876   2.726 -0.1586 -0.2196 -0.7620
 4903TIP3    H136200   4.634   0.841   2.641 -1.8294 -2.4183  0.5595
 4903TIP3    H236201   4.579   0.910   2.764  0.6349  1.0758 -0.1487
 4904TIP3   OH236202   3.918   4.495   5.134 -0.6304  0.5333 -0.3440
 4904TIP3    H136203   3.932   4.581   5.175 -1.2897  0.6566 -0.3783
 4904TIP3    H236204   3.835   4.503   5.089 -0.4125  0.0548 -0.8357
 4905TIP3   OH236205   2.243   2.273   5.453 -0.1597 -0.2053 -0.4636
 4905TIP3    H136206   2.318   2.218   5.429 -0.7991 -0.8440 -1.0037
 4905TIP3    H236207   2.241   2.268   5.549  0.6348  0.0200 -0.4211
 4906TIP3   OH236208   4.391   2.848   5.567 -0.1904  1.1180 -0.1658
 4906TIP3    H136209   4.298   2.844   5.589 -0.0142 -1.1614  0.4388
 4906TIP3    H236210   4.400   2.789   5.492  0.7974  1.1852 -0.1133
 4907TIP3   OH236211   0.223   6.421   3.683 -0.1024  0.2772 -0.3138
 4907TIP3    H136212   0.221   6.467   3.599  0.9944 -0.0596 -0.5402
 4907TIP3    H236213   0.316   6.415   3.705 -0.3030 -0.6670  0.3457
 4908TIP3   OH236214   0.151   5.285   0.031  0.5522  0.6894  0.4290
 4908TIP3    H136215   0.109   5.199   0.039  1.2044  0.3545  0.3129
 4908TIP3    H236216   0.078   5.345   0.018  0.1340  0.0583 -0.2504
 4909TIP3   OH236217   5.923   6.061   1.144  0.4925 -0.1799 -0.0477
 4909TIP3    H136218   5.955   6.143   1.107 -0.7909 -0.3257 -1.5879
 4909TIP3    H236219   5.857   6.089   1.208  0.8434  0.0149  0.2311
 4910TIP3   OH236220   2.310   0.117  15.403  0.1451  0.1863 -0.1365
 4910TIP3    H136221   2.328   0.097  15.495 -1.6619 -0.7019  0.0686
 4910TIP3    H236222   2.276   0.036  15.367 -0.5110  0.9174 -1.2194
 4911TIP3   OH236223   3.647   5.665   0.552  0.5448 -0.0184 -0.0760
 4911TIP3    H136224   3.615   5.612   0.625 -2.0787  3.2012  1.3861
 4911TIP3    H236225   3.664   5.602   0.482 -5.1249 -2.7334  0.4415
 4912TIP3   OH236226   2.482   6.726  16.261 -0.3348 -0.3371 -0.6396
 4912TIP3    H136227   2.554   6.662  16.259 -0.4464 -0.4548 -1.1599
 4912TIP3    H236228   2.519   6.803  16.218  0.3703  0.5867  1.4823
 4913TIP3   OH236229   3.189   1.203  13.461  0.1806 -0.3462  0.1488
 4913TIP3    H136230   3.241   1.154  13.524 -0.7244  0.0958  1.2630
 4913TIP3    H236231   3.144   1.136  13.409  0.3163 -0.7044  0.4920
 4914TIP3   OH236232   6.702   1.147   5.267 -0.4301  0.3441  0.2418
 4914TIP3    H136233   6.751   1.229   5.269  0.0511  0.1902 -1.8747
 4914TIP3    H236234   6.760   1.086   5.221 -1.1422 -0.9273  0.9681
 4915TIP3   OH236235   5.472   6.841   6.614  0.4288 -0.0535 -0.2874
 4915TIP3    H136236   5.505   6.929   6.598 -0.3175 -0.1413 -2.9063
 4915TIP3    H236237   5.378   6.853   6.627  0.1051 -0.5063 -1.9544
 4916TIP3   OH236238   4.947   4.971  15.068 -0.2434 -0.5027 -0.5093
 4916TIP3    H136239   4.872   4.919  15.097 -1.4071  0.9855 -0.7488
 4916TIP3    H236240   4.938   4.976  14.973 -0.8823  1.1570 -0.3960
 4917TIP3   OH236241   6.265   1.150   5.220  0.3608 -0.2737 -0.2811
 4917TIP3    H136242   6.180   1.170   5.180  0.1380  2.1195  1.1595
 4917TIP3    H236243   6.243   1.092   5.294 -0.0529  0.4012  0.1356
 4918TIP3   OH236244   3.125   0.898   0.724  0.3552  0.3810  0.3788
 4918TIP3    H136245   3.061   0.967   0.740  1.1582  1.1346  0.4005
 4918TIP3    H236246   3.155   0.914   0.634  1.3869  0.7720  0.7809
 4919TIP3   OH236247   2.129   4.243  12.715 -0.6122  0.1011 -0.0420
 4919TIP3    H136248   2.186   4.319  12.708  0.8951 -1.1400 -2.5043
 4919TIP3    H236249   2.046   4.270  12.676  0.4442  0.0626 -2.4252
 4920TIP3   OH236250   1.800   6.634   5.754 -0.0586 -0.0612  0.2328
 4920TIP3    H136251   1.728   6.614   5.814  0.3284  1.1308  1.1332
 4920TIP3    H236252   1.829   6.548   5.723 -0.2791 -0.7331  1.7469
 4921TIP3   OH236253   0.052   6.573  13.311 -0.3791  0.4752 -0.3526
 4921TIP3    H136254   0.004   6.640  13.359 -0.4346 -0.1365  0.4697
 4921TIP3    H236255   0.136   6.614  13.289 -0.8009  1.1415 -0.7388
 4922TIP3   OH236256   2.402   3.014   2.419 -0.1806  0.3776  0.4435
 4922TIP3    H136257   2.468   2.958   2.458 -0.0242  0.9281  0.9838
 4922TIP3    H236258   2.438   3.037   2.333 -1.4124 -2.4449 -0.9458
 4923TIP3   OH236259   4.824   1.614   1.669  0.1274 -0.0779 -0.3600
 4923TIP3    H136260   4.828   1.519   1.674  0.8297 -0.2730 -2.9405
 4923TIP3    H236261   4.839   1.634   1.576  0.4608  2.5707  0.1676
 4924TIP3   OH236262   1.208   3.144  11.542 -0.3210  0.4195  0.2695
 4924TIP3    H136263   1.127   3.169  11.498 -2.1354 -0.5269  2.8646
 4924TIP3    H236264   1.211   3.049  11.533  0.0890  0.3760  0.8372
 4925TIP3   OH236265   4.541   6.239   0.191 -0.2127 -0.6594  0.1547
 4925TIP3    H136266   4.507   6.327   0.174  1.6760  0.3700  1.2687
 4925TIP3    H236267   4.560   6.239   0.285  1.5800 -1.5605 -0.1591
 4926TIP3   OH236268   6.274   2.426   1.090 -0.2505 -0.0879 -0.3929
 4926TIP3    H136269   6.213   2.382   1.030  0.8722  0.8563 -2.3327
 4926TIP3    H236270   6.361   2.405   1.055  0.4664  0.3686  1.0358
 4927TIP3   OH236271   5.784   0.915   1.040 -0.0452  0.1315  0.6134
 4927TIP3    H136272   5.858   0.905   1.100  0.7751  0.5639 -0.3003
 4927TIP3    H236273   5.766   1.009   1.039  0.6006  0.2714 -0.5428
 4928TIP3   OH236274   1.754   6.781  13.932  0.0403  0.4159 -0.4224
 4928TIP3    H136275   1.687   6.814  13.872 -0.2469 -0.6602 -0.7112
 4928TIP3    H236276   1.766   6.690  13.907 -0.2835 -0.1524  1.3338
 4929TIP3   OH236277   5.888   1.004  16.353  0.0715  0.3608  0.0860
 4929TIP3    H136278   5.964   1.005  16.411  0.2083  1.2664 -0.0918
 4929TIP3    H236279   5.911   0.939  16.286  0.1755 -0.2324  0.6849
 4930TIP3   OH236280   3.908   6.096   3.089  0.3485 -0.3610 -0.2324
 4930TIP3    H136281   3.836   6.158   3.081  1.7685  1.4747  0.3704
 4930TIP3    H236282   3.936   6.103   3.180  1.5959 -0.6572 -0.5712
 4931TIP3   OH236283   1.380   5.332   5.311  0.0849 -0.3313  0.0588
 4931TIP3    H136284   1.381   5.427   5.297 -0.4541 -0.4031 -0.5424
 4931TIP3    H236285   1.413   5.295   5.229  0.8982 -0.6481  0.5246
 4932TIP3   OH236286   2.623   4.869  13.643 -0.1146  0.1964 -0.1874
 4932TIP3    H136287   2.594   4.956  13.613 -2.3897  0.0617  1.3895
 4932TIP3    H236288   2.709   4.884  13.680 -0.1990  1.6557 -0.5215
 4933TIP3   OH236289   6.010   4.507   6.600  0.5689 -0.6981  0.0621
 4933TIP3    H136290   6.001   4.529   6.507  2.5666 -1.1128 -0.2669
 4933TIP3    H236291   6.070   4.573   6.634  0.3823 -0.9588  0.9203
 4934TIP3   OH236292   0.787   3.506  11.596  0.9904 -0.1244  0.0637
 4934TIP3    H136293   0.775   3.575  11.661 -0.0962  0.7027 -0.9762
 4934TIP3    H236294   0.846   3.543  11.531  1.8581 -0.8527  0.4221
 4935TIP3   OH236295   5.360   6.351   3.721 -0.1478  0.3209  0.1739
 4935TIP3    H136296   5.420   6.340   3.647  1.2830 -0.4937  1.3921
 4935TIP3    H236297   5.328   6.441   3.712  2.8534  1.5790  0.5152
 4936TIP3   OH236298   6.467   5.172  14.168 -0.0790 -0.3464 -0.2079
 4936TIP3    H136299   6.409   5.169  14.244 -1.1043 -2.5820 -0.9731
 4936TIP3    H236300   6.431   5.242  14.113  0.4553  1.0432  1.1459
 4937TIP3   OH236301   5.750   5.072   2.206  0.0720 -0.2638  0.2946
 4937TIP3    H136302   5.665   5.106   2.234  0.2271 -0.9184  1.6242
 4937TIP3    H236303   5.763   4.993   2.259  2.6589  1.2170  2.1131
 4938TIP3   OH236304   3.522   0.797   4.016 -0.2817 -0.6146  0.6572
 4938TIP3    H136305   3.542   0.866   4.079  1.0920  0.9112 -1.2971
 4938TIP3    H236306   3.606   0.775   3.976 -1.0463 -1.6985 -0.4543
 4939TIP3   OH236307   4.520   6.258   3.165 -0.5688 -0.7751  0.2602
 4939TIP3    H136308   4.452   6.271   3.100 -2.6432 -1.8914  2.0823
 4939TIP3    H236309   4.475   6.220   3.240  1.3576  1.8493  2.9827
 4940TIP3   OH236310   0.621   5.252   3.716  0.3523  0.3446  0.0463
 4940TIP3    H136311   0.557   5.256   3.644 -0.5280 -0.4332  0.7718
 4940TIP3    H236312   0.572   5.217   3.790  0.9735  2.0492  1.3426
 4941TIP3   OH236313   6.168   0.640   4.432 -0.4044 -0.5799  0.1322
 4941TIP3    H136314   6.123   0.577   4.375  0.1348  0.5371 -1.6210
 4941TIP3    H236315   6.222   0.586   4.490 -1.6565 -1.8026  0.1957
 4942TIP3   OH236316   3.393   6.535  15.859 -0.5005 -0.0066 -0.2649
 4942TIP3    H136317   3.443   6.530  15.940 -1.6018  1.5601  0.5824
 4942TIP3    H236318   3.435   6.473  15.800  1.2840 -0.0617  0.9929
 4943TIP3   OH236319   3.697   5.430  15.649 -0.4278 -0.3404 -0.5050
 4943TIP3    H136320   3.703   5.515  15.692  0.8352 -2.0923  3.1691
 4943TIP3    H236321   3.731   5.445  15.561  0.8880  2.6962  0.4033
 4944TIP3   OH236322   6.781   0.482  14.116  0.9374 -0.4432  0.2319
 4944TIP3    H136323   6.790   0.429  14.037  2.4675 -0.3471  0.3236
 4944TIP3    H236324   6.814   0.426  14.186  1.5855  0.2371  0.4824
 4945TIP3   OH236325   1.568   0.908   2.307 -0.2041 -0.2336  0.0633
 4945TIP3    H136326   1.658   0.920   2.275 -0.3097 -0.7311 -0.4318
 4945TIP3    H236327   1.540   0.996   2.332  0.5865 -0.1389  0.6729
 4946TIP3   OH236328   6.474   3.398   3.691  0.2084 -0.5074  0.6815
 4946TIP3    H136329   6.518   3.444   3.620  0.1493 -1.2754  0.1283
 4946TIP3    H236330   6.419   3.464   3.733 -1.5892 -0.5002 -1.4617
 4947TIP3   OH236331   4.723   2.378   3.903 -0.1827 -1.0399  0.1841
 4947TIP3    H136332   4.816   2.390   3.881 -0.5318 -0.4848 -1.0631
 4947TIP3    H236333   4.698   2.461   3.944 -1.0045  0.2979 -2.7692
 4948TIP3   OH236334   4.049   3.080  14.620  0.2291 -0.0667 -0.2611
 4948TIP3    H136335   4.053   3.158  14.565  1.5254 -1.2043 -1.8625
 4948TIP3    H236336   4.119   3.091  14.684 -0.9839  1.0455  0.9259
 4949TIP3   OH236337   6.755   2.517   1.847  0.1953 -0.2778 -0.7597
 4949TIP3    H136338   6.743   2.500   1.754  2.3372 -1.6295 -0.8546
 4949TIP3    H236339   6.668   2.543   1.878 -0.2231  1.8453 -3.4226
 4950TIP3   OH236340   1.067   5.126   1.200 -0.3618 -0.6071  0.6231
 4950TIP3    H136341   1.076   5.193   1.132 -1.7650 -0.6589  0.3534
 4950TIP3    H236342   1.022   5.054   1.157  0.8876 -1.6457  0.9890
 4951TIP3   OH236343   4.841   2.353  14.668 -0.0770  0.2111  0.5441
 4951TIP3    H136344   4.842   2.274  14.722 -0.1173 -0.1607  0.0059
 4951TIP3    H236345   4.931   2.385  14.669 -0.2448  0.7173  1.5576
 4952TIP3   OH236346   6.612   0.152  14.265  0.1658  0.0291  0.3926
 4952TIP3    H136347   6.547   0.104  14.213  0.4961  1.1619 -1.1436
 4952TIP3    H236348   6.560   0.206  14.325 -0.2543 -0.5125  0.5188
 4953TIP3   OH236349   0.003   6.058  16.372 -0.9640 -0.3300 -0.3941
 4953TIP3    H136350  -0.077   6.090  16.331 -0.1942  1.5860 -0.4838
 4953TIP3    H236351  -0.017   6.054  16.465 -0.4949  2.5054 -0.0897
 4954TIP3   OH236352   6.469   6.252  10.568 -0.2698 -0.8001 -0.2921
 4954TIP3    H136353   6.509   6.166  10.578 -1.7945 -1.4744  0.1592
 4954TIP3    H236354   6.375   6.235  10.560 -0.5047  0.7406 -1.3449
 4955TIP3   OH236355   6.076   3.971   2.283 -0.3013  0.7482 -0.5335
 4955TIP3    H136356   6.013   3.918   2.331  0.7514  0.0844  0.1591
 4955TIP3    H236357   6.161   3.939   2.311  0.3620  1.1601 -1.9699
 4956TIP3   OH236358   1.229   2.312   3.281  0.4494 -0.4564  0.0852
 4956TIP3    H136359   1.193   2.331   3.368 -1.1463 -1.2992 -0.3557
 4956TIP3    H236360   1.182   2.371   3.222  0.2532 -1.1121 -0.4212
 4957TIP3   OH236361   1.310   1.289  12.689 -0.4801 -0.1651  0.0737
 4957TIP3    H136362   1.262   1.221  12.736  1.5138 -0.5998  1.6420
 4957TIP3    H236363   1.392   1.246  12.664 -0.2242  0.9782 -1.1322
 4958TIP3   OH236364   3.501   3.676  12.918  0.0777 -0.4758  0.0950
 4958TIP3    H136365   3.406   3.677  12.929 -0.1911  0.9593 -1.7813
 4958TIP3    H236366   3.525   3.768  12.908  1.6420 -0.8415  0.2491
 4959TIP3   OH236367   2.067   2.499  14.112 -0.4659  0.1659 -0.1931
 4959TIP3    H136368   2.073   2.497  14.017  2.3305  0.8194 -0.1156
 4959TIP3    H236369   2.092   2.589  14.136  0.3308 -0.3885  1.1904
 4960TIP3   OH236370   2.086   5.520  13.123 -0.0233  0.4595 -0.1785
 4960TIP3    H136371   2.026   5.568  13.180 -1.2217 -0.4581 -0.6285
 4960TIP3    H236372   2.032   5.451  13.084  1.1963 -0.0356 -1.0458
 4961TIP3   OH236373   4.475   1.199  11.765 -0.0026 -0.0092  0.1530
 4961TIP3    H136374   4.558   1.203  11.813  0.3511 -1.9223 -0.1968
 4961TIP3    H236375   4.430   1.280  11.788  0.8825 -0.0670  2.3443
 4962TIP3   OH236376   6.326   1.107  14.629  0.1174 -0.2698 -0.1378
 4962TIP3    H136377   6.315   1.087  14.722  0.0972  1.2998  0.2254
 4962TIP3    H236378   6.236   1.120  14.597  0.1151 -0.9414 -0.4209
 4963TIP3   OH236379   3.869   6.131  16.178 -0.5052  0.2882 -0.5026
 4963TIP3    H136380   3.801   6.159  16.117 -0.5479  2.3434  0.4039
 4963TIP3    H236381   3.838   6.161  16.264  0.9829  0.2089  0.0931
 4964TIP3   OH236382   5.528   5.196  16.251 -0.1833 -0.4770  0.1179
 4964TIP3    H136383   5.571   5.144  16.183 -0.8288  1.8157 -2.2185
 4964TIP3    H236384   5.435   5.177  16.241 -0.2230 -0.6543  0.8285
 4965TIP3   OH236385   6.242   4.969  14.268 -0.3292  0.2600 -0.0427
 4965TIP3    H136386   6.239   4.887  14.218 -2.3910  0.6104 -0.6038
 4965TIP3    H236387   6.183   4.954  14.342 -0.3862  1.1010  0.0850
 4966TIP3   OH236388   2.903   5.944  11.319 -0.1883 -0.1735 -0.1038
 4966TIP3    H136389   2.983   5.922  11.367  0.2427  0.0605 -0.6947
 4966TIP3    H236390   2.863   5.860  11.299 -1.3895 -0.2550  2.2727
 4967TIP3   OH236391   3.875   3.076  10.697  0.4087 -0.3973  0.4172
 4967TIP3    H136392   3.969   3.061  10.689  0.5600  0.0941  1.2407
 4967TIP3    H236393   3.835   2.994  10.666  1.0299  0.0494 -1.7618
 4968TIP3   OH236394   5.533   5.593  11.059 -0.0488 -0.4380  0.4745
 4968TIP3    H136395   5.467   5.636  11.004 -0.6200 -1.1172  0.6198
 4968TIP3    H236396   5.488   5.519  11.099  0.5322 -0.3257  1.3769
 4969TIP3   OH236397   5.303   2.854   4.864 -0.3830  0.0276 -0.3797
 4969TIP3    H136398   5.278   2.841   4.773 -0.1913 -2.3027 -0.1477
 4969TIP3    H236399   5.251   2.791   4.913  0.8145 -0.0000  0.9229
 4970TIP3   OH236400   1.760   3.509  16.867  0.1112 -0.1827 -0.7095
 4970TIP3    H136401   1.668   3.480  16.867 -0.1364  0.3733 -3.5147
 4970TIP3    H236402   1.810   3.429  16.850  0.1045 -0.3110 -0.1658
 4971TIP3   OH236403   4.361   0.599  12.291  0.2965  0.0125  0.3675
 4971TIP3    H136404   4.273   0.590  12.254  0.5382  0.3402 -0.3062
 4971TIP3    H236405   4.346   0.617  12.384 -0.3396 -0.1843  0.3080
 4972TIP3   OH236406   5.956   6.140   5.760 -0.3441  0.1584 -0.0633
 4972TIP3    H136407   5.912   6.171   5.839  1.5560  1.0565  0.6956
 4972TIP3    H236408   5.943   6.211   5.696 -1.1516 -0.1994 -0.3188
 4973TIP3   OH236409   6.777   6.808   4.495  0.3737 -0.1454  0.1147
 4973TIP3    H136410   6.684   6.823   4.510 -0.3049 -3.0604 -0.3945
 4973TIP3    H236411   6.807   6.763   4.574  0.9955 -0.4032 -0.2572
 4974TIP3   OH236412   0.795   5.210  11.442  0.6430  0.0777  0.0819
 4974TIP3    H136413   0.855   5.284  11.438  0.7051 -0.0146 -1.7488
 4974TIP3    H236414   0.761   5.210  11.531 -0.1373  2.9361 -0.1318
 4975TIP3   OH236415   6.752   3.724  14.220  0.1757 -0.1349 -0.4112
 4975TIP3    H136416   6.799   3.807  14.227 -2.6997  1.5597  0.4566
 4975TIP3    H236417   6.781   3.674  14.297 -0.2600  1.3354  0.7599
 4976TIP3   OH236418   0.401   6.841  13.635 -0.2036 -0.3604  0.1803
 4976TIP3    H136419   0.431   6.795  13.713  0.9154  1.5770  0.9736
 4976TIP3    H236420   0.308   6.859  13.653 -0.7706 -2.5154 -0.3147
 4977TIP3   OH236421   6.570   5.483   3.553 -0.2356 -0.0866 -0.3331
 4977TIP3    H136422   6.624   5.535   3.613 -0.6375  1.0995 -0.9742
 4977TIP3    H236423   6.632   5.423   3.511  0.4608  0.7236 -0.4836
 4978TIP3   OH236424   6.805   4.030  11.709  0.0554  0.1879 -0.0337
 4978TIP3    H136425   6.767   3.943  11.722 -2.5950  1.3070  0.3426
 4978TIP3    H236426   6.864   4.042  11.783  2.0029 -1.9965 -1.1360
 4979TIP3   OH236427   5.465   6.231   5.524  0.7676  0.0053  0.1365
 4979TIP3    H136428   5.456   6.138   5.504  1.0577 -0.6136  2.5271
 4979TIP3    H236429   5.380   6.268   5.501  0.4305 -0.9679 -0.2671
 4980TIP3   OH236430   6.086   6.629   1.435  0.2726 -0.7738 -0.3897
 4980TIP3    H136431   6.181   6.616   1.439  0.2316 -1.4514 -1.2610
 4980TIP3    H236432   6.076   6.718   1.402  0.5752  0.4588  2.5867
 4981TIP3   OH236433   5.246   1.812   5.452 -0.1999  0.1786  0.2504
 4981TIP3    H136434   5.305   1.779   5.384 -0.3646  0.4360 -0.0242
 4981TIP3    H236435   5.170   1.754   5.447 -0.0941  0.0281  0.4020
 4982TIP3   OH236436   1.006   4.526  13.852  0.1805  0.1710 -0.4119
 4982TIP3    H136437   1.024   4.519  13.946  0.0681  1.1487 -0.3150
 4982TIP3    H236438   0.927   4.472  13.840 -0.4697  0.9461  0.2604
 4983TIP3   OH236439   6.024   5.408   4.412  0.2746  0.1449  0.5287
 4983TIP3    H136440   5.935   5.393   4.382  0.6988  1.1217 -1.3515
 4983TIP3    H236441   6.079   5.368   4.345  1.2774  2.8719 -0.3843
 4984TIP3   OH236442   4.508   0.316   2.333 -0.2562  0.2297 -0.1830
 4984TIP3    H136443   4.432   0.261   2.315 -0.3712  0.9423 -2.1527
 4984TIP3    H236444   4.574   0.287   2.270  0.1593  1.3629 -0.3020
 4985TIP3   OH236445   4.900   4.450  13.782  0.5356  0.0587  0.6270
 4985TIP3    H136446   4.853   4.528  13.752  0.7057 -0.4057 -0.9280
 4985TIP3    H236447   4.873   4.439  13.873 -1.5333  0.4221  0.1034
 4986TIP3   OH236448   6.804   0.590  15.151  0.5913  0.0713 -0.3963
 4986TIP3    H136449   6.854   0.650  15.206  0.5074  1.0170 -1.3244
 4986TIP3    H236450   6.855   0.509  15.150  0.8795  0.2253  0.5922
 4987TIP3   OH236451   1.195   3.863  10.927  0.3222 -0.2279  0.3985
 4987TIP3    H136452   1.231   3.947  10.897 -0.7828 -0.7459 -2.7223
 4987TIP3    H236453   1.259   3.798  10.899  0.1116 -0.6070  0.7945
 4988TIP3   OH236454   1.576   0.420   1.595  0.1675  0.3669 -0.0836
 4988TIP3    H136455   1.668   0.435   1.572  0.0823 -1.6864 -2.0740
 4988TIP3    H236456   1.527   0.486   1.546  0.3951 -0.5230 -1.5553
 4989TIP3   OH236457   3.634   1.012   4.168  0.0860 -0.3894 -0.0732
 4989TIP3    H136458   3.714   1.063   4.183 -0.2611  0.8617 -2.0758
 4989TIP3    H236459   3.586   1.016   4.251  1.7610 -0.6008  0.9444
 4990TIP3   OH236460   0.010   0.671   5.324  0.3590 -0.1247  0.1961
 4990TIP3    H136461  -0.081   0.701   5.331  0.2872 -0.2175 -0.3316
 4990TIP3    H236462   0.060   0.752   5.315  0.1861 -0.1362 -0.9939
 4991TIP3   OH236463   2.822   0.234  12.627 -0.2645  0.7017 -0.2104
 4991TIP3    H136464   2.827   0.328  12.611 -0.2675  0.6458 -0.5499
 4991TIP3    H236465   2.772   0.200  12.553 -1.7341  0.6569  0.7534
 4992TIP3   OH236466   0.653   4.125  13.209  0.2103 -0.0346 -0.2023
 4992TIP3    H136467   0.624   4.150  13.121  1.4458 -0.5447 -0.7670
 4992TIP3    H236468   0.709   4.197  13.237 -0.4855  0.3131  0.3490
 4993TIP3   OH236469   5.241   5.094   2.403  0.5814  0.0436 -0.0882
 4993TIP3    H136470   5.162   5.071   2.451  1.1720 -1.2143  0.3359
 4993TIP3    H236471   5.211   5.110   2.314  0.0163 -2.2854 -0.4023
 4994TIP3   OH236472   6.233   0.837   2.903  0.1840  0.3092 -0.3181
 4994TIP3    H136473   6.226   0.930   2.882  1.0192  0.5490  0.3831
 4994TIP3    H236474   6.253   0.795   2.820  0.2741  0.8197 -0.5621
 4995TIP3   OH236475   0.300   4.471   6.141 -0.1634 -0.6704 -1.2297
 4995TIP3    H136476   0.238   4.535   6.107 -1.2379 -0.8074  0.3550
 4995TIP3    H236477   0.381   4.521   6.154 -0.0163 -0.4078 -2.9803
 4996TIP3   OH236478   3.180   5.743   2.944  0.0543 -0.0233 -0.0231
 4996TIP3    H136479   3.104   5.771   2.994 -1.1380 -0.4658 -1.5363
 4996TIP3    H236480   3.149   5.668   2.893  1.4485 -0.0962 -0.8134
 4997TIP3   OH236481   5.820   0.817   3.195 -0.2861  1.3225  0.1866
 4997TIP3    H136482   5.910   0.792   3.176 -0.1291 -0.3647  2.7051
 4997TIP3    H236483   5.820   0.913   3.191  1.6534  1.3556  0.2531
 4998TIP3   OH236484   5.764   1.923  16.556  0.6017  1.0344  0.5834
 4998TIP3    H136485   5.806   1.864  16.618  0.6731 -0.3636 -0.7257
 4998TIP3    H236486   5.831   1.940  16.490 -0.4108 -0.1877 -0.8447
 4999TIP3   OH236487   1.323   1.254  13.646 -0.1099 -0.3344 -0.2554
 4999TIP3    H136488   1.275   1.327  13.684 -0.7599 -0.4550 -0.8219
 4999TIP3    H236489   1.336   1.278  13.554  0.9965 -0.2695 -0.1047
 5000TIP3   OH236490   6.168   6.757  12.183  0.0319  0.1384  0.1776
 5000TIP3    H136491   6.081   6.751  12.222 -0.5355  1.4626 -0.8185
 5000TIP3    H236492   6.182   6.851  12.170  1.7823 -0.0077  0.6744
 5001TIP3   OH236493   1.601   3.103  12.953  0.3523 -0.0248 -0.2692
 5001TIP3    H136494   1.606   3.042  12.879  1.3128 -0.1182 -0.1463
 5001TIP3    H236495   1.602   3.048  13.031  1.7259  0.1240 -0.1432
 5002TIP3   OH236496   3.742   4.241  13.335  0.2880 -0.2749  0.2811
 5002TIP3    H136497   3.750   4.201  13.421 -0.1382 -0.0905  0.4097
 5002TIP3    H236498   3.661   4.205  13.299 -0.6275  1.1765  0.7887
 5003TIP3   OH236499   0.698   5.159  11.190  0.2000  0.1925 -0.6799
 5003TIP3    H136500   0.744   5.136  11.271 -0.1927 -2.6537 -1.1478
 5003TIP3    H236501   0.768   5.170  11.125  0.4262  0.6290 -0.3660
 5004TIP3   OH236502   3.807   4.563  15.736 -0.2681 -0.1501 -0.1674
 5004TIP3    H136503   3.822   4.646  15.692 -1.9279  0.6149  0.6357
 5004TIP3    H236504   3.805   4.498  15.666 -2.3038  0.9641 -1.2152
 5005TIP3   OH236505   0.274   0.661   2.602  0.3231  0.0351  0.5235
 5005TIP3    H136506   0.184   0.666   2.571 -1.0278  0.2400  4.0379
 5005TIP3    H236507   0.303   0.753   2.606  1.0902 -0.0826 -1.4815
 5006TIP3   OH236508   5.561   1.349   4.744  0.2855  0.0482 -0.0143
 5006TIP3    H136509   5.487   1.396   4.705 -1.6573 -1.6830  1.3966
 5006TIP3    H236510   5.536   1.257   4.740  2.7165 -0.6772 -0.1053
 5007TIP3   OH236511   0.825   6.596   4.624 -0.7910 -0.0165  0.8766
 5007TIP3    H136512   0.912   6.631   4.644 -0.5907 -0.3768  0.6407
 5007TIP3    H236513   0.825   6.508   4.662 -0.7189 -0.3776  0.0583
 5008TIP3   OH236514   5.125   1.160   5.561 -0.6895  0.9071  0.6544
 5008TIP3    H136515   5.148   1.247   5.527  2.3920 -0.3641 -0.9066
 5008TIP3    H236516   5.183   1.148   5.636 -1.2888  0.3045  1.0273
 5009TIP3   OH236517   2.272   3.547   2.845  0.0503 -0.5241  0.0433
 5009TIP3    H136518   2.306   3.580   2.762 -0.7906  0.4199  0.0600
 5009TIP3    H236519   2.285   3.452   2.840  1.4226 -0.3211 -0.5038
 5010TIP3   OH236520   5.426   1.713  13.360  0.2198  0.3753  0.1852
 5010TIP3    H136521   5.422   1.701  13.455 -3.4955  1.0256  0.2307
 5010TIP3    H236522   5.453   1.627  13.326 -0.3615 -0.4371  1.7169
 5011TIP3   OH236523   4.080   2.684   0.413  0.1698  0.5530  0.2234
 5011TIP3    H136524   4.070   2.768   0.369  1.1546  0.9549  0.7371
 5011TIP3    H236525   4.141   2.635   0.358 -0.7999 -0.0396 -0.3517
 5012TIP3   OH236526   0.853   3.296   2.515 -0.0679 -0.2645  0.1416
 5012TIP3    H136527   0.760   3.282   2.498 -0.0198  0.0330 -0.3951
 5012TIP3    H236528   0.874   3.377   2.468  0.0952  0.5595  1.5857
 5013TIP3   OH236529   0.381   2.906  14.301 -0.3657 -0.0382  0.3638
 5013TIP3    H136530   0.451   2.967  14.326  0.2217 -0.6129  0.1627
 5013TIP3    H236531   0.347   2.941  14.218  1.2120 -0.9397 -0.7266
 5014TIP3   OH236532   2.734   3.304  16.725 -0.3187  0.2992 -0.4942
 5014TIP3    H136533   2.762   3.378  16.671  1.8389 -0.2576 -0.2159
 5014TIP3    H236534   2.803   3.238  16.713 -1.6030 -1.2305  0.1656
 5015TIP3   OH236535   5.848   4.525   3.018 -0.0465  0.3291 -0.1825
 5015TIP3    H136536   5.883   4.599   3.066  2.2500 -0.9090  0.2400
 5015TIP3    H236537   5.887   4.448   3.060 -2.6406 -1.1968 -0.3194
 5016TIP3   OH236538   0.935   1.313  12.896  0.8618 -0.5702  0.5736
 5016TIP3    H136539   0.881   1.318  12.975  0.3885 -1.4675  0.3265
 5016TIP3    H236540   0.872   1.312  12.824  1.2319 -0.9526  0.2486
 5017TIP3   OH236541   4.438   4.843   0.202 -0.1708 -0.1314  0.3400
 5017TIP3    H136542   4.457   4.771   0.262  0.8780  0.2969  0.5447
 5017TIP3    H236543   4.383   4.903   0.252  1.5700  0.7462  1.2808
 5018TIP3   OH236544   5.048   6.303  10.799  0.2359 -0.1814  0.3695
 5018TIP3    H136545   4.996   6.225  10.781  1.4989 -0.8222 -0.6560
 5018TIP3    H236546   5.139   6.276  10.786  0.7344  1.3706  0.3302
 5019TIP3   OH236547   1.153   5.186  16.446  0.5257 -0.1868  0.0206
 5019TIP3    H136548   1.142   5.280  16.458  1.4383 -0.0912  0.2092
 5019TIP3    H236549   1.208   5.178  16.368  0.5434 -0.5616  0.0674
 5020TIP3   OH236550   6.830   2.818   3.153 -0.0442 -0.1219  0.6759
 5020TIP3    H136551   6.914   2.864   3.147  1.1362 -2.2942 -1.2797
 5020TIP3    H236552   6.854   2.727   3.173 -2.0499 -0.5183  1.4833
 5021TIP3   OH236553   5.415   5.650  15.561  0.1345  0.8590 -0.4875
 5021TIP3    H136554   5.478   5.720  15.575  0.7368  0.3320 -0.5061
 5021TIP3    H236555   5.399   5.651  15.466 -0.8770  1.8221 -0.3214
 5022TIP3   OH236556   5.652   5.495   0.777 -0.1009 -0.5311  0.5061
 5022TIP3    H136557   5.599   5.416   0.789 -0.5284 -0.5157 -1.0523
 5022TIP3    H236558   5.678   5.521   0.866 -0.2715 -2.1952  1.0672
 5023TIP3   OH236559   3.141   0.709  10.981  0.4758  0.2634 -0.1145
 5023TIP3    H136560   3.076   0.640  10.993  0.0473  0.6944  0.0793
 5023TIP3    H236561   3.097   0.789  11.010  0.2862  0.9438 -2.1045
 5024TIP3   OH236562   6.381   4.877   1.703  0.7752 -0.0462 -0.3575
 5024TIP3    H136563   6.306   4.933   1.683 -0.1497 -1.5546 -1.3185
 5024TIP3    H236564   6.443   4.935   1.747  0.3604  2.0256 -2.2891
 5025TIP3   OH236565   3.654   6.213   3.101  0.0695  0.3282 -0.9968
 5025TIP3    H136566   3.610   6.297   3.107  1.0902  0.7934  3.1693
 5025TIP3    H236567   3.591   6.150   3.137  0.4076 -0.1304 -1.1940
 5026TIP3   OH236568   6.115   4.124   3.232 -0.1890  0.2694 -0.6010
 5026TIP3    H136569   6.120   4.060   3.303  0.2129  2.9183  1.9449
 5026TIP3    H236570   6.179   4.092   3.168  1.0855 -1.1430  1.2207
 5027TIP3   OH236571   5.610   4.296   2.141  0.0452 -0.4157  0.0399
 5027TIP3    H136572   5.567   4.287   2.056  0.8830 -0.0056 -0.4277
 5027TIP3    H236573   5.544   4.337   2.197 -0.1806  0.1896 -0.6662
 5028TIP3   OH236574   0.198   0.823   3.593 -0.4190 -0.0529 -0.8062
 5028TIP3    H136575   0.248   0.743   3.610 -1.5694 -0.7621 -0.7036
 5028TIP3    H236576   0.244   0.865   3.520  0.2724 -0.7299 -0.7723
 5029TIP3   OH236577   4.461   2.350  14.865  0.0412  0.0278  0.0856
 5029TIP3    H136578   4.475   2.256  14.874 -0.8640  0.0258  1.9597
 5029TIP3    H236579   4.420   2.376  14.947  3.0612  2.5974  1.0123
 5030TIP3   OH236580   3.216   1.823   4.817 -0.6884 -0.0042 -0.3085
 5030TIP3    H136581   3.200   1.900   4.763  0.8952  0.9426  0.4852
 5030TIP3    H236582   3.222   1.857   4.907 -0.6163 -1.1389  0.1363
 5031TIP3   OH236583   6.100   2.878  10.813 -0.3328 -0.2599  0.2446
 5031TIP3    H136584   6.101   2.855  10.720 -0.3989  1.1979 -0.1398
 5031TIP3    H236585   6.012   2.856  10.842 -0.6288  0.1806 -0.2895
 5032TIP3   OH236586   2.674   6.398  10.372 -0.5520 -0.5524 -0.1785
 5032TIP3    H136587   2.737   6.468  10.353 -0.5767 -0.2332  0.8372
 5032TIP3    H236588   2.720   6.341  10.433 -1.4688  0.0599  1.1245
 5033TIP3   OH236589   6.365   6.368   4.600  0.1342 -0.1097 -0.1836
 5033TIP3    H136590   6.439   6.424   4.623  2.1654 -1.5877 -2.6281
 5033TIP3    H236591   6.322   6.415   4.528 -1.4052  0.7432  1.2255
 5034TIP3   OH236592   3.441   1.916   5.257  1.1126 -0.9340 -0.4881
 5034TIP3    H136593   3.441   1.895   5.350  1.8066  1.9716  0.2666
 5034TIP3    H236594   3.525   1.959   5.242  0.1827  0.4597 -1.9868
 5035TIP3   OH236595   1.582   1.942  14.209 -0.3830  0.6422  0.3939
 5035TIP3    H136596   1.614   1.938  14.119 -2.4570  1.0407 -0.4178
 5035TIP3    H236597   1.534   2.025  14.214 -2.0316 -0.3003  1.2096
 5036TIP3   OH236598   5.864   5.699  16.421  0.1974  0.0130 -0.3596
 5036TIP3    H136599   5.869   5.760  16.494  0.2569 -2.1689  1.6040
 5036TIP3    H236600   5.954   5.668  16.409  0.1738  0.3012 -1.3188
 5037TIP3   OH236601   6.572   5.703  12.492  0.3374  0.2367  0.9155
 5037TIP3    H136602   6.655   5.656  12.503  0.6317  0.6027  0.3098
 5037TIP3    H236603   6.512   5.638  12.454  1.1491  0.7068 -1.2885
 5038TIP3   OH236604   3.646   4.449   3.649 -0.3016 -0.4386 -0.1478
 5038TIP3    H136605   3.688   4.363   3.657 -0.9395 -0.7536 -0.0372
 5038TIP3    H236606   3.698   4.496   3.585 -0.0892 -1.0062 -0.3985
 5039TIP3   OH236607   6.099   6.073  11.030  0.4396  0.3096 -0.0475
 5039TIP3    H136608   6.050   5.996  11.060  0.4570  0.6153  0.7807
 5039TIP3    H236609   6.133   6.113  11.110 -1.0108  2.1643 -0.3115
 5040TIP3   OH236610   4.910   0.951   6.047  0.6225 -0.4739  0.0576
 5040TIP3    H136611   4.952   0.973   5.964 -0.6259 -1.4402 -0.8741
 5040TIP3    H236612   4.902   1.034   6.093  2.6345 -0.1299 -0.1367
 5041TIP3   OH236613   4.685   2.130  16.460  0.0426  0.6670 -0.2446
 5041TIP3    H136614   4.758   2.099  16.406 -0.0476 -0.0218  0.0083
 5041TIP3    H236615   4.703   2.094  16.547 -1.2886 -0.6858 -0.4856
 5042TIP3   OH236616   4.510   3.366   4.500  0.6514 -0.3853  0.3259
 5042TIP3    H136617   4.486   3.454   4.471  0.6744 -0.1723  0.9387
 5042TIP3    H236618   4.427   3.317   4.495  0.3624  0.0004  1.1642
 5043TIP3   OH236619   1.741   3.490  14.520 -0.1422  0.3415  0.3147
 5043TIP3    H136620   1.758   3.397  14.504  1.4611  0.4779  1.0524
 5043TIP3    H236621   1.828   3.530  14.526 -0.7935  1.7381  0.9667
 5044TIP3   OH236622   2.270   2.601  16.478 -0.1735  0.3388  0.7791
 5044TIP3    H136623   2.304   2.676  16.526 -1.4955  1.9851 -0.7306
 5044TIP3    H236624   2.317   2.602  16.394  1.6716 -2.1321  1.6614
 5045TIP3   OH236625   5.625   2.140  12.569 -0.3806 -0.3094 -0.6623
 5045TIP3    H136626   5.549   2.150  12.512 -0.8099 -0.4877 -0.1356
 5045TIP3    H236627   5.608   2.199  12.642  0.1615 -0.0877 -0.7098
 5046TIP3   OH236628   1.087   5.784  11.389 -0.0932  0.1126  0.3745
 5046TIP3    H136629   0.993   5.796  11.396 -0.0755  0.1688  0.5083
 5046TIP3    H236630   1.115   5.754  11.476  0.2242  1.5002  0.7735
 5047TIP3   OH236631   3.504   5.548  14.572  0.0372 -0.3320 -0.1118
 5047TIP3    H136632   3.415   5.530  14.542 -0.3218 -0.8772  1.1994
 5047TIP3    H236633   3.493   5.612  14.643  0.7430  0.0398 -0.3291
 5048TIP3   OH236634   1.525   4.578  12.006  0.3363 -0.1964  0.1251
 5048TIP3    H136635   1.468   4.554  11.932 -1.7100  0.6048  1.3403
 5048TIP3    H236636   1.568   4.659  11.978  0.3076 -0.4076 -0.5490
 5049TIP3   OH236637   4.670   0.917  13.232 -0.1403  0.7827  0.5304
 5049TIP3    H136638   4.580   0.884  13.229 -0.7196  2.3457 -0.6515
 5049TIP3    H236639   4.689   0.926  13.326 -1.0086 -0.0942  0.8068
 5050TIP3   OH236640   2.204   4.546   0.038 -0.0939  0.0201  0.2133
 5050TIP3    H136641   2.213   4.460  -0.004 -1.6541  0.3762 -0.9347
 5050TIP3    H236642   2.210   4.527   0.132 -0.4989 -1.3772 -0.0173
 5051TIP3   OH236643   6.588   0.620   5.078  0.5794  0.0459  0.1577
 5051TIP3    H136644   6.511   0.633   5.133  0.3982  0.2919 -0.1443
 5051TIP3    H236645   6.662   0.646   5.133  0.2665  1.9382 -0.2510
 5052TIP3   OH236646   4.281   6.778  12.891 -0.0832 -0.2622  0.7454
 5052TIP3    H136647   4.366   6.734  12.887 -0.1564 -0.3350 -1.5898
 5052TIP3    H236648   4.224   6.724  12.838 -0.8832  1.1947  0.0697
 5053TIP3   OH236649   5.800   4.400  16.260  0.9681 -0.0234 -0.3389
 5053TIP3    H136650   5.891   4.385  16.236  1.0107 -2.7724  1.0600
 5053TIP3    H236651   5.804   4.453  16.339  1.2317  1.0941 -1.0729
 5054TIP3   OH236652   6.602   0.008  16.805  0.2086 -0.5628 -0.0985
 5054TIP3    H136653   6.554   0.090  16.808 -0.6579 -1.0727  0.6394
 5054TIP3    H236654   6.662   0.017  16.731  0.0556  0.6811 -0.0873
 5055TIP3   OH236655   1.393   1.193  15.586 -0.3534 -0.2191  0.1528
 5055TIP3    H136656   1.321   1.158  15.533  0.1271  1.0815 -1.4540
 5055TIP3    H236657   1.449   1.117  15.604 -1.5278 -1.0414  0.4879
 5056TIP3   OH236658   3.226   3.024  14.661 -0.4750  0.1165 -0.1422
 5056TIP3    H136659   3.280   2.989  14.733  0.7142  0.3686 -0.8816
 5056TIP3    H236660   3.196   3.109  14.694 -0.7106 -0.1711  0.4087
 5057TIP3   OH236661   2.374   6.484   3.772 -0.3099  0.4577 -0.0750
 5057TIP3    H136662   2.355   6.420   3.841 -0.0668  1.7565  1.2319
 5057TIP3    H236663   2.457   6.454   3.735 -0.1399  0.0703  0.5958
 5058TIP3   OH236664   4.465   6.318   4.583 -0.2574  0.7901  0.0060
 5058TIP3    H136665   4.521   6.293   4.656  0.2504  0.3749 -0.5196
 5058TIP3    H236666   4.467   6.242   4.524 -2.1525  0.3573  0.4261
 5059TIP3   OH236667   3.704   4.498   5.855 -0.3489 -0.1201 -0.4382
 5059TIP3    H136668   3.666   4.581   5.827 -1.4880 -0.9474 -1.4826
 5059TIP3    H236669   3.752   4.467   5.778 -0.7373 -0.8601 -0.3967
 5060TIP3   OH236670   0.470   3.198   3.390  0.0315  0.2482  0.5887
 5060TIP3    H136671   0.465   3.259   3.464  0.8627 -0.4497  1.2413
 5060TIP3    H236672   0.562   3.172   3.387 -0.2687 -0.7961  0.1684
 5061TIP3   OH236673   2.337   4.955   5.559  0.0999  0.0572 -0.0622
 5061TIP3    H136674   2.393   4.968   5.635 -0.9172 -0.2159  0.7552
 5061TIP3    H236675   2.261   5.012   5.575 -1.6586 -2.3746  0.7348
 5062TIP3   OH236676   6.162   1.040  13.669 -0.2188  0.3192  0.2678
 5062TIP3    H136677   6.209   1.086  13.737  0.5948 -0.7780  0.4796
 5062TIP3    H236678   6.116   0.969  13.714 -0.7052  0.3525 -0.1577
 5063TIP3   OH236679   2.011   4.275  14.834 -0.3784 -0.0769  0.0927
 5063TIP3    H136680   2.103   4.290  14.856 -0.3279  0.4204 -0.4367
 5063TIP3    H236681   2.013   4.201  14.774 -0.4054 -0.6037  0.7239
 5064TIP3   OH236682   1.324   3.156   4.574  0.6391  0.0247  0.0398
 5064TIP3    H136683   1.279   3.202   4.503 -0.9866 -0.3055  0.8195
 5064TIP3    H236684   1.407   3.128   4.535  0.2418  0.7639 -1.4107
 5065TIP3   OH236685   0.787   0.740   2.218  0.5402  0.8708  0.2164
 5065TIP3    H136686   0.736   0.664   2.246 -2.0440  2.2089 -0.5447
 5065TIP3    H236687   0.797   0.793   2.297 -1.0093  1.4988  0.0353
 5066TIP3   OH236688   4.705   3.015   2.780  0.5612  0.6641  0.4361
 5066TIP3    H136689   4.643   3.008   2.708 -0.0594 -2.4522  1.1412
 5066TIP3    H236690   4.661   3.070   2.845  0.7782  2.7865 -1.1060
 5067TIP3   OH236691   0.972   1.848   3.364 -0.1108 -0.1236  0.0373
 5067TIP3    H136692   1.002   1.932   3.328  0.9613 -0.3133  0.4494
 5067TIP3    H236693   1.013   1.782   3.307 -2.1683 -0.3877 -1.2369
 5068TIP3   OH236694   6.259   1.989   1.898  0.4723  0.6092 -0.3658
 5068TIP3    H136695   6.186   2.049   1.911  0.1104 -0.0799  1.0376
 5068TIP3    H236696   6.261   1.937   1.979 -0.0246 -2.0974 -1.9700
 5069TIP3   OH236697   3.480   1.767  11.339 -0.1800  0.1091 -0.1530
 5069TIP3    H136698   3.423   1.809  11.274 -1.4452  0.4353  1.1169
 5069TIP3    H236699   3.420   1.735  11.407  0.9951 -1.4362  0.2019
 5070TIP3   OH236700   0.870   3.026  11.792  0.5226 -0.4832  0.1391
 5070TIP3    H136701   0.876   3.121  11.783 -2.1086 -0.1565  1.0634
 5070TIP3    H236702   0.956   3.000  11.825  1.4388  1.4936 -0.5389
 5071TIP3   OH236703   6.159   6.327   0.242  0.1868  0.4176 -0.0549
 5071TIP3    H136704   6.066   6.329   0.266 -0.1788 -2.1036 -0.9188
 5071TIP3    H236705   6.191   6.244   0.278  2.1511  1.2643  0.2760
 5072TIP3   OH236706   5.581   3.211   2.064  0.0200  0.4292  0.1130
 5072TIP3    H136707   5.652   3.205   2.000  0.1813 -0.6120  0.3691
 5072TIP3    H236708   5.578   3.303   2.089  1.0992  0.5312 -0.1085
 5073TIP3   OH236709   0.685   6.065   4.808 -0.2485  0.0164 -0.1677
 5073TIP3    H136710   0.648   6.153   4.819 -0.0571  0.1220 -0.3747
 5073TIP3    H236711   0.738   6.051   4.886 -2.7566 -1.1627  1.4828
 5074TIP3   OH236712   3.346   3.518   4.970  0.5447  0.5224  0.1426
 5074TIP3    H136713   3.257   3.501   4.939  0.0036 -0.0263  1.8775
 5074TIP3    H236714   3.400   3.515   4.891 -0.8886  0.2906 -0.8657
 5075TIP3   OH236715   0.360   6.013   6.334 -0.2881 -0.2005  0.0401
 5075TIP3    H136716   0.415   5.941   6.364 -0.5721 -0.6509 -0.4834
 5075TIP3    H236717   0.353   6.072   6.409 -1.1021 -1.3565  0.9071
 5076TIP3   OH236718   5.839   0.966   2.637 -0.1433  1.0984  0.3786
 5076TIP3    H136719   5.777   0.982   2.708  1.2089  2.7057  1.2750
 5076TIP3    H236720   5.826   1.039   2.576  0.4235  1.1038  0.2610
 5077TIP3   OH236721   5.319   3.343   4.855 -0.0798 -0.1452  0.3603
 5077TIP3    H136722   5.251   3.382   4.799 -0.3916 -0.2274  0.6733
 5077TIP3    H236723   5.299   3.377   4.943 -0.3192 -0.9631  0.6237
 5078TIP3   OH236724   5.832   5.685   1.531  0.0765 -0.6426 -0.1675
 5078TIP3    H136725   5.749   5.642   1.510 -0.0385 -0.4557 -0.0980
 5078TIP3    H236726   5.838   5.756   1.468  0.3919 -0.9168 -0.4533
 5079TIP3   OH236727   0.244   3.945  12.364 -0.0602  0.1708 -0.2451
 5079TIP3    H136728   0.288   3.870  12.405 -0.7480  0.7228  1.6085
 5079TIP3    H236729   0.315   4.007  12.346  0.2408  0.0157  0.3557
 5080TIP3   OH236730   3.972   3.961  14.596  0.4860 -0.0615 -0.3451
 5080TIP3    H136731   4.066   3.964  14.580  0.6890 -1.3781  0.4624
 5080TIP3    H236732   3.932   3.963  14.509  1.1835  1.8134 -0.6681
 5081TIP3   OH236733   6.278   0.606  14.281  0.2844  0.0534  0.0580
 5081TIP3    H136734   6.295   0.695  14.252 -0.1438 -0.0922 -0.6973
 5081TIP3    H236735   6.273   0.611  14.376  2.2262  0.4758  0.1724
 5082TIP3   OH236736   0.697   3.256  14.841  0.0064 -0.3581 -0.8090
 5082TIP3    H136737   0.775   3.276  14.892 -0.7586 -1.6375  0.9557
 5082TIP3    H236738   0.725   3.266  14.750  2.2465 -0.8479 -0.2412
 5083TIP3   OH236739   2.570   0.218   0.924  0.1863 -0.2800  0.5871
 5083TIP3    H136740   2.475   0.231   0.923  0.0216 -0.6967 -2.8343
 5083TIP3    H236741   2.607   0.305   0.915  0.0269 -0.2767 -0.0679
 5084TIP3   OH236742   1.807   2.561  13.305 -0.2435 -0.1724  0.3858
 5084TIP3    H136743   1.753   2.530  13.231  0.4301  0.1513 -0.2453
 5084TIP3    H236744   1.797   2.656  13.304  0.5306 -0.0868  0.1073
 5085TIP3   OH236745   6.070   5.132  11.948 -0.1215 -0.5591  0.2389
 5085TIP3    H136746   5.985   5.175  11.934 -0.0540 -0.1552  0.9558
 5085TIP3    H236747   6.131   5.205  11.961  0.3841 -0.8419 -0.4916
 5086TIP3   OH236748   1.031   0.079   5.137 -0.2416  0.2819  0.1341
 5086TIP3    H136749   1.045   0.120   5.052 -1.7216 -0.2531 -0.3823
 5086TIP3    H236750   1.090   0.004   5.137 -0.3528  0.1913 -0.4811
 5087TIP3   OH236751   0.504   5.569   4.754 -0.0907 -0.4651  0.4231
 5087TIP3    H136752   0.582   5.541   4.706 -0.8946 -2.2004  0.0502
 5087TIP3    H236753   0.518   5.537   4.843  0.5870  1.1930  0.9648
 5088TIP3   OH236754   2.169   4.001  11.066  0.7594 -0.1573  0.6874
 5088TIP3    H136755   2.184   4.089  11.101  2.4796 -0.6778  1.3533
 5088TIP3    H236756   2.249   3.980  11.018 -0.8392 -0.1611 -2.2401
 5089TIP3   OH236757   2.536   5.430  13.680  0.0458 -0.2259  0.0838
 5089TIP3    H136758   2.556   5.450  13.589 -1.0169  1.7060  0.2057
 5089TIP3    H236759   2.456   5.479  13.698 -1.0917 -2.3955  1.4217
 5090TIP3   OH236760   2.201   0.947  14.012 -0.5157  0.5090 -0.6705
 5090TIP3    H136761   2.219   0.904  13.928 -2.1294 -0.2296 -0.6785
 5090TIP3    H236762   2.243   1.033  14.004  1.0621 -0.2760 -1.4424
 5091TIP3   OH236763   4.863   0.616   3.339 -0.1154 -0.1271 -0.4319
 5091TIP3    H136764   4.847   0.593   3.248 -1.6589 -0.7960 -0.0289
 5091TIP3    H236765   4.917   0.545   3.374 -0.4476 -0.4360 -0.5455
 5092TIP3   OH236766   2.275   5.193   2.639 -0.1876 -0.2878  0.2385
 5092TIP3    H136767   2.326   5.233   2.710 -0.9582 -1.1769  1.3296
 5092TIP3    H236768   2.184   5.199   2.668 -0.7457  1.1789 -1.6264
 5093TIP3   OH236769   3.741   2.886   5.084 -0.6039  0.4788  0.0517
 5093TIP3    H136770   3.717   2.865   5.174 -2.0539 -2.2279 -0.8471
 5093TIP3    H236771   3.658   2.910   5.042 -0.2774 -0.0927 -0.9623
 5094TIP3   OH236772   0.224   3.767   6.350  0.1270 -0.4646 -0.2247
 5094TIP3    H136773   0.246   3.679   6.380 -0.3014  0.1208  2.0217
 5094TIP3    H236774   0.129   3.773   6.361  0.1925  0.3717 -0.0394
 5095TIP3   OH236775   0.827   3.319   3.253 -0.5815 -0.2594  0.9759
 5095TIP3    H136776   0.895   3.371   3.210 -0.6139 -0.7195  0.3569
 5095TIP3    H236777   0.803   3.253   3.188 -2.1100  0.3201  0.9094
 5096TIP3   OH236778   6.143   5.815  12.141  0.0608 -0.3033 -0.0691
 5096TIP3    H136779   6.202   5.747  12.108 -0.3134 -0.8574  0.3829
 5096TIP3    H236780   6.168   5.825  12.233  0.7359  0.8462 -0.3667
 5097TIP3   OH236781   3.264   5.231   2.831 -0.4426 -0.0977  0.4332
 5097TIP3    H136782   3.242   5.161   2.770 -0.9592  1.6230 -1.4818
 5097TIP3    H236783   3.334   5.195   2.886  0.9508 -1.3462 -2.0067
 5098TIP3   OH236784   0.645   2.375   1.617 -0.2818 -0.2412 -0.0252
 5098TIP3    H136785   0.554   2.360   1.594  0.0997 -0.8336 -1.2563
 5098TIP3    H236786   0.674   2.293   1.657 -0.4534  0.1616  0.9300
 5099TIP3   OH236787   6.490   5.705   3.429  0.2836 -0.1195  0.5423
 5099TIP3    H136788   6.525   5.656   3.503  1.6207  1.0263  0.7150
 5099TIP3    H236789   6.477   5.793   3.463 -0.3514  0.0949 -0.2371
 5100TIP3   OH236790   1.526   6.308   1.327 -0.1768  0.1235  0.0307
 5100TIP3    H136791   1.447   6.363   1.331  0.0268  0.6174 -1.8830
 5100TIP3    H236792   1.598   6.369   1.340 -0.0231  0.0456 -0.4408
 5101TIP3   OH236793   1.348   6.767   0.481  0.2762  0.6689 -0.1948
 5101TIP3    H136794   1.434   6.734   0.455  0.4199  0.1055  0.9316
 5101TIP3    H236795   1.298   6.688   0.502  0.1597  1.0670  1.1295
 5102TIP3   OH236796   3.310   2.926  12.137  0.8153 -0.1640 -1.2034
 5102TIP3    H136797   3.333   3.018  12.150  1.0064 -0.0727 -2.1523
 5102TIP3    H236798   3.249   2.926  12.063  0.8301 -0.8033 -1.2203
 5103TIP3   OH236799   5.809   3.264  12.180  0.1560  0.8017  0.7098
 5103TIP3    H136800   5.870   3.273  12.107 -0.2123  1.9879  0.5199
 5103TIP3    H236801   5.734   3.218  12.142  1.3968 -1.9077  1.2711
 5104TIP3   OH236802   0.054   2.412  14.688 -0.1604 -0.2160 -0.2910
 5104TIP3    H136803   0.131   2.381  14.641  1.2798  2.0898  0.3740
 5104TIP3    H236804   0.015   2.477  14.629  1.1017  1.9762  1.1221
 5105TIP3   OH236805   1.815   4.495  11.863 -0.7064  0.1594  0.6364
 5105TIP3    H136806   1.749   4.543  11.813 -1.0561  0.4264  1.3383
 5105TIP3    H236807   1.862   4.563  11.912  0.1070 -0.0266  0.1311
 5106TIP3   OH236808   1.141   2.016  13.388 -0.2280 -0.5706  0.1135
 5106TIP3    H136809   1.096   2.088  13.432  0.3607  0.5657 -1.0684
 5106TIP3    H236810   1.228   2.015  13.426 -0.4807 -1.2096  0.7006
 5107TIP3   OH236811   1.303   1.022   4.617  0.3636  0.4032  0.1723
 5107TIP3    H136812   1.299   0.999   4.710  1.4965  0.0256  0.1478
 5107TIP3    H236813   1.236   1.089   4.606 -0.0994  0.1324  1.1617
 5108TIP3   OH236814   1.209   1.942  15.696  0.1717  0.0783  0.8107
 5108TIP3    H136815   1.273   1.954  15.767  1.5587 -0.7999 -0.2431
 5108TIP3    H236816   1.165   1.860  15.719  0.2145  0.0906  0.9426
 5109TIP3   OH236817   2.088   3.702  12.136 -0.0479  0.8555 -0.1382
 5109TIP3    H136818   2.097   3.696  12.231  0.4160  1.9436 -0.0950
 5109TIP3    H236819   2.070   3.612  12.108  0.1114  0.4672  0.9405
 5110TIP3   OH236820   5.680   6.209  16.567  0.1710 -0.2883  0.5185
 5110TIP3    H136821   5.724   6.222  16.651 -1.3305 -0.1254  1.3047
 5110TIP3    H236822   5.613   6.144  16.585  0.2822 -0.7703 -0.7368
 5111TIP3   OH236823   0.703   0.719  14.860  0.3056 -0.1765  0.1868
 5111TIP3    H136824   0.674   0.767  14.782  3.5244 -0.0649 -1.0738
 5111TIP3    H236825   0.770   0.659  14.829 -0.6280 -2.5776  2.4141
 5112TIP3   OH236826   6.747   0.082  11.710  0.5184  0.1901 -0.2447
 5112TIP3    H136827   6.783   0.012  11.763  1.9383  0.1288 -1.2218
 5112TIP3    H236828   6.750   0.159  11.767  1.1764 -0.0527  0.0618
 5113TIP3   OH236829   3.668   5.266   1.159  0.6879 -0.4538  0.4089
 5113TIP3    H136830   3.739   5.319   1.198 -0.9496  0.4110  2.3789
 5113TIP3    H236831   3.675   5.181   1.202 -0.0323 -0.0509  1.3712
 5114TIP3   OH236832   5.865   5.466  12.842  0.2784 -0.5131 -0.0793
 5114TIP3    H136833   5.773   5.493  12.836  0.1431 -1.0566 -0.5290
 5114TIP3    H236834   5.894   5.458  12.751  0.3851 -1.6265  0.0370
 5115TIP3   OH236835   1.130   1.546  14.111 -0.0162 -0.2417 -0.2314
 5115TIP3    H136836   1.056   1.486  14.120 -1.2632  1.5030  2.0451
 5115TIP3    H236837   1.180   1.535  14.191  1.3981 -0.3082 -1.0860
 5116TIP3   OH236838   4.842   1.290  16.864  0.2567  0.0580  0.0762
 5116TIP3    H136839   4.755   1.323  16.841 -0.3072 -1.0430  0.5516
 5116TIP3    H236840   4.866   1.233  16.791  0.1357 -0.4361  0.4215
 5117TIP3   OH236841   0.934   2.189  13.115  0.4641 -0.4120 -0.0282
 5117TIP3    H136842   0.922   2.267  13.060  1.2674 -2.1834 -2.9192
 5117TIP3    H236843   1.017   2.204  13.160  0.5776  0.4100 -0.4912
 5118TIP3   OH236844   4.342   2.075   5.315  0.3602 -0.3408  0.7338
 5118TIP3    H136845   4.394   2.032   5.383 -1.5675 -0.8763  1.9525
 5118TIP3    H236846   4.352   2.168   5.332  0.1396 -0.4662  1.5753
 5119TIP3   OH236847   6.604   1.379   2.340 -0.5128 -0.0711  0.1497
 5119TIP3    H136848   6.618   1.291   2.305  1.0998  0.3745 -0.4181
 5119TIP3    H236849   6.691   1.420   2.337 -1.3144  1.7077 -0.0987
 5120TIP3   OH236850   1.020   1.390   4.234 -0.2940 -0.3769  0.3611
 5120TIP3    H136851   0.983   1.383   4.322  0.9932  0.3043  0.9986
 5120TIP3    H236852   1.016   1.484   4.214  0.6145 -0.3500  0.2570
 5121TIP3   OH236853   5.385   0.646  15.088  0.4160 -0.0405  0.6982
 5121TIP3    H136854   5.473   0.613  15.069  1.1345  1.6566  0.8861
 5121TIP3    H236855   5.400   0.727  15.137 -1.2538  0.5160  0.3526
 5122TIP3   OH236856   0.408   6.218   0.834  0.9574 -0.0401 -0.4708
 5122TIP3    H136857   0.358   6.270   0.898  0.2312  0.3348 -1.3199
 5122TIP3    H236858   0.371   6.130   0.841  2.0633 -0.4444  0.8375
 5123TIP3   OH236859   6.046   2.167   1.928  0.2176 -0.0122  0.0876
 5123TIP3    H136860   6.016   2.243   1.878 -1.0760 -1.0905 -0.8745
 5123TIP3    H236861   5.972   2.106   1.924  0.3160 -0.4115  2.8442
 5124TIP3   OH236862   5.166   0.348   1.825  0.1451 -0.5466 -0.2569
 5124TIP3    H136863   5.218   0.419   1.787  1.1095 -0.4411  1.1780
 5124TIP3    H236864   5.108   0.320   1.754  1.1926  0.2781 -1.4908
 5125TIP3   OH236865   5.802   1.780   2.505 -0.2753 -0.3046 -0.0047
 5125TIP3    H136866   5.842   1.695   2.490  1.9432 -0.0103  3.2740
 5125TIP3    H236867   5.708   1.763   2.509 -0.0334 -2.2031 -1.2841
 5126TIP3   OH236868   0.952   3.492   6.447 -0.1778 -0.4533 -0.4038
 5126TIP3    H136869   0.872   3.469   6.400 -0.6151  0.2808 -0.0273
 5126TIP3    H236870   0.970   3.416   6.503 -1.1292 -0.2403  0.1987
 5127TIP3   OH236871   2.341   4.485  11.478  0.3297  0.1116 -0.3340
 5127TIP3    H136872   2.247   4.465  11.478  0.1820  0.7622 -0.7496
 5127TIP3    H236873   2.383   4.403  11.506 -0.3721 -0.1099  0.0995
 5128TIP3   OH236874   2.364   4.698   6.025 -0.1532  0.1576 -0.7141
 5128TIP3    H136875   2.379   4.785   6.062 -0.9546 -0.2985  0.7502
 5128TIP3    H236876   2.448   4.653   6.036 -0.2606  0.1595  0.2350
 5129TIP3   OH236877   6.289   1.234   1.863  0.2230 -0.2877 -0.1904
 5129TIP3    H136878   6.241   1.165   1.909 -0.2112 -0.4344 -0.8496
 5129TIP3    H236879   6.381   1.207   1.871  0.0306 -1.1746 -0.7955
 5130TIP3   OH236880   2.905   1.558  15.978  0.6475 -0.4709 -0.1114
 5130TIP3    H136881   2.883   1.485  15.920 -0.0813  0.5691 -1.1917
 5130TIP3    H236882   2.987   1.532  16.019  0.5214 -1.7939 -0.6476
 5131TIP3   OH236883   0.769   0.442  17.113  0.5155  0.0251  0.8475
 5131TIP3    H136884   0.798   0.529  17.087  1.9656 -1.1079 -1.7047
 5131TIP3    H236885   0.841   0.407  17.166  0.0793  0.2028  1.5841
 5132TIP3   OH236886   1.671   4.223   4.960  0.4937 -0.1955  0.0276
 5132TIP3    H136887   1.713   4.253   4.880 -1.0691  0.6906 -0.5106
 5132TIP3    H236888   1.739   4.176   5.007  1.2232 -1.6021 -2.2705
 5133TIP3   OH236889   0.902   6.423   0.797  0.7609 -0.0476  0.3437
 5133TIP3    H136890   0.848   6.344   0.787  0.5651 -0.5425  3.9915
 5133TIP3    H236891   0.852   6.491   0.752 -0.7984 -1.3201  0.0197
 5134TIP3   OH236892   4.953   0.557   1.391  0.2915 -1.3944  0.0305
 5134TIP3    H136893   4.945   0.535   1.484 -1.6125  0.2710  0.3218
 5134TIP3    H236894   4.868   0.534   1.354  0.0965  0.4157 -0.7257
 5135TIP3   OH236895   2.692   5.085   1.552  0.1972 -0.0085 -0.0929
 5135TIP3    H136896   2.716   5.146   1.622  0.8688 -1.7942  1.3204
 5135TIP3    H236897   2.762   5.094   1.488  0.9533 -0.1271  0.6891
 5136TIP3   OH236898   4.129   1.904  13.588  0.6755  0.4388 -0.4680
 5136TIP3    H136899   4.189   1.886  13.660 -0.2290 -4.4120 -0.5991
 5136TIP3    H236900   4.044   1.917  13.631  0.3636 -1.2054 -0.5421
 5137TIP3   OH236901   3.876   6.627   3.438 -0.5776 -0.2101 -0.2434
 5137TIP3    H136902   3.819   6.668   3.373  0.7733  0.9982 -0.7018
 5137TIP3    H236903   3.837   6.651   3.522 -1.2666 -0.1882 -0.5649
 5138TIP3   OH236904   6.837   6.164  16.099 -0.3380 -0.1045  0.4400
 5138TIP3    H136905   6.746   6.180  16.125 -0.0028 -1.8490  3.0115
 5138TIP3    H236906   6.887   6.235  16.140 -0.4874  0.8203 -0.9221
 5139TIP3   OH236907   3.175   6.397  14.791  0.4386  0.4880  0.6734
 5139TIP3    H136908   3.207   6.478  14.833 -0.3787  1.2537 -0.1391
 5139TIP3    H236909   3.099   6.425  14.740 -0.2037 -0.9099  0.8191
 5140TIP3   OH236910   1.973   0.153  12.114 -0.0417  0.1683 -0.0024
 5140TIP3    H136911   2.012   0.106  12.187 -1.7546 -0.6074  0.4862
 5140TIP3    H236912   1.964   0.243  12.145 -0.9669 -0.2012  0.8855
 5141TIP3   OH236913   1.218   6.053  10.508 -0.0714  0.4361 -0.2246
 5141TIP3    H136914   1.133   6.038  10.549  0.9715  0.2170  1.9899
 5141TIP3    H236915   1.253   5.966  10.492  0.5012  0.5090  0.5871
 5142TIP3   OH236916   2.522   0.233   1.900  0.8469 -0.0127  0.4912
 5142TIP3    H136917   2.510   0.259   1.992  0.2904 -2.9793  1.3660
 5142TIP3    H236918   2.449   0.173   1.883  3.5273 -3.3242 -0.2818
 5143TIP3   OH236919   3.238   0.173   1.590 -0.4519  0.4471 -0.0253
 5143TIP3    H136920   3.196   0.124   1.519  2.1373 -0.5963 -0.9325
 5143TIP3    H236921   3.202   0.261   1.582 -0.1989  0.3816 -2.7162
 5144TIP3   OH236922   1.127   1.458  10.780  0.0327  0.3401 -0.5293
 5144TIP3    H136923   1.204   1.476  10.727  1.3425 -0.1409  1.1101
 5144TIP3    H236924   1.059   1.432  10.718  1.1998  0.7352 -2.0052
 5145TIP3   OH236925   2.725   0.835  11.437  0.1888  0.2635  0.0174
 5145TIP3    H136926   2.659   0.773  11.468 -0.4498  0.2989 -1.2265
 5145TIP3    H236927   2.714   0.912  11.493  0.8312 -0.6223  1.4223
 5146TIP3   OH236928   3.027   3.450   1.072 -0.2570  0.2505  0.0146
 5146TIP3    H136929   3.084   3.494   1.135 -0.0369 -0.0309  0.0104
 5146TIP3    H236930   2.975   3.390   1.125 -1.4913  1.4353  0.2156
 5147TIP3   OH236931   5.600   0.202  14.146  0.7193 -0.3374  0.0507
 5147TIP3    H136932   5.605   0.139  14.218 -0.3996 -2.3325 -1.5217
 5147TIP3    H236933   5.513   0.242  14.154  0.3613 -0.9796 -0.4678
 5148TIP3   OH236934   5.110   5.463   4.380  0.2369  0.1218  0.5801
 5148TIP3    H136935   5.134   5.469   4.472  0.3627  0.5570  0.5243
 5148TIP3    H236936   5.181   5.414   4.339  1.2482  1.6753  0.3578
 5149TIP3   OH236937   2.633   5.360  16.234  0.2701  0.1040 -0.3237
 5149TIP3    H136938   2.675   5.413  16.302  0.2612 -1.6826  1.1246
 5149TIP3    H236939   2.692   5.286  16.220 -0.5698 -0.4602 -1.0064
 5150TIP3   OH236940   6.098   1.360  11.816  0.1914 -0.8647  0.5499
 5150TIP3    H136941   6.153   1.400  11.749  0.3724  0.6945  1.5901
 5150TIP3    H236942   6.152   1.360  11.895 -0.0226 -2.6632  0.7429
 5151TIP3   OH236943   4.981   4.184   1.594  0.0283  1.0785 -0.6596
 5151TIP3    H136944   4.999   4.266   1.548  0.3916  0.7219 -1.1647
 5151TIP3    H236945   5.047   4.180   1.663  0.1540  1.1021 -0.7784
 5152TIP3   OH236946   4.352   6.382  10.896  0.3296  0.4163  0.1767
 5152TIP3    H136947   4.355   6.444  10.968  0.3026 -0.0550  0.5909
 5152TIP3    H236948   4.314   6.432  10.823  0.1681  0.8400  0.5456
 5153TIP3   OH236949   0.668   1.296  16.485 -0.0663 -0.4440  0.1947
 5153TIP3    H136950   0.733   1.236  16.447 -0.1696 -1.1505  1.1134
 5153TIP3    H236951   0.617   1.242  16.544 -1.1080  0.2504 -0.0508
 5154TIP3   OH236952   3.215   6.437   1.177  0.1172  0.1514 -0.2205
 5154TIP3    H136953   3.140   6.419   1.120 -0.0613 -1.0707  0.3813
 5154TIP3    H236954   3.250   6.351   1.199  1.9172  0.7123 -0.7430
 5155TIP3   OH236955   1.577   6.560  14.545  0.2717  0.7801 -0.1890
 5155TIP3    H136956   1.617   6.599  14.622 -1.0067  1.8371 -0.0233
 5155TIP3    H236957   1.530   6.484  14.578  1.5631 -0.0860 -0.2886
 5156TIP3   OH236958   2.928   2.427   2.660 -0.8838  0.1655 -0.0868
 5156TIP3    H136959   2.920   2.342   2.617 -1.3856 -0.0619  0.4428
 5156TIP3    H236960   2.979   2.410   2.738 -0.1546  0.5394 -0.4713
 5157TIP3   OH236961   3.814   3.163   0.369 -0.5536 -0.1868 -0.1663
 5157TIP3    H136962   3.816   3.254   0.340 -0.5170 -0.0622  0.2251
 5157TIP3    H236963   3.728   3.152   0.409 -0.4749 -0.2656 -0.0196
 5158TIP3   OH236964   4.370   5.502  11.323 -0.2705  0.0508  0.6760
 5158TIP3    H136965   4.397   5.579  11.273  0.5611  0.3550  1.5612
 5158TIP3    H236966   4.280   5.486  11.296  0.3780 -0.2709 -1.4784
 5159TIP3   OH236967   3.755   0.676   3.028  0.8028  0.2202  0.6213
 5159TIP3    H136968   3.781   0.750   2.973 -1.4912 -0.0197 -0.9644
 5159TIP3    H236969   3.724   0.716   3.109  2.8780  0.6843  1.2449
 5160TIP3   OH236970   5.724   1.992  15.380 -0.0733 -0.2216  0.5627
 5160TIP3    H136971   5.799   1.949  15.339 -1.3740 -0.6344 -1.5311
 5160TIP3    H236972   5.762   2.046  15.449  2.0275 -1.2204  0.2692
 5161TIP3   OH236973   5.710   4.867   5.072 -0.5007 -0.0975  0.9032
 5161TIP3    H136974   5.741   4.853   5.161  1.3567 -0.1392  0.2799
 5161TIP3    H236975   5.656   4.946   5.078  2.8821  2.4182  1.4417
 5162TIP3   OH236976   1.674   3.301  13.817  0.6487 -0.4097  0.8689
 5162TIP3    H136977   1.669   3.395  13.797 -0.7477 -0.6825 -0.2771
 5162TIP3    H236978   1.765   3.277  13.799  0.7513  0.5107  0.0993
 5163TIP3   OH236979   3.160   2.118  11.757  0.5001  1.0045 -0.2776
 5163TIP3    H136980   3.150   2.173  11.679  2.3746  1.0811 -0.5050
 5163TIP3    H236981   3.245   2.075  11.746  0.2059 -0.0148  1.1035
 5164TIP3   OH236982   3.098   1.500   5.067 -0.0191  0.2388 -0.5985
 5164TIP3    H136983   3.010   1.516   5.033  0.0273  0.0265 -0.8223
 5164TIP3    H236984   3.136   1.587   5.081 -0.9089  0.3966  1.1921
 5165TIP3   OH236985   0.449   5.922   4.521  0.3646 -0.2740 -0.3838
 5165TIP3    H136986   0.369   5.890   4.479 -0.7798  1.6959  0.1964
 5165TIP3    H236987   0.450   5.879   4.607 -0.1012 -0.2390 -0.3599
 5166TIP3   OH236988   1.744   1.099  15.124 -0.1193 -0.4939 -0.8221
 5166TIP3    H136989   1.655   1.063  15.120 -0.7134  0.7640  0.4419
 5166TIP3    H236990   1.747   1.147  15.207  1.7914 -0.6091 -0.7792
 5167TIP3   OH236991   1.470   3.121   1.477  0.5382 -0.1902  0.0216
 5167TIP3    H136992   1.549   3.174   1.478  0.1254  0.4729 -0.7417
 5167TIP3    H236993   1.491   3.047   1.419  0.2991  0.5123 -0.9991
 5168TIP3   OH236994   3.866   2.267  11.917  0.2881 -0.2398 -0.3219
 5168TIP3    H136995   3.828   2.185  11.947 -2.2274  1.5058  1.6615
 5168TIP3    H236996   3.918   2.298  11.991  0.4706  0.3665 -0.6978
 5169TIP3   OH236997   6.102   0.099  14.369 -0.3597  0.1965 -0.2568
 5169TIP3    H136998   6.148   0.178  14.341 -1.6614  1.4101  0.8819
 5169TIP3    H236999   6.076   0.056  14.288  0.6043  0.7736 -0.8975
 5170TIP3   OH237000   0.013   2.872   0.715  0.3917 -0.5193 -0.0341
 5170TIP3    H137001   0.107   2.864   0.705  0.3255 -1.0359 -0.2591
 5170TIP3    H237002  -0.021   2.783   0.705 -0.1730 -0.2532 -0.6581
 5171TIP3   OH237003   1.426   5.220   4.733 -0.2893  0.1486  0.2645
 5171TIP3    H137004   1.493   5.190   4.793 -0.3967 -0.1960  0.2173
 5171TIP3    H237005   1.370   5.278   4.785  0.5185  1.1039  0.0916
 5172TIP3   OH237006   5.841   0.058  13.484 -0.4418 -0.1597 -0.1329
 5172TIP3    H137007   5.820   0.144  13.520 -1.0842 -1.2640  2.3615
 5172TIP3    H237008   5.858   0.003  13.561 -0.3184 -2.3382 -1.6177
 5173TIP3   OH237009   3.142   1.464  11.687 -0.3571 -0.3240 -0.0231
 5173TIP3    H137010   3.205   1.396  11.663 -0.0384 -0.6483  1.6393
 5173TIP3    H237011   3.195   1.542  11.702 -0.3505 -0.5243  1.0939
 5174TIP3   OH237012   5.709   3.807   5.714  0.0916 -0.5902 -0.3858
 5174TIP3    H137013   5.731   3.747   5.643  1.9569  0.4585 -0.7494
 5174TIP3    H237014   5.789   3.814   5.766 -0.4805  0.5869  0.3875
 5175TIP3   OH237015   2.143   4.483  15.728  0.0976  0.3812  0.1502
 5175TIP3    H137016   2.174   4.473  15.818  1.6271 -0.1569 -0.4077
 5175TIP3    H237017   2.111   4.396  15.704  0.4501  0.3091 -0.0784
 5176TIP3   OH237018   4.949   5.631  15.486  0.3122  0.2023  0.5198
 5176TIP3    H137019   4.898   5.705  15.519  0.3421  0.3649  0.2006
 5176TIP3    H237020   4.931   5.560  15.548  1.9839  1.0655  2.1052
 5177TIP3   OH237021   4.747   3.475  14.966 -0.4501  0.3274 -0.3341
 5177TIP3    H137022   4.805   3.415  14.921  2.7303  1.1274  2.3553
 5177TIP3    H237023   4.733   3.546  14.904  0.7749 -0.2915 -1.3528
 5178TIP3   OH237024   4.263   6.447   0.699 -0.1049 -0.5748  0.0171
 5178TIP3    H137025   4.184   6.497   0.679 -0.1588 -1.1730 -1.4218
 5178TIP3    H237026   4.277   6.460   0.793 -1.2050  0.5371  0.0524
 5179TIP3   OH237027   1.743   0.517  13.604  0.5597 -0.0454 -0.3332
 5179TIP3    H137028   1.727   0.608  13.628  0.8640  0.1771 -0.9536
 5179TIP3    H237029   1.691   0.466  13.667 -0.1980  0.5742 -0.4404
 5180TIP3   OH237030   4.024   1.134  13.979 -0.4789  0.5047 -0.0278
 5180TIP3    H137031   4.101   1.133  14.035 -0.2979 -0.5922 -0.2687
 5180TIP3    H237032   3.991   1.045  13.982 -2.5477  1.2655  1.1315
 5181TIP3   OH237033   3.962   5.638   5.669  0.0066 -0.1711 -0.0592
 5181TIP3    H137034   3.916   5.716   5.636 -1.7670 -0.8885  0.5743
 5181TIP3    H237035   3.893   5.585   5.709  1.5558 -0.8553  1.8980
 5182TIP3   OH237036   5.975   5.612  12.114  0.1911  0.3158 -0.0679
 5182TIP3    H137037   5.911   5.683  12.121  0.3758  0.3895  1.0242
 5182TIP3    H237038   6.053   5.645  12.160  0.9851  0.1790 -1.2658
 5183TIP3   OH237039   0.780   6.461   2.004 -0.0407  0.1007  0.0653
 5183TIP3    H137040   0.699   6.510   2.014 -0.0316  0.0984  0.1545
 5183TIP3    H237041   0.815   6.455   2.093  1.2533  2.1162 -0.2407
 5184TIP3   OH237042   1.889   0.317  14.070 -0.7409  0.4687 -0.4686
 5184TIP3    H137043   1.886   0.221  14.070 -0.0470  0.3318 -3.7460
 5184TIP3    H237044   1.983   0.337  14.070 -0.6846  1.4456  4.3646
 5185TIP3   OH237045   3.106   5.160  15.289  0.0550  0.3824  0.2256
 5185TIP3    H137046   3.095   5.065  15.293 -0.0701  0.4286  1.3904
 5185TIP3    H237047   3.189   5.172  15.244 -0.1281 -0.2682 -0.3039
 5186TIP3   OH237048   4.133   2.742   3.465 -0.0397 -0.1102 -0.3690
 5186TIP3    H137049   4.165   2.738   3.555 -1.0735 -0.0190  0.0243
 5186TIP3    H237050   4.211   2.747   3.411  0.5937  2.7042  0.6508
 5187TIP3   OH237051   3.102   6.836   6.360  0.4625  0.3384  0.8484
 5187TIP3    H137052   3.158   6.787   6.300 -1.6272 -0.4064 -0.6468
 5187TIP3    H237053   3.121   6.928   6.341 -0.3231  0.1227 -1.2340
 5188TIP3   OH237054   5.886   4.576   2.349 -0.3285 -0.3566  0.0277
 5188TIP3    H137055   5.955   4.536   2.401 -0.8569 -2.0319 -0.4940
 5188TIP3    H237056   5.852   4.505   2.295 -1.8532  0.6200 -0.3792
 5189TIP3   OH237057   6.549   0.082   6.920  0.3615  0.5725  0.2358
 5189TIP3    H137058   6.513   0.054   6.836 -0.9952  0.1814  0.9128
 5189TIP3    H237059   6.643   0.069   6.913  0.2021  0.0740 -1.0376
 5190TIP3   OH237060   1.343   1.662   3.500  0.0478  0.6432  0.2349
 5190TIP3    H137061   1.297   1.584   3.533 -2.1975  1.7117 -0.2052
 5190TIP3    H237062   1.360   1.642   3.408  2.0808 -0.4257  0.7787
 5191TIP3   OH237063   3.903   0.003   1.640 -0.4745 -0.4494 -0.8368
 5191TIP3    H137064   3.997   0.018   1.630 -0.2120 -1.0197  0.6160
 5191TIP3    H237065   3.880  -0.047   1.561  0.0021  1.3750 -2.2123
 5192TIP3   OH237066   0.773   3.281  12.126 -0.5803  0.0041 -0.2634
 5192TIP3    H137067   0.725   3.204  12.095 -1.5226  0.1030  0.8873
 5192TIP3    H237068   0.816   3.315  12.048  0.6086 -2.1978 -0.6308
 5193TIP3   OH237069   0.446   1.355  15.212  0.2259 -0.7975  0.1484
 5193TIP3    H137070   0.466   1.439  15.170 -1.1893 -0.3540  0.2736
 5193TIP3    H237071   0.481   1.289  15.153 -0.5437 -0.1545 -1.0837
 5194TIP3   OH237072   2.180   4.641  10.979 -0.1683 -0.1158  0.0352
 5194TIP3    H137073   2.109   4.581  10.959  1.6665 -2.0564 -0.9814
 5194TIP3    H237074   2.196   4.688  10.897 -0.3104  0.4127  0.2983
 5195TIP3   OH237075   1.652   2.870  13.099 -0.1282  0.1577  0.0400
 5195TIP3    H137076   1.702   2.816  13.038 -1.3564 -0.2223 -0.6733
 5195TIP3    H237077   1.687   2.848  13.185  2.6233  1.7423 -0.5414
 5196TIP3   OH237078   2.185   2.145  13.756 -0.2933 -0.2518 -0.8115
 5196TIP3    H137079   2.260   2.086  13.741 -1.0920 -1.3007 -0.7888
 5196TIP3    H237080   2.192   2.169  13.848 -0.2199 -0.6957 -0.6973
 5197TIP3   OH237081   2.488   6.048   4.858 -0.7858 -0.3054 -0.0023
 5197TIP3    H137082   2.421   6.004   4.806 -0.3914 -0.8949 -0.0210
 5197TIP3    H237083   2.468   6.141   4.849 -1.6801 -0.4783  0.1069
 5198TIP3   OH237084   6.792   3.924   5.096  0.2492  0.1381  0.0125
 5198TIP3    H137085   6.765   3.978   5.170  1.9400 -1.0990  1.6169
 5198TIP3    H237086   6.807   3.986   5.025 -0.3236  1.4814  1.0309
 5199TIP3   OH237087   4.245   0.828  11.551 -0.2600 -0.1400 -0.5081
 5199TIP3    H137088   4.250   0.735  11.530  0.1793 -0.5211  1.1679
 5199TIP3    H237089   4.154   0.852  11.535 -1.4107 -1.8320  2.7286
 5200TIP3   OH237090   4.547   5.134   5.193  0.2205 -0.5260  0.2496
 5200TIP3    H137091   4.592   5.208   5.154 -0.7992 -0.2316 -0.4124
 5200TIP3    H237092   4.512   5.167   5.275 -1.6022  0.2465 -0.7704
 5201TIP3   OH237093   1.616   6.449   5.868 -0.3783  0.3784  1.0220
 5201TIP3    H137094   1.567   6.531   5.859 -0.8764 -0.1748 -4.0452
 5201TIP3    H237095   1.553   6.380   5.849  0.8817 -0.9267  1.3591
 5202TIP3   OH237096   6.802   3.065   3.002 -0.0381 -0.1212 -0.3854
 5202TIP3    H137097   6.883   3.056   2.951 -0.5761 -0.9664 -1.1174
 5202TIP3    H237098   6.803   2.989   3.061 -0.2491 -0.0872 -0.3379
 5203TIP3   OH237099   1.061   2.805  13.556  0.2265 -0.0821 -0.1556
 5203TIP3    H137100   1.098   2.720  13.533  1.2683  0.7970 -1.9721
 5203TIP3    H237101   1.034   2.843  13.473  1.1801  1.9759  0.3966
 5204TIP3   OH237102   3.134   0.238   0.739 -0.0173  0.4240  0.4778
 5204TIP3    H137103   3.088   0.209   0.660 -1.5900  0.3014  1.4046
 5204TIP3    H237104   3.179   0.318   0.712 -1.8880  1.3351 -0.1492
 5205TIP3   OH237105   5.145   1.306   3.122 -0.5474 -0.5151 -0.1936
 5205TIP3    H137106   5.183   1.330   3.207 -0.7524  1.9799 -0.7400
 5205TIP3    H237107   5.177   1.217   3.106 -1.0427 -1.3483  2.7800
 5206TIP3   OH237108   0.427   2.040   4.277  0.4722  0.1957  0.7293
 5206TIP3    H137109   0.460   1.967   4.329  1.3780  0.4334  0.5054
 5206TIP3    H237110   0.430   2.115   4.336  1.6153  0.4909  0.3122
 5207TIP3   OH237111   3.615   6.848  13.558  0.2293  0.1759  0.2703
 5207TIP3    H137112   3.703   6.816  13.578 -0.1194 -1.0257 -0.0020
 5207TIP3    H237113   3.629   6.922  13.498  1.0205 -1.4564 -1.6850
 5208TIP3   OH237114   5.526   0.534  13.461  0.0705  0.0479 -0.5238
 5208TIP3    H137115   5.607   0.582  13.443  0.2754  0.8504  2.0804
 5208TIP3    H237116   5.461   0.578  13.405  0.9641  0.9515 -0.9083
 5209TIP3   OH237117   4.397   4.392  14.933  0.4160  0.0149  0.2955
 5209TIP3    H137118   4.415   4.481  14.906  0.3947  0.1476  0.7013
 5209TIP3    H237119   4.366   4.348  14.854 -0.1202  0.5197  0.2120
 5210TIP3   OH237120   3.321   0.113  16.499  0.7143 -0.3941 -0.2989
 5210TIP3    H137121   3.295   0.022  16.490 -0.8437 -0.1250  1.0412
 5210TIP3    H237122   3.287   0.155  16.420  0.7353 -0.8183 -0.5364
 5211TIP3   OH237123   4.715   2.271  14.334  0.3177  0.0968 -0.0234
 5211TIP3    H137124   4.632   2.256  14.290  0.8490  0.3251 -1.1495
 5211TIP3    H237125   4.692   2.292  14.424 -0.9181  1.5052 -0.6399
 5212TIP3   OH237126   6.279   4.325  15.683  0.5281 -0.1858  0.0122
 5212TIP3    H137127   6.348   4.327  15.616  1.7709 -0.9327  1.2275
 5212TIP3    H237128   6.290   4.407  15.730 -0.1461  0.1981 -0.4918
 5213TIP3   OH237129   0.840   3.849   0.074 -0.6252  0.1982  0.1525
 5213TIP3    H137130   0.854   3.810  -0.012  0.4094  2.2261 -0.6678
 5213TIP3    H237131   0.920   3.829   0.123 -0.4278  0.5884 -0.0035
 5214TIP3   OH237132   5.732   5.218   3.999  0.2170 -0.1268  0.3708
 5214TIP3    H137133   5.777   5.169   3.930  0.3481 -0.1795  0.4935
 5214TIP3    H237134   5.655   5.255   3.955 -0.2657 -1.0204  0.4354
 5215TIP3   OH237135   0.331   2.982  13.310 -0.0066 -0.4144 -0.0216
 5215TIP3    H137136   0.426   2.984  13.300 -0.0847 -1.2291 -1.0537
 5215TIP3    H237137   0.304   3.074  13.301  0.5847 -0.2987 -0.6851
 5216TIP3   OH237138   6.150   4.719   2.287 -0.2912  0.4367  0.1293
 5216TIP3    H137139   6.208   4.657   2.331  0.6026  1.6826  0.7662
 5216TIP3    H237140   6.062   4.687   2.308  0.0619 -2.1845 -1.8570
 5217TIP3   OH237141   6.069   2.388   0.906  0.8322 -0.1955 -0.0569
 5217TIP3    H137142   6.001   2.326   0.934  1.4829 -0.6421  0.5876
 5217TIP3    H237143   6.054   2.400   0.813  0.4939 -1.0829 -0.1292
 5218TIP3   OH237144   5.292   0.506   6.024 -0.5839 -0.5490 -0.5220
 5218TIP3    H137145   5.267   0.545   6.108  1.0338  0.5113 -0.4922
 5218TIP3    H237146   5.211   0.467   5.991 -1.2514 -1.0524  1.5464
 5219TIP3   OH237147   5.286   6.193  16.698  0.0759  0.5815 -0.3338
 5219TIP3    H137148   5.379   6.170  16.693  0.3861  1.6457  0.2726
 5219TIP3    H237149   5.258   6.162  16.784 -0.2025  0.0114 -0.6292
 5220TIP3   OH237150   6.527   0.780  14.050 -0.0040  0.0753 -0.0516
 5220TIP3    H137151   6.547   0.866  14.013 -1.2420 -0.6616 -2.6836
 5220TIP3    H237152   6.443   0.792  14.094 -0.3310  0.1831 -0.6872
 5221TIP3   OH237153   1.120   3.866   0.165  0.2810 -0.1277 -0.1902
 5221TIP3    H137154   1.175   3.934   0.126  2.2286  0.1902  2.8155
 5221TIP3    H237155   1.170   3.786   0.157 -1.3243 -1.0063 -2.2992
 5222TIP3   OH237156   3.794   2.121   0.047  0.7033  0.5908 -0.0531
 5222TIP3    H137157   3.752   2.075  -0.026 -1.2968  0.3773  1.1609
 5222TIP3    H237158   3.733   2.111   0.120  2.6552  0.7546  1.6917
 5223TIP3   OH237159   3.344   3.694   0.041  0.1309 -0.0465 -0.2397
 5223TIP3    H137160   3.418   3.727  -0.011 -0.3064  0.0742 -0.7943
 5223TIP3    H237161   3.373   3.608   0.071  0.4524 -0.0530 -0.5545
 5224TIP3   OH237162   4.594   6.274   1.474  0.2697  0.0356  0.3109
 5224TIP3    H137163   4.686   6.281   1.502  0.5886  1.3289 -0.9499
 5224TIP3    H237164   4.596   6.215   1.398  0.1454  0.5278 -0.0763
 5225TIP3   OH237165   0.295   3.735   5.778  0.4970  0.2265  0.7533
 5225TIP3    H137166   0.214   3.779   5.751  0.8207 -0.4702 -1.6613
 5225TIP3    H237167   0.357   3.806   5.795  0.1978  0.7512 -0.2692
 5226TIP3   OH237168   4.386   6.455  12.880 -0.3816  1.0168  0.2866
 5226TIP3    H137169   4.449   6.383  12.875  0.7163  2.0270 -1.5786
 5226TIP3    H237170   4.435   6.528  12.917 -1.1451  1.1623  1.0384
 5227TIP3   OH237171   0.965   2.711  13.136  0.4135 -0.1763  0.0886
 5227TIP3    H137172   0.920   2.655  13.199 -1.2136 -0.2072 -1.0267
 5227TIP3    H237173   1.056   2.711  13.164 -0.2044 -0.3809  2.2691
 5228TIP3   OH237174   4.644   4.366  15.649  0.1520  0.1273  0.8391
 5228TIP3    H137175   4.599   4.394  15.570  1.3915 -1.2406 -0.4003
 5228TIP3    H237176   4.623   4.434  15.714 -3.2317 -0.1978  0.2306
 5229TIP3   OH237177   6.417   4.073   5.751  0.0253 -0.6816  0.6547
 5229TIP3    H137178   6.419   4.167   5.770 -0.6073 -0.5692  0.2035
 5229TIP3    H237179   6.345   4.039   5.804 -0.5228 -0.6965 -0.0874
 5230TIP3   OH237180   2.273   1.495   1.153  0.0636 -0.1755  0.4283
 5230TIP3    H137181   2.228   1.449   1.083 -0.5396  0.0723  0.6483
 5230TIP3    H237182   2.261   1.439   1.230 -0.2703  0.1153  0.5908
 5231TIP3   OH237183   2.791   4.137   2.915  0.0834 -0.2011  0.2850
 5231TIP3    H137184   2.833   4.054   2.895  0.7757 -0.0688  1.1282
 5231TIP3    H237185   2.861   4.191   2.952 -0.3802  0.7209 -0.1335
 5232TIP3   OH237186   5.919   3.269  13.302 -0.1053  0.2815 -0.3086
 5232TIP3    H137187   5.979   3.236  13.235 -0.7269 -1.9834  0.1480
 5232TIP3    H237188   5.833   3.267  13.260 -0.1624  1.5935 -0.3103
 5233TIP3   OH237189   5.805   1.347   3.557  0.0646 -0.1138  0.0762
 5233TIP3    H137190   5.841   1.385   3.637 -0.0164  0.6083 -0.2278
 5233TIP3    H237191   5.863   1.378   3.487  0.7133 -1.5306 -0.0433
 5234TIP3   OH237192   2.523   4.283  11.509 -0.1488 -0.2810  0.2412
 5234TIP3    H137193   2.564   4.323  11.586 -0.0214  0.0946 -0.0195
 5234TIP3    H237194   2.525   4.189  11.528  0.3567 -0.2315  0.4650
 5235TIP3   OH237195   6.356   3.504   4.852 -0.0780  0.2175  0.7137
 5235TIP3    H137196   6.268   3.473   4.872  0.1059 -0.2879  0.7716
 5235TIP3    H237197   6.379   3.560   4.926 -0.0055 -0.3796  1.1551
 5236TIP3   OH237198   4.298   5.995  16.103 -0.1766 -0.7033  0.0428
 5236TIP3    H137199   4.218   5.956  16.068 -0.4472 -0.4221  0.3438
 5236TIP3    H237200   4.273   6.029  16.189 -0.5595  2.0867 -1.0438
 5237TIP3   OH237201   1.946   1.022   4.456  0.4774  0.7859 -0.4319
 5237TIP3    H137202   1.957   1.114   4.479  0.7629  0.2282  1.8455
 5237TIP3    H237203   2.032   0.983   4.471 -0.2370 -0.3080  1.0598
 5238TIP3   OH237204   3.959   0.646   2.034 -0.1089 -0.5156  0.0731
 5238TIP3    H137205   3.955   0.620   2.126  2.5565  0.3552  0.5456
 5238TIP3    H237206   4.008   0.729   2.035 -1.3710  0.3317 -2.0164
 5239TIP3   OH237207   3.573   4.731   0.666  0.2628  0.7973 -0.6466
 5239TIP3    H137208   3.598   4.823   0.665 -0.3113  0.9553 -1.5703
 5239TIP3    H237209   3.606   4.698   0.750 -0.3340  2.0651  0.1179
 5240TIP3   OH237210   2.887   2.692   0.126 -0.4185 -0.2812  0.5043
 5240TIP3    H137211   2.925   2.768   0.171  1.4310 -1.8632  1.7901
 5240TIP3    H237212   2.934   2.687   0.043  1.1517 -1.2941  1.4067
 5241TIP3   OH237213   0.246   0.446   3.862 -0.4195 -0.1967 -0.3652
 5241TIP3    H137214   0.273   0.439   3.771 -0.4516 -0.8332 -0.3285
 5241TIP3    H237215   0.324   0.478   3.908 -0.8468  1.6720 -0.8419
 5242TIP3   OH237216   0.899   3.328   5.618  0.1884  0.4112  0.0166
 5242TIP3    H137217   0.924   3.419   5.631 -0.8004  1.0188 -1.8732
 5242TIP3    H237218   0.809   3.323   5.649  0.0407  0.2560 -0.4175
 5243TIP3   OH237219   0.257   4.447   1.288  0.0647 -0.8135  0.0030
 5243TIP3    H137220   0.177   4.495   1.309 -0.2789  0.1731 -3.0932
 5243TIP3    H237221   0.232   4.355   1.291 -0.6117 -0.6193  1.0124
 5244TIP3   OH237222   4.442   3.074  15.233 -0.0175  0.1548 -0.1768
 5244TIP3    H137223   4.375   3.140  15.253  0.8119  1.3621 -1.2657
 5244TIP3    H237224   4.480   3.102  15.150  3.3024  0.7449  1.3671
 5245TIP3   OH237225   4.877   0.025   6.171  0.0577  0.6994 -0.0301
 5245TIP3    H137226   4.877   0.049   6.264  0.3608  0.4328  0.0375
 5245TIP3    H237227   4.929  -0.055   6.167 -1.5676 -0.3939 -0.1379
 5246TIP3   OH237228   2.943   4.301  16.681 -0.4873 -0.2143  0.2674
 5246TIP3    H137229   3.020   4.280  16.629 -1.3376 -0.9282 -0.7330
 5246TIP3    H237230   2.950   4.246  16.759 -0.1408 -0.4876  0.0425
 5247TIP3   OH237231   4.454   6.137   3.818  0.1201  0.2740  0.3322
 5247TIP3    H137232   4.416   6.113   3.903  1.1928  0.4238  0.8726
 5247TIP3    H237233   4.447   6.232   3.815  1.7554  0.4542  1.1086
 5248TIP3   OH237234   4.220   0.490  13.668 -0.4417 -0.6678  0.2527
 5248TIP3    H137235   4.278   0.463  13.740  1.3773  1.5306 -0.2792
 5248TIP3    H237236   4.231   0.422  13.602  1.5334 -0.3593  0.2014
 5249TIP3   OH237237   0.387   1.941  12.734  0.3735  0.4546  0.0587
 5249TIP3    H137238   0.303   1.904  12.709 -0.2467 -1.4710  4.1013
 5249TIP3    H237239   0.448   1.867  12.727  1.1018  1.0563 -0.0524
 5250TIP3   OH237240   6.684   5.186   4.001  0.7050 -0.0378 -0.0212
 5250TIP3    H137241   6.673   5.109   4.057  0.9893  0.2057  0.3695
 5250TIP3    H237242   6.606   5.239   4.018  0.8700  0.1137  0.2668
 5251TIP3   OH237243   0.941   3.885   0.900 -0.2472  0.0245  0.4875
 5251TIP3    H137244   0.913   3.977   0.900 -0.5358 -0.0255 -1.3952
 5251TIP3    H237245   0.866   3.837   0.866  0.0188 -0.8760  1.1377
 5252TIP3   OH237246   5.912   1.708  16.294  0.1577 -0.3362 -0.1610
 5252TIP3    H137247   5.894   1.793  16.254 -0.7358 -0.7954 -0.7845
 5252TIP3    H237248   5.844   1.650  16.258  0.9232 -1.3792  0.0146
 5253TIP3   OH237249   4.112   2.760  16.517 -0.6155 -0.1893 -0.3844
 5253TIP3    H137250   4.159   2.840  16.495  0.3322 -0.3523  0.9259
 5253TIP3    H237251   4.108   2.760  16.612 -0.2133 -1.9040 -0.3386
 5254TIP3   OH237252   2.898   1.367  16.269 -0.1745 -0.3323  0.0911
 5254TIP3    H137253   2.880   1.292  16.325 -0.0503 -0.4932 -0.0838
 5254TIP3    H237254   2.835   1.434  16.297  0.8635  0.1238  1.4293
 5255TIP3   OH237255   0.509   2.291   4.912 -0.1199 -0.0979  0.0235
 5255TIP3    H137256   0.506   2.385   4.930  1.4792  0.0762 -0.4354
 5255TIP3    H237257   0.563   2.284   4.833  0.1572 -1.4322  0.3088
 5256TIP3   OH237258   3.944   5.217   0.752 -0.2954  0.0227 -0.3350
 5256TIP3    H137259   4.028   5.172   0.758 -0.5100 -0.1862  1.8727
 5256TIP3    H237260   3.879   5.147   0.746 -0.5472 -0.0221  1.9893
 5257TIP3   OH237261   1.517   1.622   4.552 -0.3648 -0.4225  0.4467
 5257TIP3    H137262   1.519   1.542   4.604 -0.9928 -0.3170  0.6375
 5257TIP3    H237263   1.577   1.605   4.480  0.4863 -0.5847  1.1749
 5258TIP3   OH237264   2.945   3.766   0.478  0.2651 -0.4704  0.3077
 5258TIP3    H137265   2.919   3.716   0.401  1.7206  0.8770 -1.1478
 5258TIP3    H237266   2.958   3.700   0.546  0.7602 -1.9271 -1.1246
 5259TIP3   OH237267   2.034   5.937  17.009 -0.5596  0.2055  0.6514
 5259TIP3    H137268   2.046   6.028  17.038  0.7677 -0.2718  1.7017
 5259TIP3    H237269   2.073   5.885  17.079 -1.3271 -1.1847  0.0679
 5260TIP3   OH237270   3.263   5.000  11.812 -0.1515 -0.0280 -0.4427
 5260TIP3    H137271   3.252   4.945  11.735 -1.1716 -1.0775  0.4233
 5260TIP3    H237272   3.258   4.940  11.886  1.8367  0.8121  0.4340
 5261TIP3   OH237273   3.789   3.743   2.474  0.0132  0.0303  0.0756
 5261TIP3    H137274   3.800   3.711   2.385 -0.3853  0.1723 -0.0304
 5261TIP3    H237275   3.694   3.739   2.489  0.0711  0.0715  0.4674
 5262TIP3   OH237276   2.677   1.683  11.109  0.7153  0.1983 -0.0011
 5262TIP3    H137277   2.649   1.728  11.189  0.6273 -0.0539  0.1117
 5262TIP3    H237278   2.597   1.672  11.058  0.3338 -1.7211  0.9161
 5263TIP3   OH237279   5.586   4.363   5.247  0.0039 -0.4905 -0.4385
 5263TIP3    H137280   5.562   4.335   5.336 -0.3780 -0.9284 -0.6748
 5263TIP3    H237281   5.593   4.281   5.198  0.0761 -0.2393 -0.8443
 5264TIP3   OH237282   6.231   4.687   0.415  0.1488 -0.0812  0.9170
 5264TIP3    H137283   6.160   4.745   0.388  0.1830 -0.6702 -0.5787
 5264TIP3    H237284   6.196   4.638   0.489 -1.4354 -1.0888 -0.4270
 5265TIP3   OH237285   0.993   5.407   4.706 -0.0985  0.2326  0.0303
 5265TIP3    H137286   1.006   5.334   4.765 -1.6362  0.4131  0.6607
 5265TIP3    H237287   1.079   5.449   4.698  0.9612 -1.9717 -0.8630
 5266TIP3   OH237288   5.504   5.144   2.390 -0.2937  0.2562  1.0583
 5266TIP3    H137289   5.523   5.201   2.464  0.4383 -0.3214  1.3331
 5266TIP3    H237290   5.418   5.107   2.408 -1.1900  1.9042  0.4548
 5267TIP3   OH237291   6.688   0.177  11.126 -0.4089 -0.2143 -0.2443
 5267TIP3    H137292   6.671   0.095  11.172 -1.7827 -0.5898 -1.3560
 5267TIP3    H237293   6.680   0.156  11.034  1.0926  0.7955 -0.6514
 5268TIP3   OH237294   6.059   1.472  13.168  0.3536 -0.0218 -0.4669
 5268TIP3    H137295   6.050   1.430  13.254 -2.6907  2.1074  0.4290
 5268TIP3    H237296   6.113   1.549  13.184  0.6231 -0.1624 -0.6947
 5269TIP3   OH237297   2.950   0.394  12.948 -0.0440 -0.0020 -0.2946
 5269TIP3    H137298   2.868   0.443  12.957 -0.7414 -1.1015 -0.4958
 5269TIP3    H237299   3.017   0.462  12.943 -0.6067  0.9408  2.7670
 5270TIP3   OH237300   2.955   2.414   5.045 -0.2349 -0.2229  0.5968
 5270TIP3    H137301   2.957   2.489   5.105  0.9913 -1.0378  1.6335
 5270TIP3    H237302   2.989   2.341   5.096  1.4014 -0.8507 -1.2159
 5271TIP3   OH237303   0.754   3.813   5.537 -0.3904 -0.1058 -0.5782
 5271TIP3    H137304   0.672   3.790   5.493  0.3842  0.7909 -2.6495
 5271TIP3    H237305   0.737   3.898   5.577 -0.2868  0.4636 -1.6911
 5272TIP3   OH237306   2.449   0.238   5.904  0.2013 -0.2555 -0.5234
 5272TIP3    H137307   2.494   0.317   5.934 -2.8421  1.1265  0.8147
 5272TIP3    H237308   2.517   0.171   5.902  2.6132  2.0108 -0.2879
 5273TIP3   OH237309   5.240   0.510  13.970 -0.1596  0.0055  0.3851
 5273TIP3    H137310   5.145   0.508  13.953 -0.0596  1.0168 -0.3873
 5273TIP3    H237311   5.280   0.514  13.883  0.4838  2.4359  0.7327
 5274TIP3   OH237312   4.560   3.261  15.042 -0.5879  0.2495 -0.3083
 5274TIP3    H137313   4.593   3.346  15.070  1.2226 -0.4330 -0.2320
 5274TIP3    H237314   4.609   3.241  14.962 -0.2445 -1.1328  0.2050
 5275TIP3   OH237315   1.064   5.392  14.404  0.1961  0.4039 -0.1148
 5275TIP3    H137316   1.076   5.449  14.328  3.3948  1.4093  0.9965
 5275TIP3    H237317   0.973   5.407  14.432 -0.3766  1.5913 -2.4295
 5276TIP3   OH237318   0.836   4.265  14.278  0.3329  0.5937  0.4451
 5276TIP3    H137319   0.817   4.242  14.187  1.1703  1.0761  0.1427
 5276TIP3    H237320   0.878   4.188  14.315 -0.6163  0.1452  0.6350
 5277TIP3   OH237321   0.560   0.432   5.009  0.1742 -0.1725 -0.0732
 5277TIP3    H137322   0.614   0.391   4.941  1.2666 -0.4673  0.9497
 5277TIP3    H237323   0.483   0.376   5.017  1.5790 -2.0120  1.2102
 5278TIP3   OH237324   1.331   0.399   5.297  0.5315  0.6521 -0.4581
 5278TIP3    H137325   1.256   0.341   5.307  0.9704  0.1276 -0.1596
 5278TIP3    H237326   1.336   0.416   5.203 -0.5806  1.5375 -0.3759
 5279TIP3   OH237327   6.556   6.241   2.731  0.2017  0.3014 -0.1092
 5279TIP3    H137328   6.622   6.278   2.788 -0.0600 -0.0121  0.4087
 5279TIP3    H237329   6.475   6.285   2.755 -0.2399 -1.0136  0.9618
 5280TIP3   OH237330   4.964   4.999   2.474  0.2618  0.3111 -0.3749
 5280TIP3    H137331   4.947   4.971   2.384  0.2967  0.6880 -0.5031
 5280TIP3    H237332   4.906   5.074   2.487  1.1288  1.0231 -0.5050
 5281TIP3   OH237333   1.446   2.219   0.642 -0.6179  0.5972  0.3259
 5281TIP3    H137334   1.423   2.311   0.651 -0.6887  0.7974 -1.5778
 5281TIP3    H237335   1.540   2.215   0.658 -0.6491  0.9622  0.5963
 5282TIP3   OH237336   6.341   6.196  11.938  0.2117  0.3496 -0.2331
 5282TIP3    H137337   6.413   6.258  11.949  1.1978 -0.9166  0.6877
 5282TIP3    H237338   6.370   6.116  11.982 -1.4500 -0.4491 -0.4926
 5283TIP3   OH237339   6.838   5.964  12.010 -0.3922 -0.1650  0.2524
 5283TIP3    H137340   6.866   5.927  12.094 -0.0990  1.0541  0.7093
 5283TIP3    H237341   6.910   5.943  11.950  0.1713  0.3951  0.7129
 5284TIP3   OH237342   3.568   0.844  16.607  0.1073 -0.0314  0.4067
 5284TIP3    H137343   3.628   0.847  16.533  0.1651 -1.7146  0.3586
 5284TIP3    H237344   3.572   0.933  16.644  4.0917 -0.4891  1.5577
 5285TIP3   OH237345   5.556   3.567  12.945  0.2863  0.4567  0.4161
 5285TIP3    H137346   5.650   3.562  12.931  0.3409  2.3841 -0.2334
 5285TIP3    H237347   5.518   3.533  12.864  0.4605  1.1862  0.0192
 5286TIP3   OH237348   0.020   3.537   4.833  0.5219 -0.2098  0.2509
 5286TIP3    H137349   0.025   3.464   4.895  1.7793 -0.6374 -0.3358
 5286TIP3    H237350   0.010   3.615   4.889 -0.8944 -0.8098  0.8794
 5287TIP3   OH237351   4.148   3.509  14.230  0.2070  0.0335 -0.0504
 5287TIP3    H137352   4.091   3.433  14.242 -0.4518  0.5392  0.0974
 5287TIP3    H237353   4.128   3.567  14.304 -0.4989  1.0764 -1.0145
 5288TIP3   OH237354   0.929   4.789   4.164 -0.2468 -0.3440 -0.5265
 5288TIP3    H137355   0.882   4.780   4.247  1.4421  0.5637  0.5695
 5288TIP3    H237356   0.987   4.713   4.161 -0.2660 -0.3487 -0.8659
 5289TIP3   OH237357   5.666   6.001  15.365  0.4160  0.4098  0.5801
 5289TIP3    H137358   5.639   5.918  15.326  0.2139  0.4602  0.6097
 5289TIP3    H237359   5.603   6.065  15.331 -0.3485  0.2928  1.7306
 5290TIP3   OH237360   3.308   4.257   3.049  0.2799 -0.6922  1.1365
 5290TIP3    H137361   3.345   4.345   3.055  0.2842 -0.6554  0.5555
 5290TIP3    H237362   3.272   4.241   3.137 -1.2176  0.5389  0.7886
 5291TIP3   OH237363   5.023   5.305   4.041 -0.1065  0.2273  0.7908
 5291TIP3    H137364   5.050   5.397   4.040  2.8474 -0.5117  0.1608
 5291TIP3    H237365   4.928   5.307   4.032 -0.1859  3.2021  1.2475
 5292TIP3   OH237366   4.203   3.993   1.514  0.0372 -0.1548 -0.1380
 5292TIP3    H137367   4.282   4.035   1.547 -0.6604 -0.5705  2.2359
 5292TIP3    H237368   4.168   4.055   1.450  2.0893  0.1476 -1.0738
 5293TIP3   OH237369   6.324   2.885   2.122  0.1959  0.4740 -0.4958
 5293TIP3    H137370   6.239   2.901   2.163  0.0300 -0.4407 -0.4623
 5293TIP3    H237371   6.367   2.822   2.180  0.4324  0.0637 -1.1095
 5294TIP3   OH237372   0.567   3.225   1.814 -0.0369 -0.2558  0.6003
 5294TIP3    H137373   0.527   3.166   1.751 -1.2907  0.1063  1.0073
 5294TIP3    H237374   0.501   3.294   1.826  0.4361  0.0086  1.8140
 5295TIP3   OH237375   4.210   0.336   2.278 -0.4752  0.3235  0.0622
 5295TIP3    H137376   4.253   0.311   2.195  2.1331  0.9011  1.1265
 5295TIP3    H237377   4.220   0.431   2.282  0.4971  0.1936  1.5372
 5296TIP3   OH237378   5.544   0.462  16.460 -0.3697 -0.3455  1.1444
 5296TIP3    H137379   5.572   0.410  16.535  0.4860 -0.8390  0.4960
 5296TIP3    H237380   5.465   0.418  16.429 -0.0339 -0.8664  1.0170
 5297TIP3   OH237381   0.894   2.458   3.969 -0.1293 -0.8733  0.2721
 5297TIP3    H137382   0.875   2.367   3.993 -1.3337 -0.9277 -0.8198
 5297TIP3    H237383   0.825   2.482   3.908 -0.7466  1.2911  1.6965
 5298TIP3   OH237384   3.119   1.764  10.620 -0.4379  0.3802  0.1303
 5298TIP3    H137385   3.075   1.706  10.682  1.0135 -0.9553  0.0029
 5298TIP3    H237386   3.114   1.851  10.659 -0.2336 -0.3041  1.7465
 5299TIP3   OH237387   3.072   4.359   0.766 -0.0601  0.1718 -0.1143
 5299TIP3    H137388   3.150   4.327   0.813 -1.6715 -1.8845  1.3413
 5299TIP3    H237389   3.095   4.449   0.741  2.7469 -0.3392  0.2924
 5300TIP3   OH237390   3.899   5.868  16.250 -0.3108 -0.4671 -0.4082
 5300TIP3    H137391   3.903   5.952  16.203 -0.8492  0.8492  1.7120
 5300TIP3    H237392   3.989   5.849  16.273 -0.3448  0.5515  0.6788
 5301TIP3   OH237393   3.199   3.745   4.286  0.2103  0.7472  0.1168
 5301TIP3    H137394   3.243   3.761   4.370  0.7370  0.5550 -0.1207
 5301TIP3    H237395   3.215   3.825   4.235  4.2868 -0.9910 -1.7089
 5302TIP3   OH237396   6.558   3.202   2.940 -0.3413  0.1706  0.2797
 5302TIP3    H137397   6.594   3.208   2.852  0.9338 -1.2358  0.6597
 5302TIP3    H237398   6.629   3.165   2.992 -0.5594  2.2714  2.2289
 5303TIP3   OH237399   5.899   5.979  16.500  0.2984 -0.4619  0.2316
 5303TIP3    H137400   5.942   6.016  16.577 -1.4937  2.6814 -0.1165
 5303TIP3    H237401   5.947   6.014  16.425 -0.0236 -0.7454 -0.1146
 5304TIP3   OH237402   1.643   6.316   6.475  0.4960  0.0562  0.0463
 5304TIP3    H137403   1.561   6.280   6.508  0.5756  0.9208  1.2763
 5304TIP3    H237404   1.705   6.244   6.482 -0.1398 -0.6141 -0.9261
 5305TIP3   OH237405   5.825   5.496   2.924 -0.1408 -0.0618 -0.1761
 5305TIP3    H137406   5.799   5.531   3.009 -2.2479 -0.9303 -0.4097
 5305TIP3    H237407   5.794   5.561   2.861 -0.3309 -0.3484 -0.3809
 5306TIP3   OH237408   1.154   3.135   0.120  0.2262 -0.1785  0.1882
 5306TIP3    H137409   1.092   3.205   0.099  0.0469 -0.6272 -0.8516
 5306TIP3    H237410   1.227   3.149   0.061 -0.0508 -1.1755 -0.4075
 5307TIP3   OH237411   6.296   1.939   2.160 -1.1406  0.1325 -0.5075
 5307TIP3    H137412   6.380   1.937   2.207 -0.9885  1.4902 -0.6894
 5307TIP3    H237413   6.250   1.861   2.190  0.9010 -1.6514 -1.7705
 5308TIP3   OH237414   1.072   0.046   0.077 -0.0059  0.2985  0.1631
 5308TIP3    H137415   0.995   0.093   0.109 -1.6713 -2.3480  0.3418
 5308TIP3    H237416   1.128   0.036   0.154 -0.4212  0.5528  0.5015
 5309TIP3   OH237417   3.790   3.312  14.579 -0.0448 -0.1061 -0.1260
 5309TIP3    H137418   3.751   3.227  14.599 -2.8905  0.3649 -2.9661
 5309TIP3    H237419   3.733   3.375  14.623  1.9027  0.4940  1.7566
 5310TIP3   OH237420   4.620   4.332   6.603 -0.6510 -0.1633  0.0577
 5310TIP3    H137421   4.534   4.361   6.572 -1.0964  0.4003  1.6771
 5310TIP3    H237422   4.620   4.238   6.591 -0.6657  0.0443 -1.8592
 5311TIP3   OH237423   2.225   6.496  10.411 -0.5477 -0.8378  0.2227
 5311TIP3    H137424   2.260   6.553  10.342 -2.0036 -1.4407 -1.0917
 5311TIP3    H237425   2.297   6.437  10.432  0.4797  0.4748  0.4923
 5312TIP3   OH237426   5.008   1.487  16.740 -0.0766  0.2829  0.2918
 5312TIP3    H137427   4.967   1.408  16.776 -2.0687  0.9663 -0.3776
 5312TIP3    H237428   4.956   1.559  16.775  2.5329  1.4820  2.0055
 5313TIP3   OH237429   4.305   4.663   5.736 -0.3135 -0.5423  0.3967
 5313TIP3    H137430   4.257   4.581   5.742 -0.5220 -0.5634 -1.1860
 5313TIP3    H237431   4.376   4.646   5.674 -0.1218  0.3476  0.3545
 5314TIP3   OH237432   1.562   0.025   5.883  0.2314 -0.5244 -0.0933
 5314TIP3    H137433   1.586   0.095   5.944  0.7949 -0.7766 -0.0144
 5314TIP3    H237434   1.539   0.070   5.803 -0.0543 -0.2115  0.1639
 5315TIP3   OH237435   4.280   2.941   2.512 -0.4828 -0.7490 -0.0812
 5315TIP3    H137436   4.357   2.916   2.563 -0.1601  1.9384  0.9245
 5315TIP3    H237437   4.232   3.001   2.569 -2.5606 -1.1858 -1.2711
 5316TIP3   OH237438   0.260   6.460  15.300  0.1974  0.4199 -0.4188
 5316TIP3    H137439   0.287   6.372  15.273  0.2410  0.1831  0.3665
 5316TIP3    H237440   0.226   6.500  15.220 -0.2568 -0.4819 -0.6930
 5317TIP3   OH237441   3.472   0.293  11.842  0.1740 -0.1555  0.5319
 5317TIP3    H137442   3.384   0.264  11.866  0.0236 -0.1047  0.0589
 5317TIP3    H237443   3.529   0.219  11.864  0.4381  0.8125  3.4500
 5318TIP3   OH237444   1.560   6.074   1.443  0.4602  0.0332 -0.1489
 5318TIP3    H137445   1.530   6.164   1.426  1.1604  0.2577 -0.2459
 5318TIP3    H237446   1.616   6.053   1.368 -0.4171 -0.8263 -0.5805
 5319TIP3   OH237447   5.942   3.535   4.341 -0.2057  0.7052  0.2054
 5319TIP3    H137448   5.940   3.445   4.372  2.1331  0.5831  0.2034
 5319TIP3    H237449   5.856   3.570   4.363 -0.3971 -0.8702  2.2390
 5320TIP3   OH237450   6.253   6.714   4.534 -0.1001  0.6233 -0.2117
 5320TIP3    H137451   6.188   6.785   4.535 -0.4014  0.3628 -0.8931
 5320TIP3    H237452   6.335   6.757   4.506  0.6205  1.4211  2.8037
 5321TIP3   OH237453   3.331   5.189   4.185  0.0102 -0.5080  0.3943
 5321TIP3    H137454   3.238   5.180   4.208 -0.4977 -0.4159 -1.4991
 5321TIP3    H237455   3.377   5.164   4.266 -1.6357 -1.4163  1.1201
 5322TIP3   OH237456   1.265   4.161  13.904 -0.0319 -0.6561  0.0225
 5322TIP3    H137457   1.203   4.213  13.854  0.9182 -0.6400 -1.2019
 5322TIP3    H237458   1.241   4.175  13.996 -1.7264 -0.5565 -0.4035
 5323TIP3   OH237459   5.688   6.100  16.152  0.1579 -0.0039  0.2263
 5323TIP3    H137460   5.685   6.049  16.233 -1.3642 -1.5390 -0.7160
 5323TIP3    H237461   5.781   6.107  16.131  0.6499  1.3306  2.6014
 5324TIP3   OH237462   6.083   6.051   5.368  0.1512  0.1453  0.2017
 5324TIP3    H137463   6.071   5.972   5.315 -0.5204  0.9863 -0.9494
 5324TIP3    H237464   6.175   6.049   5.394  1.4532  1.2124 -3.6077
 5325TIP3   OH237465   2.555   5.323  11.854 -0.1168 -0.0527 -0.3862
 5325TIP3    H137466   2.583   5.402  11.809 -2.5839  1.3587  0.3334
 5325TIP3    H237467   2.562   5.344  11.947 -1.6567 -0.2719 -0.1872
 5326TIP3   OH237468   4.999   3.737  13.315  0.0851 -0.6535  0.0558
 5326TIP3    H137469   5.066   3.673  13.288  1.2637  0.7052 -0.3858
 5326TIP3    H237470   5.028   3.765  13.402  0.6531  0.6497 -0.5387
 5327TIP3   OH237471   4.620   4.184   4.116 -0.0971  0.7712 -0.2778
 5327TIP3    H137472   4.537   4.200   4.161 -0.6750 -3.5804  0.6205
 5327TIP3    H237473   4.598   4.123   4.046  2.5313 -2.9117  1.7747
 5328TIP3   OH237474   0.762   0.579  14.186 -0.1365  0.0352 -0.0880
 5328TIP3    H137475   0.669   0.587  14.205  0.2615  1.6874  1.5216
 5328TIP3    H237476   0.783   0.488  14.205 -1.1508 -0.0000  0.9898
 5329TIP3   OH237477   4.088   0.831   5.528 -0.3297  0.1617 -0.9271
 5329TIP3    H137478   4.064   0.913   5.485 -0.8551 -0.0244 -0.9996
 5329TIP3    H237479   4.041   0.764   5.480  0.8334 -0.2952 -1.4556
 5330TIP3   OH237480   6.594   5.377  15.712  0.3580 -0.1129 -0.4645
 5330TIP3    H137481   6.534   5.423  15.771  1.4022  1.7231 -0.7566
 5330TIP3    H237482   6.537   5.329  15.653 -0.7425 -2.8227  2.5173
 5331TIP3   OH237483   4.434   3.463   1.540  0.5955  0.3615 -0.2933
 5331TIP3    H137484   4.358   3.406   1.554  0.0920  0.7850 -1.1922
 5331TIP3    H237485   4.429   3.528   1.609  1.4624 -0.9504  1.0651
 5332TIP3   OH237486   0.304   5.196   2.932 -0.0054  0.0624 -0.5845
 5332TIP3    H137487   0.398   5.212   2.927 -0.1797  0.8131 -1.9033
 5332TIP3    H237488   0.264   5.270   2.886 -1.2109 -0.5661 -0.5925
 5333TIP3   OH237489   3.798   4.560  13.542  0.7018 -0.4382  0.0311
 5333TIP3    H137490   3.853   4.492  13.502 -0.4439 -0.1009 -2.3011
 5333TIP3    H237491   3.735   4.583  13.473  0.0436  1.8674  1.3094
 5334TIP3   OH237492   6.844   5.088  14.835 -0.0062 -0.1636 -0.3699
 5334TIP3    H137493   6.806   5.023  14.894  0.2622 -0.0381 -0.0552
 5334TIP3    H237494   6.864   5.040  14.756 -1.9622  0.0002 -1.0285
 5335TIP3   OH237495   4.897   0.519   4.928  0.4557 -0.7958 -0.0200
 5335TIP3    H137496   4.817   0.492   4.882  1.4933 -1.1790 -1.7019
 5335TIP3    H237497   4.937   0.584   4.870  2.0456 -1.6355  0.0813
 5336TIP3   OH237498   0.948   2.353   2.563 -0.5207 -0.1260  0.2270
 5336TIP3    H137499   0.928   2.262   2.584  2.5633 -1.4900 -2.0458
 5336TIP3    H237500   0.945   2.357   2.467  0.6044  1.8452  0.2186
 5337TIP3   OH237501   1.332   3.259  14.072 -0.0679 -0.1312  0.5755
 5337TIP3    H137502   1.376   3.178  14.049 -0.5655 -0.1880 -0.2105
 5337TIP3    H237503   1.251   3.232  14.115 -0.9942 -0.0994 -1.0876
 5338TIP3   OH237504   6.141   5.024   1.592  0.2475  0.2088 -0.2759
 5338TIP3    H137505   6.080   5.096   1.605  0.0151 -0.3045  1.9477
 5338TIP3    H237506   6.086   4.945   1.597  0.7259 -0.1906 -1.0411
 5339TIP3   OH237507   1.465   1.616  13.808 -0.4758 -0.1645  0.1776
 5339TIP3    H137508   1.505   1.688  13.760  0.3095  0.5524  1.8292
 5339TIP3    H237509   1.503   1.537  13.769 -0.5587  0.3298 -0.9496
 5340TIP3   OH237510   5.050   5.921  16.185  0.7384  0.0978 -0.0986
 5340TIP3    H137511   5.056   5.974  16.105  1.3499 -2.0781 -1.5978
 5340TIP3    H237512   5.097   5.972  16.251  0.2158  1.9787 -1.1084
 5341TIP3   OH237513   6.224   3.925   0.339  0.0227 -0.3710  1.1000
 5341TIP3    H137514   6.301   3.873   0.317  0.2788  0.4435 -0.0395
 5341TIP3    H237515   6.161   3.862   0.374 -0.3656 -1.8369 -1.9125
 5342TIP3   OH237516   1.689   6.393   3.234 -0.2221  0.3565  0.3629
 5342TIP3    H137517   1.623   6.425   3.172 -1.5871 -2.1204  0.3858
 5342TIP3    H237518   1.638   6.345   3.300  1.5347 -0.6889  1.0189
 5343TIP3   OH237519   4.658   0.101   5.001 -0.1173  0.0671 -0.5108
 5343TIP3    H137520   4.729   0.135   4.947 -0.0869 -0.5025 -0.8304
 5343TIP3    H237521   4.629   0.022   4.956  0.4662 -0.8810  0.7594
 5344TIP3   OH237522   6.680   6.149  12.989  0.1370 -0.5439  0.0145
 5344TIP3    H137523   6.625   6.149  12.910 -0.9975 -1.0578  0.7657
 5344TIP3    H237524   6.678   6.058  13.019  1.8166 -0.6745 -0.1803
 5345TIP3   OH237525   6.248   2.289  12.043 -0.2611 -0.0447 -0.2043
 5345TIP3    H137526   6.309   2.290  12.117  0.9905 -2.0764 -1.1233
 5345TIP3    H237527   6.196   2.369  12.054  2.8867  2.1293  0.3472
 5346TIP3   OH237528   1.423   5.841   4.399  0.4330 -0.0697 -0.6292
 5346TIP3    H137529   1.475   5.776   4.351 -1.3042 -1.7815 -0.3174
 5346TIP3    H237530   1.400   5.907   4.334 -0.9428 -1.7674 -1.9708
 5347TIP3   OH237531   6.682   5.560   0.781 -0.4649  0.2429 -0.1143
 5347TIP3    H137532   6.701   5.474   0.818 -0.5139  0.5770  0.6984
 5347TIP3    H237533   6.687   5.620   0.855 -0.2741  0.9672 -0.6986
 5348TIP3   OH237534   4.760   1.731   0.933 -0.3747 -0.1641  0.1357
 5348TIP3    H137535   4.834   1.725   0.873  0.1861 -1.0096  0.8822
 5348TIP3    H237536   4.685   1.751   0.877  0.0397 -1.4333 -0.9151
 5349TIP3   OH237537   0.884   4.018   1.520  0.1756 -0.1767 -0.1785
 5349TIP3    H137538   0.964   4.019   1.467  0.2524 -3.0306 -0.3084
 5349TIP3    H237539   0.915   4.016   1.610  0.2873 -1.1290 -0.2255
 5350TIP3   OH237540   3.891   4.531   2.545  0.8047  0.2759 -0.1479
 5350TIP3    H137541   3.925   4.587   2.476  1.3439 -0.8086 -0.7943
 5350TIP3    H237542   3.803   4.565   2.562  1.1860  1.4121 -0.3867
 5351TIP3   OH237543   0.816   6.026  11.162  0.2060 -0.2846  0.0448
 5351TIP3    H137544   0.768   5.971  11.100 -1.9576  2.0365 -0.4725
 5351TIP3    H237545   0.757   6.034  11.237  1.5057 -0.5505  1.1381
 5352TIP3   OH237546   2.699   3.212  14.214 -0.0108 -0.1492 -0.1009
 5352TIP3    H137547   2.698   3.119  14.192  0.1950 -0.1266 -0.2037
 5352TIP3    H237548   2.765   3.221  14.282 -0.5356 -0.1935  0.4231
 5353TIP3   OH237549   5.833   4.595  13.363  0.1758 -0.7610  0.1998
 5353TIP3    H137550   5.850   4.552  13.280 -0.9815 -2.1954  0.6632
 5353TIP3    H237551   5.748   4.638  13.351  1.3621  1.6491 -0.3038
 5354TIP3   OH237552   3.719   0.010   5.213 -0.0421  0.3858 -0.0543
 5354TIP3    H137553   3.746   0.026   5.303 -0.6488 -0.0245  0.2078
 5354TIP3    H237554   3.758  -0.075   5.191  1.1519  1.0480 -0.6193
 5355TIP3   OH237555   2.118   2.476  11.206  0.3018 -0.4832  0.3880
 5355TIP3    H137556   2.157   2.478  11.293  0.0751  0.7990  0.4850
 5355TIP3    H237557   2.091   2.385  11.194 -1.1355 -0.3677  2.3189
 5356TIP3   OH237558   2.054   1.589  14.984  0.1129  0.0774  0.0975
 5356TIP3    H137559   2.109   1.597  15.062 -0.4437  1.4183  0.3758
 5356TIP3    H237560   2.106   1.537  14.923  0.1825 -1.8542  1.6841
 5357TIP3   OH237561   3.219   0.034   2.892  0.2843 -0.1690 -0.2589
 5357TIP3    H137562   3.311   0.008   2.894  0.2937 -0.4910 -2.6254
 5357TIP3    H237563   3.171  -0.049   2.901  0.2964 -0.4800 -2.4900
 5358TIP3   OH237564   0.878   1.346  13.181 -0.0085  0.5622  0.0095
 5358TIP3    H137565   0.947   1.405  13.210  1.6585 -0.0035 -2.4843
 5358TIP3    H237566   0.907   1.259  13.207  0.9264  0.1849 -2.0643
 5359TIP3   OH237567   3.958   3.253  13.900  0.6490  0.2212  0.6358
 5359TIP3    H137568   3.889   3.216  13.844  0.3029  0.2128  1.0598
 5359TIP3    H237569   3.910   3.306  13.964  1.1394  1.6615 -0.1355
 5360TIP3   OH237570   4.156   2.727   2.422  1.1381  0.3457 -0.1071
 5360TIP3    H137571   4.093   2.773   2.367  0.3596  0.2227  0.6503
 5360TIP3    H237572   4.212   2.796   2.457 -0.0081  0.7524  1.0067
 5361TIP3   OH237573   5.711   6.052   6.021 -0.0436 -0.5255  0.7089
 5361TIP3    H137574   5.778   6.121   6.023  0.0403 -0.5806  0.0456
 5361TIP3    H237575   5.751   5.981   5.971 -0.3400 -0.8434  0.9176
 5362TIP3   OH237576   4.008   0.304  15.876 -0.2702 -0.0405  0.0048
 5362TIP3    H137577   4.013   0.379  15.816 -0.1792  0.1551  0.2533
 5362TIP3    H237578   3.922   0.313  15.917 -0.4563 -0.3430 -0.3109
 5363TIP3   OH237579   4.008   6.411   3.936  0.4095  0.1045 -0.0218
 5363TIP3    H137580   4.005   6.505   3.916 -1.8257 -0.0798 -0.8994
 5363TIP3    H237581   4.099   6.394   3.960  0.9642  2.4045 -0.2683
 5364TIP3   OH237582   3.957   0.881  13.655 -0.6279  0.5998 -0.1815
 5364TIP3    H137583   3.963   0.977  13.652  0.8868  0.6185  1.5915
 5364TIP3    H237584   3.925   0.861  13.743  0.7168 -0.5376  0.0868
 5365TIP3   OH237585   2.150   0.214  13.651  0.2823  0.4442 -0.6612
 5365TIP3    H137586   2.155   0.128  13.609 -0.8358  0.2471 -0.4318
 5365TIP3    H237587   2.068   0.211  13.701  1.8416  0.4170  2.0893
 5366TIP3   OH237588   1.630   4.522   4.983 -0.0607  0.5158 -0.3849
 5366TIP3    H137589   1.541   4.511   5.016  0.5429  2.1515  2.0573
 5366TIP3    H237590   1.655   4.436   4.950 -2.1636 -0.2195 -0.1647
 5367TIP3   OH237591   1.166   6.161  12.531  0.2644 -0.1699  0.2202
 5367TIP3    H137592   1.086   6.195  12.571  0.3571 -1.5804  1.6802
 5367TIP3    H237593   1.139   6.135  12.443 -0.7052  0.0550  0.4353
 5368TIP3   OH237594   0.105   2.338  16.961  0.1236  0.2374 -0.0500
 5368TIP3    H137595   0.138   2.388  16.886  1.0903  0.6188  0.6114
 5368TIP3    H237596   0.023   2.382  16.986  0.6787  1.1642  0.1756
 5369TIP3   OH237597   1.537   2.572   4.957  0.0199 -0.0748  0.6062
 5369TIP3    H137598   1.441   2.567   4.954 -0.0297  0.9411  0.2713
 5369TIP3    H237599   1.564   2.485   4.987 -0.8643 -1.2760 -1.7821
 5370TIP3   OH237600   1.746   3.888  16.352  0.3441 -0.1377  0.1809
 5370TIP3    H137601   1.777   3.976  16.330 -0.9729 -0.0444 -1.5482
 5370TIP3    H237602   1.682   3.901  16.422 -0.8848  0.5147 -0.9978
 5371TIP3   OH237603   0.984   5.707  15.768 -0.2881 -0.4299 -0.5039
 5371TIP3    H137604   0.986   5.676  15.677  0.5324 -1.1255 -0.2636
 5371TIP3    H237605   1.035   5.788  15.767  1.6655 -1.6007 -0.2795
 5372TIP3   OH237606   6.515   4.657  14.384 -0.3822 -0.0366  0.0218
 5372TIP3    H137607   6.606   4.685  14.395 -0.6310  1.3837 -1.2210
 5372TIP3    H237608   6.501   4.593  14.454  1.1222  0.7850  1.1324
 5373TIP3   OH237609   4.114   5.487  13.959  0.3202  0.2885  0.4829
 5373TIP3    H137610   4.117   5.513  14.051 -0.9278  0.6245  0.4526
 5373TIP3    H237611   4.144   5.397  13.958  0.9263  0.4754  1.1342
 5374TIP3   OH237612   5.583   0.361  11.116  0.8044  0.1235  0.1375
 5374TIP3    H137613   5.642   0.325  11.183  1.0609 -0.8585 -0.5897
 5374TIP3    H237614   5.641   0.414  11.061  0.6034  0.8854  0.6412
 5375TIP3   OH237615   3.153   6.758  12.922  0.1796 -0.3055 -0.1579
 5375TIP3    H137616   3.167   6.851  12.901 -0.5927 -0.0169  0.5633
 5375TIP3    H237617   3.236   6.729  12.959  0.1562  0.3221  0.3935
 5376TIP3   OH237618   2.793   6.601   1.476  0.4342 -0.0007 -0.3060
 5376TIP3    H137619   2.817   6.575   1.387  0.0302 -0.1421 -0.3755
 5376TIP3    H237620   2.728   6.670   1.465 -0.7953 -1.0886 -0.1430
 5377TIP3   OH237621   0.836   0.699   3.818 -0.1940  0.0668  0.0278
 5377TIP3    H137622   0.836   0.637   3.891 -1.1061 -0.4696 -0.4142
 5377TIP3    H237623   0.896   0.768   3.846  0.0429 -0.4954  0.9689
 5378TIP3   OH237624   2.081   1.005   1.221  0.5926 -0.1477  0.1981
 5378TIP3    H137625   2.086   0.925   1.273  1.0564  1.1451  2.2662
 5378TIP3    H237626   2.141   1.066   1.264 -0.8229  1.7959 -0.4194
 5379TIP3   OH237627   4.047   4.250  15.586  0.0897 -0.1764 -0.3136
 5379TIP3    H137628   4.075   4.309  15.517 -0.1088 -0.7184 -0.8656
 5379TIP3    H237629   3.963   4.286  15.616 -0.3442 -0.5293 -1.0858
 5380TIP3   OH237630   3.396   1.578  11.552 -0.3679  0.0364  0.1389
 5380TIP3    H137631   3.334   1.526  11.501 -0.9702 -0.0803  0.9844
 5380TIP3    H237632   3.482   1.546  11.523 -0.7206 -1.8357  1.0323
 5381TIP3   OH237633   4.318   1.255   4.736 -0.1307  0.2679  0.2044
 5381TIP3    H137634   4.404   1.296   4.734 -0.9286  2.0208  0.2512
 5381TIP3    H237635   4.259   1.322   4.702 -1.7170 -0.2779  1.7455
 5382TIP3   OH237636   6.663   3.604   0.535 -0.1547 -0.3564 -0.0164
 5382TIP3    H137637   6.721   3.531   0.512 -1.5021 -1.0495 -1.3766
 5382TIP3    H237638   6.629   3.580   0.621  2.5354  0.7383  1.4858
 5383TIP3   OH237639   4.856   1.546  14.112  0.0079  0.2356  0.5409
 5383TIP3    H137640   4.940   1.526  14.151  0.1289 -0.8015 -0.2093
 5383TIP3    H237641   4.792   1.501  14.167  0.3498 -3.5669 -1.7855
 5384TIP3   OH237642   0.947   3.708  16.572  0.3615  0.4511  0.7321
 5384TIP3    H137643   0.883   3.774  16.598 -0.9219 -0.7995  0.8656
 5384TIP3    H237644   1.012   3.756  16.520 -1.8506  1.4309 -1.3296
 5385TIP3   OH237645   1.095   3.913  16.936  0.1036 -0.3393  0.1588
 5385TIP3    H137646   1.111   3.946  17.025 -1.0830  1.3658 -0.2032
 5385TIP3    H237647   1.152   3.966  16.880 -0.7757  0.1482 -0.3006
 5386TIP3   OH237648   0.658   0.097  15.651  0.0006 -0.2927  0.1569
 5386TIP3    H137649   0.687   0.015  15.691 -0.1614  0.0314  0.9594
 5386TIP3    H237650   0.640   0.074  15.560  0.6541 -0.9810  0.1931
 5387TIP3   OH237651   6.104   4.140   4.098 -0.2134  0.2495  0.1132
 5387TIP3    H137652   6.147   4.116   4.180 -0.2938 -0.6218 -0.0900
 5387TIP3    H237653   6.145   4.222   4.073 -0.9104  1.0772  1.5566
 5388TIP3   OH237654   3.367   2.906  16.959  0.4799 -0.3331 -0.0757
 5388TIP3    H137655   3.322   2.879  16.880  0.9147 -0.0693 -0.4183
 5388TIP3    H237656   3.360   3.001  16.960 -1.1983 -0.4340  1.2203
 5389TIP3   OH237657   2.588   2.476   0.118  0.0091 -1.1292  0.2260
 5389TIP3    H137658   2.550   2.519   0.042  0.2243  0.3453  0.9152
 5389TIP3    H237659   2.656   2.537   0.149 -2.4184  0.1326  3.6979
 5390TIP3   OH237660   2.510   0.449  14.263  0.2503  0.2589  0.2592
 5390TIP3    H137661   2.563   0.378  14.226 -0.4734  0.2669 -0.8389
 5390TIP3    H237662   2.573   0.517  14.286  0.6823  0.6323 -1.8445
 5391TIP3   OH237663   6.378   3.984  16.083 -0.3846 -0.2360 -0.4349
 5391TIP3    H137664   6.463   3.969  16.040 -0.1118  0.1760 -0.0550
 5391TIP3    H237665   6.329   3.904  16.067  0.4890 -0.9477  0.2904
 5392TIP3   OH237666   0.913   1.815   6.518  0.5486 -0.6670  0.0926
 5392TIP3    H137667   0.946   1.825   6.429  2.3207 -0.1737  0.7536
 5392TIP3    H237668   0.849   1.885   6.528  1.7462  0.5250 -0.2168
 5393TIP3   OH237669   2.167   5.454   2.832 -0.2106  0.0542  0.8361
 5393TIP3    H137670   2.178   5.477   2.925  2.8924  0.3839  0.5056
 5393TIP3    H237671   2.172   5.537   2.786 -1.3273 -0.1518  0.3121
 5394TIP3   OH237672   6.285   3.773   1.092  0.2367 -0.1466 -0.3105
 5394TIP3    H137673   6.259   3.829   1.165 -1.4026  1.1131 -1.7470
 5394TIP3    H237674   6.359   3.818   1.052 -0.9446  0.9634 -1.3347
 5395TIP3   OH237675   0.655   0.761  11.384 -0.0873  0.0929  0.0044
 5395TIP3    H137676   0.681   0.698  11.317  0.1594  0.2367 -0.0389
 5395TIP3    H237677   0.683   0.846  11.349  1.3657  0.0242  0.9357
 5396TIP3   OH237678   3.339   6.309  16.670  0.3481  0.2614  0.2551
 5396TIP3    H137679   3.378   6.336  16.587 -0.8913  0.0138 -0.4397
 5396TIP3    H237680   3.322   6.391  16.717 -1.2089  0.5965 -0.8222
 5397TIP3   OH237681   6.714   1.414   4.547 -0.6500 -0.3322 -0.6721
 5397TIP3    H137682   6.773   1.349   4.586 -0.1250  0.7864  0.4550
 5397TIP3    H237683   6.749   1.498   4.574 -1.1202  0.4675 -2.3942
 5398TIP3   OH237684   6.703   5.427   0.241  0.5494 -0.0199  0.2065
 5398TIP3    H137685   6.782   5.479   0.255  1.3396 -1.7532  3.3021
 5398TIP3    H237686   6.735   5.337   0.234 -1.0913 -0.7923  1.7525
 5399TIP3   OH237687   0.525   1.085  14.193  0.1226  0.1700 -0.5890
 5399TIP3    H137688   0.465   1.129  14.133  0.3101  1.7545  0.3519
 5399TIP3    H237689   0.584   1.036  14.135 -1.1056 -0.1961 -1.5857
 5400TIP3   OH237690   6.747   2.741  12.883 -0.1866  0.3411  0.6418
 5400TIP3    H137691   6.841   2.759  12.879 -0.4150  1.6077  0.5091
 5400TIP3    H237692   6.709   2.797  12.816 -0.9839 -0.6562  0.2348
 5401TIP3   OH237693   4.318   3.564   0.028 -0.4227  0.0913 -0.1951
 5401TIP3    H137694   4.263   3.490   0.053  0.2316 -0.2718  0.2213
 5401TIP3    H237695   4.360   3.591   0.110  1.8764 -1.2172 -0.8313
 5402TIP3   OH237696   2.548   3.450   3.349  0.0434 -0.0744  0.2993
 5402TIP3    H137697   2.641   3.433   3.363  0.3137  0.9902 -0.0869
 5402TIP3    H237698   2.516   3.481   3.433 -0.4244 -2.2249  0.9724
 5403TIP3   OH237699   6.577   5.560   4.485  0.4063 -0.2345  0.2452
 5403TIP3    H137700   6.522   5.625   4.442  1.2247  0.0232 -0.4531
 5403TIP3    H237701   6.591   5.595   4.574 -0.7804 -0.4619  0.5393
 5404TIP3   OH237702   4.514   5.788  12.247  0.7929 -0.1116 -0.5663
 5404TIP3    H137703   4.439   5.730  12.264  0.2697  0.4822 -0.8165
 5404TIP3    H237704   4.486   5.841  12.172  0.6869  1.4397  0.5306
 5405TIP3   OH237705   4.647   1.980   2.292  0.2697  0.7252 -0.1861
 5405TIP3    H137706   4.552   1.967   2.289  0.4215 -0.9293  0.8969
 5405TIP3    H237707   4.679   1.941   2.212  0.0775  0.9934 -0.3978
 5406TIP3   OH237708   2.203   0.953   0.044 -0.6054  0.1846  0.1574
 5406TIP3    H137709   2.234   0.979   0.131 -1.1540  0.4625  0.2720
 5406TIP3    H237710   2.109   0.940   0.055 -1.0563  2.2229 -0.8617
 5407TIP3   OH237711   4.181   1.496   2.588 -1.1511 -0.0899  0.5675
 5407TIP3    H137712   4.127   1.571   2.564 -0.5566  0.5289  1.1456
 5407TIP3    H237713   4.255   1.500   2.527  0.3373  1.4540  2.3630
 5408TIP3   OH237714   5.692   0.529  14.565 -0.1940  0.0723 -0.5950
 5408TIP3    H137715   5.646   0.491  14.640 -0.8854  0.4017 -0.8442
 5408TIP3    H237716   5.626   0.531  14.495  0.1694  0.6313 -0.9303
 5409TIP3   OH237717   4.521   3.184   1.556  0.1710 -0.8722  0.1302
 5409TIP3    H137718   4.458   3.148   1.618  0.6429 -2.0803 -0.0671
 5409TIP3    H237719   4.527   3.277   1.579 -2.0681 -0.6071 -0.1935
 5410TIP3   OH237720   2.590   6.642  11.387  0.7183 -0.1803  0.8730
 5410TIP3    H137721   2.496   6.638  11.373  0.5307  0.6737  1.8173
 5410TIP3    H237722   2.601   6.679  11.474  1.9329  1.4190  0.1167
 5411TIP3   OH237723   2.068   4.914  13.929 -0.0222  0.3733  0.3765
 5411TIP3    H137724   2.103   4.963  13.854 -0.2647 -2.6948 -1.9499
 5411TIP3    H237725   2.008   4.974  13.971  0.2244  2.2994 -1.8379
 5412TIP3   OH237726   3.201   2.504  12.808  0.1588 -0.0751 -0.4785
 5412TIP3    H137727   3.167   2.551  12.731 -1.3536  0.7912  0.6630
 5412TIP3    H237728   3.236   2.572  12.864  2.4649 -0.8229 -0.9077
 5413TIP3   OH237729   2.369   0.531   1.271  0.2006 -0.6249  0.2453
 5413TIP3    H137730   2.368   0.575   1.186  0.3041  1.7953  1.4211
 5413TIP3    H237731   2.458   0.499   1.281  0.5367  0.2308  0.0115
 5414TIP3   OH237732   6.776   0.569   4.463 -0.2198  0.3312  0.0995
 5414TIP3    H137733   6.846   0.507   4.481 -0.5652 -0.1685 -0.2578
 5414TIP3    H237734   6.810   0.623   4.391 -0.1462  0.1919  0.0304
 5415TIP3   OH237735   2.878   0.640  12.166  0.0548  0.1840 -0.1378
 5415TIP3    H137736   2.903   0.567  12.110  0.2129 -0.0750  0.2656
 5415TIP3    H237737   2.960   0.687  12.181 -0.1926  0.9860 -1.1461
 5416TIP3   OH237738   5.007   2.425  10.516 -0.1766  0.1808 -0.4520
 5416TIP3    H137739   5.101   2.441  10.502 -0.4054  1.7811 -0.3207
 5416TIP3    H237740   4.984   2.359  10.451  0.5706  1.4365 -2.0438
 5417TIP3   OH237741   5.294   1.596  12.494 -0.1912  0.3454 -0.7692
 5417TIP3    H137742   5.357   1.547  12.546  0.0854 -0.8938 -2.2029
 5417TIP3    H237743   5.332   1.599  12.406 -0.2053  3.1621 -0.7709
 5418TIP3   OH237744   0.181   5.604   0.151 -0.0632  0.2476  0.1058
 5418TIP3    H137745   0.242   5.549   0.102 -0.0028 -1.3145  1.7772
 5418TIP3    H237746   0.098   5.597   0.104  0.3328 -0.0366 -0.5521
 5419TIP3   OH237747   1.685   1.883   1.722  0.3816  0.0071  0.2869
 5419TIP3    H137748   1.626   1.807   1.724  1.3547 -0.8445 -1.4004
 5419TIP3    H237749   1.773   1.845   1.724  0.8828  1.0666 -0.5750
 5420TIP3   OH237750   3.606   5.687  14.130  0.0618 -0.1876  0.0318
 5420TIP3    H137751   3.677   5.669  14.191  1.2676  0.8147 -1.0198
 5420TIP3    H237752   3.533   5.715  14.186  0.3644 -1.5104  1.1472
 5421TIP3   OH237753   1.675   4.733   2.648 -0.1214  0.6798  0.1885
 5421TIP3    H137754   1.640   4.809   2.693 -0.1381  0.9548 -0.2855
 5421TIP3    H237755   1.642   4.658   2.698 -0.6276  0.9629  0.2825
 5422TIP3   OH237756   5.934   2.413  14.646  0.3425  0.1051  0.0858
 5422TIP3    H137757   5.958   2.505  14.640 -0.8657  0.5488  1.4830
 5422TIP3    H237758   5.850   2.407  14.600  0.9127 -0.5435 -0.9301
 5423TIP3   OH237759   0.155   1.239  10.796 -0.4648  0.1034 -0.2674
 5423TIP3    H137760   0.183   1.280  10.714 -0.5091  0.8119  0.0652
 5423TIP3    H237761   0.069   1.201  10.776 -0.3127 -0.0522 -0.6455
 5424TIP3   OH237762   0.685   0.684  11.803 -0.2273 -0.2723 -0.2195
 5424TIP3    H137763   0.667   0.609  11.860  1.0478  0.0025  0.5897
 5424TIP3    H237764   0.678   0.760  11.861  0.0159  0.1044 -0.6820
 5425TIP3   OH237765   0.285   2.025  12.278 -0.0522  0.5115  0.7690
 5425TIP3    H137766   0.315   1.934  12.275  0.0020  0.5520 -0.5036
 5425TIP3    H237767   0.358   2.076  12.242 -0.3319  0.9958  0.8750
 5426TIP3   OH237768   0.130   2.651   1.785 -0.5110 -0.0168 -0.3609
 5426TIP3    H137769   0.061   2.606   1.833 -0.6762 -0.1761 -0.7419
 5426TIP3    H237770   0.091   2.735   1.761 -0.5511 -0.0791 -0.5172
 5427TIP3   OH237771   4.284   1.791  13.302  0.0786  1.1688 -0.1541
 5427TIP3    H137772   4.289   1.841  13.384 -2.9038  0.1544  0.8066
 5427TIP3    H237773   4.318   1.705  13.325  0.4013  1.2516 -0.3287
 5428TIP3   OH237774   5.987   4.714   5.919  0.6879  0.2989 -0.3846
 5428TIP3    H137775   5.950   4.703   6.006  1.3375  2.5571  0.2366
 5428TIP3    H237776   5.956   4.799   5.889  1.9423  0.3734 -1.5990
 5429TIP3   OH237777   4.081   6.809   0.563  0.2691  0.0533  0.1582
 5429TIP3    H137778   4.149   6.784   0.626 -0.0538  0.9169  0.8659
 5429TIP3    H237779   4.103   6.760   0.484  0.9660 -0.6787  0.7857
 5430TIP3   OH237780   3.543   6.037   5.573 -0.4373 -0.0472 -0.3792
 5430TIP3    H137781   3.533   5.956   5.523  0.1274  0.3246 -1.1136
 5430TIP3    H237782   3.638   6.049   5.580 -0.5087  0.0437  0.5734
 5431TIP3   OH237783   4.868   5.990  12.486 -0.2854  0.1013 -0.7249
 5431TIP3    H137784   4.869   6.073  12.533  1.2228  1.0537 -2.3321
 5431TIP3    H237785   4.776   5.973  12.469 -0.5467  3.1914 -3.2229
 5432TIP3   OH237786   3.149   4.101   2.879 -0.1342 -0.5149 -0.5882
 5432TIP3    H137787   3.191   4.079   2.795  0.7449 -0.4859 -0.1621
 5432TIP3    H237788   3.203   4.170   2.915 -0.7362 -0.2603 -0.1643
 5433TIP3   OH237789   4.426   4.580   4.647 -0.0528  0.0307 -0.1864
 5433TIP3    H137790   4.368   4.650   4.677 -2.2985 -0.3791 -3.0860
 5433TIP3    H237791   4.504   4.624   4.615 -0.3041  0.9719  0.4769
 5434TIP3   OH237792   6.065   0.824   2.134  0.0535 -0.3685  0.2154
 5434TIP3    H137793   6.028   0.863   2.213 -2.6939 -0.8801 -0.7110
 5434TIP3    H237794   5.994   0.829   2.070  2.0967 -0.1883 -2.1764
 5435TIP3   OH237795   5.289   5.048  13.563 -0.3438  0.8651 -0.5060
 5435TIP3    H137796   5.230   5.114  13.528  1.8654  2.1721 -2.0049
 5435TIP3    H237797   5.351   5.097  13.618  1.4693  0.1500 -1.8171
 5436TIP3   OH237798   5.429   0.939  11.630  0.5603  0.4111  0.1647
 5436TIP3    H137799   5.388   0.987  11.702  0.0724  0.6050 -0.2320
 5436TIP3    H237800   5.363   0.940  11.560  0.7630 -0.3565 -0.0463
 5437TIP3   OH237801   5.014   3.306   5.355 -0.7442  0.0437 -0.5194
 5437TIP3    H137802   4.972   3.222   5.339 -1.7180  0.5704 -0.8266
 5437TIP3    H237803   4.946   3.371   5.335 -0.5395  0.8656  1.2311
 5438TIP3   OH237804   3.450   0.446  12.383 -0.4745  0.4918  0.3771
 5438TIP3    H137805   3.438   0.400  12.300  0.3923  0.8574  0.0354
 5438TIP3    H237806   3.490   0.530  12.359 -2.6311  1.7703  0.9094
 5439TIP3   OH237807   2.538   1.838   3.949 -0.6463 -0.0622  0.6112
 5439TIP3    H137808   2.451   1.810   3.920 -0.8783 -0.0473  1.2746
 5439TIP3    H237809   2.535   1.831   4.044  0.3859 -0.9332  0.5906
 5440TIP3   OH237810   4.703   4.098   1.377 -0.3746  0.2336 -0.2824
 5440TIP3    H137811   4.741   4.051   1.303 -0.7095  2.0435 -1.6892
 5440TIP3    H237812   4.775   4.110   1.438  0.4889  0.6399 -1.3509
 5441TIP3   OH237813   5.592   1.889   3.565  0.1678 -0.5085  0.2891
 5441TIP3    H137814   5.665   1.946   3.589  0.3603  0.4542 -2.2420
 5441TIP3    H237815   5.631   1.822   3.509 -0.5002 -1.5390  1.0219
 5442TIP3   OH237816   4.411   4.005  10.947 -0.1375  0.5129  1.0563
 5442TIP3    H137817   4.401   3.955  11.028 -1.5668 -0.0678  0.5479
 5442TIP3    H237818   4.473   3.954  10.895 -0.6268 -0.0872  1.0526
 5443TIP3   OH237819   6.567   2.775  12.427 -0.0875  0.7933  0.2055
 5443TIP3    H137820   6.491   2.801  12.374  0.0240 -0.5776 -0.6889
 5443TIP3    H237821   6.534   2.770  12.516 -1.1890 -0.2344 -0.2391
 5444TIP3   OH237822   4.670   6.524   0.381 -0.2017 -0.0880  0.3709
 5444TIP3    H137823   4.619   6.493   0.306  1.3525 -0.3912 -0.6124
 5444TIP3    H237824   4.606   6.569   0.436 -1.8923 -2.0733  0.1657
 5445TIP3   OH237825   4.569   6.134  14.426 -0.6551 -0.0849  0.3834
 5445TIP3    H137826   4.549   6.143  14.333 -2.4769  1.6201  0.8812
 5445TIP3    H237827   4.517   6.059  14.455  0.1985 -0.8488 -0.0164
 5446TIP3   OH237828   3.784   5.084   2.569 -0.4140  0.1512  0.1515
 5446TIP3    H137829   3.713   5.132   2.612 -2.3954 -1.1536 -1.4748
 5446TIP3    H237830   3.803   5.136   2.491 -0.0484  0.1536  0.2433
 5447TIP3   OH237831   5.809   1.929   4.245  0.0289  0.5548 -0.1176
 5447TIP3    H137832   5.804   1.910   4.151  0.7769  0.3667 -0.1275
 5447TIP3    H237833   5.757   1.860   4.286  3.7579 -2.5604 -0.0537
 5448TIP3   OH237834   3.011   6.529  13.948  0.1871  0.1699  0.2392
 5448TIP3    H137835   3.043   6.533  14.038 -0.2945  0.0153  0.4196
 5448TIP3    H237836   3.090   6.513  13.895  0.4963  0.4495  0.6121
 5449TIP3   OH237837   0.458   2.881   4.236  0.3996 -0.1530 -0.1325
 5449TIP3    H137838   0.373   2.838   4.225 -0.2943  1.1084 -0.0365
 5449TIP3    H237839   0.438   2.975   4.228  1.4274  0.3156  1.9125
 5450TIP3   OH237840   4.921   1.605  10.953  0.8682 -0.0368  0.5560
 5450TIP3    H137841   4.848   1.553  10.986  0.3082  1.0266  1.0379
 5450TIP3    H237842   4.948   1.659  11.027  0.9067  0.9306 -0.1461
 5451TIP3   OH237843   5.597   0.112  14.877 -0.0239 -0.6871 -0.0078
 5451TIP3    H137844   5.541   0.036  14.859 -0.3212 -0.6384  0.7096
 5451TIP3    H237845   5.538   0.187  14.872 -0.1256 -0.6741  1.1949
 5452TIP3   OH237846   2.547   3.212   5.798 -0.1485 -0.1666 -0.2297
 5452TIP3    H137847   2.494   3.141   5.835 -0.8351  0.9894  1.0805
 5452TIP3    H237848   2.563   3.184   5.708 -0.0105 -2.1929  0.3560
 5453TIP3   OH237849   1.339   5.015   1.893  0.1396  0.0853  0.6512
 5453TIP3    H137850   1.384   4.981   1.971 -2.5069  0.0286  2.2683
 5453TIP3    H237851   1.290   4.940   1.859 -0.6921  0.7293  0.4207
 5454TIP3   OH237852   3.331   2.093   4.760  0.0373  0.3482  0.4286
 5454TIP3    H137853   3.298   2.165   4.706  0.0943 -0.0697 -0.1720
 5454TIP3    H237854   3.425   2.111   4.769 -0.0754  0.7355  0.8944
 5455TIP3   OH237855   1.654   5.559   1.480  0.4260  0.0325 -0.2123
 5455TIP3    H137856   1.563   5.533   1.472  0.2608 -0.5285  2.5141
 5455TIP3    H237857   1.703   5.489   1.438 -0.3381 -0.2256 -0.6898
 5456TIP3   OH237858   4.082   2.458  13.762 -0.2300  0.1204 -0.0118
 5456TIP3    H137859   3.997   2.499  13.749  0.4620  1.1372 -1.5433
 5456TIP3    H237860   4.073   2.372  13.720 -0.6093  0.0559  0.1903
 5457TIP3   OH237861   3.044   6.505  11.913 -0.1820  0.1970 -0.2901
 5457TIP3    H137862   3.115   6.486  11.852  1.1452 -1.4242  1.6299
 5457TIP3    H237863   3.082   6.491  12.000 -2.0688  2.0901  0.9449
 5458TIP3   OH237864   2.916   0.641   3.204 -0.6175  0.2812  0.0935
 5458TIP3    H137865   2.823   0.632   3.223 -0.9980  0.7398 -1.3974
 5458TIP3    H237866   2.943   0.722   3.246 -0.7114 -0.2048  1.1101
 5459TIP3   OH237867   1.862   3.103  13.948 -0.2345 -1.1040  0.0655
 5459TIP3    H137868   1.956   3.089  13.962 -0.2513 -2.4303 -0.9966
 5459TIP3    H237869   1.857   3.175  13.885  0.1049 -1.7647 -0.7232
 5460TIP3   OH237870   0.585   2.640   0.611 -0.2805 -0.0792 -0.4962
 5460TIP3    H137871   0.584   2.562   0.667 -0.4214  2.0698  2.7574
 5460TIP3    H237872   0.509   2.691   0.640  1.6113  2.7494 -0.1324
 5461TIP3   OH237873   5.686   0.614   2.635 -0.0625  0.5543  0.4878
 5461TIP3    H137874   5.652   0.665   2.562  1.9097  1.0038 -0.1713
 5461TIP3    H237875   5.716   0.679   2.698  0.0642  0.1838  0.8118
 5462TIP3   OH237876   1.382   0.042  12.719  0.0469 -0.0160 -0.0343
 5462TIP3    H137877   1.396  -0.052  12.708 -0.0290 -0.0404  0.0777
 5462TIP3    H237878   1.468   0.081  12.701  0.2610 -0.1629  0.6372
 5463TIP3   OH237879   0.249   1.325   5.139  0.6535 -0.3796 -0.0897
 5463TIP3    H137880   0.255   1.320   5.044 -3.2095 -2.9118 -0.4346
 5463TIP3    H237881   0.253   1.234   5.169 -0.1817  0.1817  1.9423
 5464TIP3   OH237882   2.981   4.912   0.756 -0.1564  0.1943  0.0640
 5464TIP3    H137883   3.062   4.940   0.798  1.9409 -1.7028 -2.3482
 5464TIP3    H237884   2.936   4.993   0.733  1.2804  1.3199  1.0521
 5465TIP3   OH237885   6.543   6.828   1.819  0.3413 -0.2540 -0.4099
 5465TIP3    H137886   6.501   6.811   1.735  0.4588  0.3252 -0.5859
 5465TIP3    H237887   6.616   6.767   1.822  1.3975  0.9097 -1.4999
 5466TIP3   OH237888   5.664   1.362  12.922  0.6755  0.7018 -0.0142
 5466TIP3    H137889   5.670   1.349  12.827  1.5982 -0.0087  0.1239
 5466TIP3    H237890   5.741   1.415  12.944  0.5415  0.7449  0.3558
 5467TIP3   OH237891   1.896   2.549   1.781 -0.2082 -0.2002  0.2801
 5467TIP3    H137892   1.858   2.632   1.809  2.7568  1.6177 -0.6016
 5467TIP3    H237893   1.872   2.540   1.689  2.3544  1.6776 -0.6946
 5468TIP3   OH237894   2.055   5.040  11.968  0.2840  0.3508 -0.2846
 5468TIP3    H137895   1.978   4.990  11.996 -0.7494  0.8023 -2.1725
 5468TIP3    H237896   2.102   4.980  11.910 -0.0104  0.9589 -1.1496
 5469TIP3   OH237897   5.042   3.797  16.924 -0.1647  0.1995  0.4354
 5469TIP3    H137898   5.034   3.849  16.844 -0.5927 -1.0156 -0.3298
 5469TIP3    H237899   4.960   3.747  16.928  1.4448 -2.7541 -0.5523
 5470TIP3   OH237900   5.881   1.176  11.907 -0.2479  0.6886  0.0604
 5470TIP3    H137901   5.888   1.240  11.978 -0.2256 -0.1441  0.8287
 5470TIP3    H237902   5.970   1.164  11.876 -0.2288  0.8984  0.0357
 5471TIP3   OH237903   4.452   6.394   4.260  0.4763 -0.2442 -0.1483
 5471TIP3    H137904   4.537   6.427   4.289  0.1653 -0.3109  0.8858
 5471TIP3    H237905   4.435   6.319   4.316  0.3916 -1.1467 -1.3362
 5472TIP3   OH237906   2.667   2.566  16.092 -0.5673  0.3965 -0.0981
 5472TIP3    H137907   2.639   2.594  16.005  1.2148 -0.6182 -1.0420
 5472TIP3    H237908   2.721   2.637  16.125  0.0046  0.1427 -0.4737
 5473TIP3   OH237909   4.376   3.816   1.809  0.4339 -0.2757  0.2770
 5473TIP3    H137910   4.382   3.886   1.745  1.5850  1.4897  2.1794
 5473TIP3    H237911   4.291   3.776   1.794  0.2332  0.7751 -1.6130
 5474TIP3   OH237912   1.128   4.864   4.634 -0.4215 -0.1700  0.4314
 5474TIP3    H137913   1.049   4.899   4.593 -1.2845 -1.6726  0.7381
 5474TIP3    H237914   1.104   4.855   4.727 -0.0654 -1.0911  0.4426
 5475TIP3   OH237915   1.896   1.518  12.371  0.2112  0.1591 -0.3352
 5475TIP3    H137916   1.856   1.460  12.436  0.6779 -0.1672 -0.3296
 5475TIP3    H237917   1.985   1.484  12.361  0.2833  0.4824 -0.8134
 5476TIP3   OH237918   4.362   6.818  14.020  0.3235 -0.8169 -0.1045
 5476TIP3    H137919   4.277   6.814  13.975 -0.7711  0.7453  1.6479
 5476TIP3    H237920   4.401   6.900  13.989 -0.5869  0.4411  1.8876
 5477TIP3   OH237921   2.904   2.465  12.931 -0.4067  0.3432  0.5210
 5477TIP3    H137922   2.811   2.459  12.954 -0.7220  2.0710 -0.1710
 5477TIP3    H237923   2.910   2.542  12.875  1.5847  0.7410  1.2059
 5478TIP3   OH237924   3.242   4.718  15.153  0.1112  0.3908  0.6149
 5478TIP3    H137925   3.187   4.647  15.119  1.1083 -0.3444  0.4600
 5478TIP3    H237926   3.290   4.750  15.076 -2.2021  3.0724  0.1316
 5479TIP3   OH237927   6.707   4.001   1.915 -0.1191 -0.1367  0.5589
 5479TIP3    H137928   6.784   3.951   1.941  0.0596  0.4241  1.1583
 5479TIP3    H237929   6.693   3.978   1.824 -0.0786 -1.3081  0.8319
 5480TIP3   OH237930   0.246   5.347   0.277 -0.2576 -0.4749  0.0129
 5480TIP3    H137931   0.223   5.320   0.188  1.4021 -1.3315 -0.1825
 5480TIP3    H237932   0.329   5.392   0.268 -0.3323 -0.0893  1.0733
 5481TIP3   OH237933   4.162   5.308   6.193 -0.1915 -0.1582  0.2456
 5481TIP3    H137934   4.190   5.392   6.229 -1.2842 -0.7411  2.6395
 5481TIP3    H237935   4.094   5.331   6.130  1.1677  0.8538 -0.9169
 5482TIP3   OH237936   5.081   1.470   1.181  0.7156 -0.6609 -0.3404
 5482TIP3    H137937   5.102   1.490   1.272 -1.2680  0.1649 -0.0060
 5482TIP3    H237938   5.015   1.534   1.157  2.4140  0.2955 -2.9644
 5483TIP3   OH237939   5.324   1.085   1.051  0.2723 -0.6396 -0.2341
 5483TIP3    H137940   5.229   1.094   1.064 -0.0611 -1.7275 -1.6811
 5483TIP3    H237941   5.334   0.998   1.011  1.4043  1.1537 -4.3203
 5484TIP3   OH237942   4.059   4.207  12.256 -0.2860 -0.2651 -0.3124
 5484TIP3    H137943   4.122   4.153  12.209  1.1989 -0.5231  1.8322
 5484TIP3    H237944   4.111   4.277  12.295 -1.8473  1.4662 -1.1738
 5485TIP3   OH237945   3.615   4.931   1.836 -0.1582  0.1863 -0.4007
 5485TIP3    H137946   3.582   4.907   1.923  0.7947  0.0765 -0.0605
 5485TIP3    H237947   3.559   5.004   1.809 -1.4412 -0.7257 -0.3524
 5486TIP3   OH237948   6.145   4.149   5.869  0.5529 -0.4012 -0.0124
 5486TIP3    H137949   6.112   4.080   5.812 -0.7555  0.9144 -0.9386
 5486TIP3    H237950   6.086   4.149   5.944 -0.3886  0.6281 -0.7141
 5487TIP3   OH237951   4.489   0.553   1.431 -0.0420  0.0043 -0.0838
 5487TIP3    H137952   4.469   0.586   1.518 -0.6980  0.6603 -0.4702
 5487TIP3    H237953   4.405   0.547   1.387  0.2827 -0.2874 -0.6855
 5488TIP3   OH237954   0.009   2.306  16.204  0.3877  0.2002  0.0559
 5488TIP3    H137955   0.054   2.347  16.278  0.4625 -1.0225  0.7006
 5488TIP3    H237956   0.000   2.214  16.229 -1.5733  0.2042 -0.4948
 5489TIP3   OH237957   2.183   2.106   0.533 -0.7225 -0.2192 -0.4583
 5489TIP3    H137958   2.213   2.030   0.482  0.0859  0.8947 -1.7033
 5489TIP3    H237959   2.203   2.084   0.624  1.0488 -0.7986 -0.9601
 5490TIP3   OH237960   6.683   2.939   2.077  0.0033 -0.0821  0.2345
 5490TIP3    H137961   6.704   2.949   2.169  1.1240  1.3429 -0.1391
 5490TIP3    H237962   6.758   2.893   2.039 -0.9428 -1.7004  0.1855
 5491TIP3   OH237963   5.270   3.343  12.680 -0.2874 -0.0408  0.3108
 5491TIP3    H137964   5.335   3.286  12.721 -0.6935  1.3666  3.1442
 5491TIP3    H237965   5.313   3.428  12.675 -1.1894  0.4114  0.1715
 5492TIP3   OH237966   4.595   0.474   4.865  0.0668 -0.1450  0.6191
 5492TIP3    H137967   4.553   0.456   4.949  0.4234 -0.4383  0.7348
 5492TIP3    H237968   4.625   0.389   4.835  0.5606  0.0631  0.5237
 5493TIP3   OH237969   2.128   6.533  12.435 -0.4508 -0.6309  0.3714
 5493TIP3    H137970   2.223   6.550  12.439 -0.6459  1.0196 -1.0065
 5493TIP3    H237971   2.120   6.462  12.372 -0.1134 -0.9440  0.6759
 5494TIP3   OH237972   3.370   3.530  14.837  0.9156  0.7314 -0.1894
 5494TIP3    H137973   3.354   3.591  14.909  0.3689 -0.3739  0.6428
 5494TIP3    H237974   3.283   3.506  14.806  1.1287  0.4149 -0.5450
 5495TIP3   OH237975   4.394   4.171   1.883 -0.1683 -0.2326 -0.3604
 5495TIP3    H137976   4.393   4.256   1.840 -0.2325  1.9076  3.4145
 5495TIP3    H237977   4.313   4.168   1.934  0.9843 -1.3958  1.5493
 5496TIP3   OH237978   6.597   6.219   5.013  0.2340 -0.0643 -0.5717
 5496TIP3    H137979   6.527   6.263   4.965  0.7362  0.7312 -0.5716
 5496TIP3    H237980   6.602   6.266   5.096 -0.3333 -1.1554  0.1097
 5497TIP3   OH237981   5.376   1.958   3.091 -0.1273  0.3644  0.2853
 5497TIP3    H137982   5.436   1.908   3.036 -1.1500  0.3523 -0.8594
 5497TIP3    H237983   5.293   1.957   3.043 -0.5374  1.9995  0.8948
 5498TIP3   OH237984   5.706   2.420   1.718 -0.0257  0.0001 -0.4723
 5498TIP3    H137985   5.669   2.462   1.795 -0.6352 -0.2075 -0.6479
 5498TIP3    H237986   5.730   2.332   1.748  0.1822  0.0834 -0.3961
 5499TIP3   OH237987   0.312   3.245   5.943  0.1903  0.3815 -0.7886
 5499TIP3    H137988   0.308   3.169   6.000  0.5951  1.3574  0.6001
 5499TIP3    H237989   0.289   3.212   5.857 -2.1524 -0.8291  0.2217
 5500TIP3   OH237990   0.516   2.790  11.118  0.5147 -0.2281  0.2591
 5500TIP3    H137991   0.541   2.707  11.079  0.1716 -0.6599  0.9280
 5500TIP3    H237992   0.528   2.854  11.049  2.1086 -0.6198  0.1453
 5501TIP3   OH237993   4.131   5.577   5.852 -0.2954  0.6450  0.0321
 5501TIP3    H137994   4.071   5.579   5.777 -0.4463 -1.3296  0.0358
 5501TIP3    H237995   4.082   5.531   5.921  1.2663 -1.3127 -0.0677
 5502TIP3   OH237996   6.207   4.142  13.965  0.5036  0.3274 -0.1944
 5502TIP3    H137997   6.113   4.161  13.962  0.1730 -1.1247  0.2364
 5502TIP3    H237998   6.225   4.100  13.882  1.0351  1.6234 -0.7574
 5503TIP3   OH237999   5.987   1.410   0.383  0.0969 -0.2381 -0.0818
 5503TIP3    H138000   5.987   1.361   0.301  2.6529  0.4246 -0.5767
 5503TIP3    H238001   6.018   1.347   0.449  1.8390  0.2213 -0.4172
 5504TIP3   OH238002   2.106   2.957  15.981 -0.1231 -0.6013  0.1984
 5504TIP3    H138003   2.013   2.940  15.999 -0.9180  1.4409 -1.5303
 5504TIP3    H238004   2.115   3.052  15.988  1.9435 -0.7768  0.5843
 5505TIP3   OH238005   4.209   0.302  13.346  0.1555  0.1343  0.0860
 5505TIP3    H138006   4.190   0.280  13.437 -1.1832  0.2067 -0.1512
 5505TIP3    H238007   4.139   0.260  13.295  0.2259  1.0283 -0.7927
 5506TIP3   OH238008   3.525   5.399   4.049  0.0693  0.0778 -0.9462
 5506TIP3    H138009   3.543   5.468   4.112 -1.0345 -2.0913  1.9602
 5506TIP3    H238010   3.430   5.405   4.034 -0.4505 -1.9784  1.0129
 5507TIP3   OH238011   4.935   1.483  11.856  0.0008 -0.4375  0.3079
 5507TIP3    H138012   5.017   1.514  11.819 -0.7508  0.7612 -0.3828
 5507TIP3    H238013   4.932   1.520  11.944 -0.2693  0.3688 -0.0365
 5508TIP3   OH238014   0.680   4.362  11.678  0.2712 -0.6162  0.1782
 5508TIP3    H138015   0.601   4.386  11.629  1.0279  0.2664 -0.6418
 5508TIP3    H238016   0.720   4.446  11.703  1.4759 -1.0301 -0.2797
 5509TIP3   OH238017   3.206   2.603   2.228 -0.4635 -0.3938 -0.6245
 5509TIP3    H138018   3.262   2.680   2.221 -1.8023  0.4894 -2.4297
 5509TIP3    H238019   3.159   2.615   2.311  0.9112 -0.4075  0.1791
 5510TIP3   OH238020   3.417   4.175  12.009  0.2859 -0.2127 -0.0159
 5510TIP3    H138021   3.418   4.231  12.087 -0.6968  1.6557 -1.2782
 5510TIP3    H238022   3.489   4.114  12.023  1.3730  1.3141  1.4889
 5511TIP3   OH238023   0.273   1.908  13.635  0.0665 -0.2826 -0.0235
 5511TIP3    H138024   0.227   1.938  13.556  0.2543 -1.4019 -0.5776
 5511TIP3    H238025   0.214   1.843  13.673  0.1377 -0.0002  0.5759
 5512TIP3   OH238026   1.152   0.035   0.362  0.0569 -0.3901  0.4423
 5512TIP3    H138027   1.076   0.000   0.408 -0.3729 -0.1779 -0.1015
 5512TIP3    H238028   1.226  -0.017   0.395 -0.6292 -2.1830 -0.7038
 5513TIP3   OH238029   6.832   4.165  14.466  0.0192 -0.4012 -0.4789
 5513TIP3    H138030   6.813   4.255  14.493  1.2663  0.0720 -1.1080
 5513TIP3    H238031   6.771   4.112  14.517  0.0591  0.7029  0.7807
 5514TIP3   OH238032   1.985   1.555  17.058  0.0337 -0.7881 -0.1457
 5514TIP3    H138033   1.973   1.510  17.142  0.7735  0.1717  0.4900
 5514TIP3    H238034   1.900   1.594  17.040  0.3186  0.5132  1.0878
 5515TIP3   OH238035   4.695   5.526   3.979  0.1376  0.1082 -0.0418
 5515TIP3    H138036   4.685   5.583   3.903  0.9259 -0.0765 -0.2928
 5515TIP3    H238037   4.616   5.472   3.980 -0.0722  0.4128 -0.4789
 5516TIP3   OH238038   6.357   1.450  14.292 -0.4072  0.0815 -0.6190
 5516TIP3    H138039   6.303   1.467  14.215 -2.7535  0.6636  1.0359
 5516TIP3    H238040   6.293   1.435  14.362  1.5406  2.8658  1.9508
 5517TIP3   OH238041   4.417   0.102  13.575  0.4424  0.0824 -0.5517
 5517TIP3    H138042   4.465   0.130  13.497  1.7269 -0.2790  0.0883
 5517TIP3    H238043   4.338   0.059  13.540  1.0003 -0.0817 -1.6562
 5518TIP3   OH238044   1.015   4.146   0.606 -0.3177 -0.3461  0.1480
 5518TIP3    H138045   1.086   4.134   0.669  1.5920  0.8410 -1.6504
 5518TIP3    H238046   1.041   4.094   0.530 -1.0133  0.6254 -0.7947
 5519TIP3   OH238047   3.727   0.816   0.871 -0.2544 -0.0855 -0.4716
 5519TIP3    H138048   3.753   0.807   0.962 -1.0386  0.2305 -0.2100
 5519TIP3    H238049   3.698   0.728   0.846 -0.3190 -0.1085 -0.3206
 5520TIP3   OH238050   4.405   1.895  14.581 -0.0986 -0.2077 -0.4972
 5520TIP3    H138051   4.362   1.942  14.510  2.5175 -2.6260 -4.0117
 5520TIP3    H238052   4.345   1.824  14.603 -0.8171  0.3997 -0.4812
 5521TIP3   OH238053   5.973   4.490  12.084  0.0424 -0.3630  0.2047
 5521TIP3    H138054   6.003   4.475  12.173  1.6786  0.8527 -0.1026
 5521TIP3    H238055   5.978   4.404  12.042  2.6852 -0.3516  0.3354
 5522TIP3   OH238056   4.696   2.068  16.726 -0.2457 -0.7584  0.4269
 5522TIP3    H138057   4.671   2.092  16.815 -0.7631  0.6354 -0.0810
 5522TIP3    H238058   4.741   1.984  16.736  1.1219  0.1225  2.1960
 5523TIP3   OH238059   6.538   4.146   0.177 -0.5903 -0.5255 -0.0310
 5523TIP3    H138060   6.473   4.115   0.114 -2.1599 -0.3444  1.4201
 5523TIP3    H238061   6.515   4.102   0.259  0.9486 -0.2112  0.6002
 5524TIP3   OH238062   3.376   1.768  14.987  0.6496  0.0418  0.5547
 5524TIP3    H138063   3.358   1.835  15.053  0.7641  1.9327 -1.2271
 5524TIP3    H238064   3.367   1.685  15.033 -0.5630  1.2450  2.6076
 5525TIP3   OH238065   4.271   0.887  13.536  0.4774  0.2720  0.1395
 5525TIP3    H138066   4.336   0.850  13.595  0.1044  1.3120  1.2526
 5525TIP3    H238067   4.227   0.955  13.588 -1.3406 -0.2363 -0.6347
 5526TIP3   OH238068   2.902   2.410   0.779  0.5059 -0.3558 -0.0878
 5526TIP3    H138069   2.889   2.410   0.874 -0.6665 -1.8210 -0.2046
 5526TIP3    H238070   2.817   2.436   0.743  1.3054  1.5486 -0.7547
 5527TIP3   OH238071   6.435   1.476  13.390  0.1794  0.5148 -0.5345
 5527TIP3    H138072   6.504   1.484  13.324  0.0346  0.3361 -0.7098
 5527TIP3    H238073   6.362   1.527  13.355  0.3266  0.9458 -0.2100
 5528TIP3   OH238074   2.644   1.810  11.346  0.4050 -0.3144  0.1166
 5528TIP3    H138075   2.684   1.738  11.396 -2.3699 -5.0471 -3.5755
 5528TIP3    H238076   2.558   1.821  11.386  1.2154  2.0084  1.3688
 5529TIP3   OH238077   6.673   4.266   0.384  0.2609 -0.3030 -0.7649
 5529TIP3    H138078   6.685   4.226   0.297 -0.0991 -0.7239 -0.6263
 5529TIP3    H238079   6.616   4.205   0.430  0.4160 -0.0561 -0.2442
 5530TIP3   OH238080   2.164   6.668  10.996 -0.6575  0.0471 -0.2815
 5530TIP3    H138081   2.214   6.728  10.941 -1.3009  0.5852 -0.2905
 5530TIP3    H238082   2.097   6.633  10.938  0.2580 -1.3951 -0.5226
 5531TIP3   OH238083   5.442   4.016   4.579  0.1612 -0.0327 -0.7058
 5531TIP3    H138084   5.479   3.977   4.659  1.4591  2.7956  0.1884
 5531TIP3    H238085   5.358   4.053   4.607  1.5852  2.8989  0.0428
 5532TIP3   OH238086   2.828   6.311   0.505 -0.6195 -0.4801 -0.0324
 5532TIP3    H138087   2.743   6.356   0.508 -0.1967  0.2981  2.1012
 5532TIP3    H238088   2.885   6.372   0.457 -0.5637  0.4066  1.1018
 5533TIP3   OH238089   0.174   6.448   6.550  0.4566  0.1563  0.1252
 5533TIP3    H138090   0.202   6.512   6.616  0.3976  0.0871  0.2185
 5533TIP3    H238091   0.164   6.366   6.600 -0.1225  0.2283  0.1346
 5534TIP3   OH238092   6.046   4.188   5.515 -0.3091  0.1342 -0.2825
 5534TIP3    H138093   6.090   4.260   5.470  2.7722 -2.3907 -1.7491
 5534TIP3    H238094   6.116   4.123   5.529 -3.0861 -3.0749 -0.1573
 5535TIP3   OH238095   2.026   5.968  13.939 -0.3543 -0.3217 -0.2293
 5535TIP3    H138096   2.026   6.064  13.940 -1.0772 -0.2886  1.4399
 5535TIP3    H238097   2.088   5.944  13.871 -1.8386  1.3207 -2.3247
 5536TIP3   OH238098   3.771   5.821   1.736  0.0478  0.1734 -0.0826
 5536TIP3    H138099   3.764   5.897   1.794  1.0345  0.6508 -0.5776
 5536TIP3    H238100   3.807   5.752   1.791 -0.6202  0.1143  0.3028
 5537TIP3   OH238101   5.373   0.044  15.117 -0.1882 -0.2744 -0.5770
 5537TIP3    H138102   5.433   0.063  15.190 -1.1276 -0.4541  0.2660
 5537TIP3    H238103   5.342   0.130  15.089 -2.6493 -0.2842  1.7069
 5538TIP3   OH238104   4.468   3.847   2.575 -0.0873 -0.1090  0.2277
 5538TIP3    H138105   4.555   3.818   2.602  0.2346 -0.5973 -1.2540
 5538TIP3    H238106   4.478   3.871   2.483 -1.3644  0.5155  0.2327
 5539TIP3   OH238107   2.170   1.177  15.380  0.0907  0.2654  0.1310
 5539TIP3    H138108   2.158   1.205  15.470  2.5100 -0.8727  0.8778
 5539TIP3    H238109   2.265   1.176  15.367 -0.1734  1.5546 -2.8255
 5540TIP3   OH238110   6.416   5.690  10.896  0.2648 -0.5544  0.6114
 5540TIP3    H138111   6.511   5.702  10.889  0.2386 -0.1577  0.9328
 5540TIP3    H238112   6.380   5.746  10.827  0.1668  0.9021  1.8136
 5541TIP3   OH238113   5.230   3.998  12.138 -0.4900 -0.2920  0.0186
 5541TIP3    H138114   5.216   4.079  12.090  0.3820 -0.2673 -0.1999
 5541TIP3    H238115   5.271   4.024  12.220  0.9708 -0.5965 -0.5820
 5542TIP3   OH238116   4.444   6.504  13.829  0.4417 -0.6323 -0.2240
 5542TIP3    H138117   4.460   6.464  13.743  0.9766 -0.8329 -0.0349
 5542TIP3    H238118   4.509   6.574  13.834  1.3457 -1.5009  0.5891
 5543TIP3   OH238119   4.936   6.693   1.395 -0.1004 -0.1603 -0.2230
 5543TIP3    H138120   5.009   6.726   1.344  0.7135 -0.2467  0.8371
 5543TIP3    H238121   4.960   6.603   1.417 -1.2914 -0.7656 -1.2388
 5544TIP3   OH238122   5.448   1.256   2.814  0.2130  0.4232  0.0114
 5544TIP3    H138123   5.367   1.306   2.822 -0.0979  0.4565 -2.5262
 5544TIP3    H238124   5.511   1.304   2.868 -1.4622  0.1913  2.3443
 5545TIP3   OH238125   0.022   1.508   5.908 -0.5425  0.0875  0.3271
 5545TIP3    H138126   0.059   1.528   5.994  3.3215 -1.0426 -0.8645
 5545TIP3    H238127  -0.039   1.436   5.925 -0.8380  0.7248  2.2499
 5546TIP3   OH238128   4.385   5.510   5.078  0.0974  0.9159  0.0405
 5546TIP3    H138129   4.429   5.563   5.144  0.5703  0.8437 -0.2139
 5546TIP3    H238130   4.450   5.497   5.010  0.1031 -0.2578  0.2428
 5547TIP3   OH238131   0.052   1.751   4.287  0.3199 -0.0023  0.2421
 5547TIP3    H138132   0.001   1.821   4.247  0.5934  0.3421  0.4812
 5547TIP3    H238133   0.054   1.773   4.380  0.0591 -0.5565  0.3860
 5548TIP3   OH238134   2.789   1.288   5.780  0.1375  0.0583  0.0417
 5548TIP3    H138135   2.713   1.230   5.781 -1.0978  1.6211  0.0703
 5548TIP3    H238136   2.764   1.361   5.724  1.0394  1.3469  1.2396
 5549TIP3   OH238137   3.057   4.085   5.207  0.2167 -0.0832 -0.1430
 5549TIP3    H138138   3.087   3.995   5.213  0.9182  0.0951 -0.8366
 5549TIP3    H238139   3.116   4.126   5.145 -0.5890  0.6517 -0.4505
 5550TIP3   OH238140   6.784   0.248  13.695  0.0945 -0.6505  0.0073
 5550TIP3    H138141   6.820   0.284  13.777 -0.5025  1.1757 -0.4848
 5550TIP3    H238142   6.702   0.207  13.721 -0.6780  0.9406  0.2007
 5551TIP3   OH238143   4.904   6.005  16.967 -0.0029  0.2473  0.6820
 5551TIP3    H138144   4.857   6.015  17.050 -1.7193  1.9782 -0.4082
 5551TIP3    H238145   4.898   5.912  16.948 -1.8215  0.1903  1.3015
 5552TIP3   OH238146   2.884   1.601  14.796 -0.6169 -0.2529  0.1994
 5552TIP3    H138147   2.848   1.513  14.793  0.0891 -0.5365 -0.4656
 5552TIP3    H238148   2.978   1.588  14.810 -0.2215  0.3080 -1.6678
 5553TIP3   OH238149   4.717   3.220  16.053  0.3080  0.0629  0.4374
 5553TIP3    H138150   4.651   3.161  16.018 -1.4184 -0.1925  3.7471
 5553TIP3    H238151   4.798   3.168  16.053 -0.7088 -1.5979  1.3605
 5554TIP3   OH238152   1.214   2.005   1.361 -0.6746 -0.4081  0.1868
 5554TIP3    H138153   1.202   2.092   1.321  0.0040 -0.7223 -0.7370
 5554TIP3    H238154   1.188   2.017   1.452 -1.2582  0.5988 -0.0934
 5555TIP3   OH238155   6.160   1.417  14.491  0.5112  0.4178 -0.0776
 5555TIP3    H138156   6.074   1.425  14.450  1.1263 -1.4370 -1.9334
 5555TIP3    H238157   6.153   1.337  14.544  1.5223 -0.7024 -1.5703
 5556TIP3   OH238158   6.798   6.166   5.662 -0.2004 -0.0006 -0.1611
 5556TIP3    H138159   6.713   6.201   5.634  0.0455 -0.2469 -1.2564
 5556TIP3    H238160   6.859   6.193   5.594 -0.0177 -2.6943 -1.2068
 5557TIP3   OH238161   1.857   4.856   3.691  0.4413 -0.5571  0.0742
 5557TIP3    H138162   1.762   4.858   3.701  0.4562 -0.5105  0.2035
 5557TIP3    H238163   1.884   4.948   3.690  0.7788 -0.5489  2.8207
 5558TIP3   OH238164   1.462   5.387   0.081 -0.2954 -0.6828 -0.2398
 5558TIP3    H138165   1.442   5.293   0.078 -2.0207 -0.3280 -2.3359
 5558TIP3    H238166   1.488   5.409  -0.009 -2.5695  1.3346 -0.4930
 5559TIP3   OH238167   2.611   0.340  13.805  0.4058 -0.3735 -0.3352
 5559TIP3    H138168   2.703   0.329  13.782  1.1104 -1.4163  2.5108
 5559TIP3    H238169   2.611   0.408  13.873 -0.6531 -1.5581  0.9210
 5560TIP3   OH238170   3.632   4.286   5.090  0.4844 -0.2140  0.5212
 5560TIP3    H138171   3.643   4.223   5.018  1.4108  0.0655  0.4105
 5560TIP3    H238172   3.628   4.232   5.169  0.4775 -0.4618  0.3514
 5561TIP3   OH238173   0.594   3.879  15.226 -0.5758  0.0864  0.0978
 5561TIP3    H138174   0.678   3.884  15.180 -0.6953  0.2745 -0.1022
 5561TIP3    H238175   0.529   3.876  15.157 -0.6819 -1.4699  0.2124
 5562TIP3   OH238176   6.236   5.779  16.172 -0.5302 -0.0847  0.1697
 5562TIP3    H138177   6.154   5.800  16.129  0.1301  0.4924 -0.8427
 5562TIP3    H238178   6.302   5.780  16.102  0.2722 -1.0116  0.8690
 5563TIP3   OH238179   6.068   4.775  12.525 -0.0195  0.2433  0.2276
 5563TIP3    H138180   6.123   4.726  12.586  1.6034  0.0328 -1.2936
 5563TIP3    H238181   6.130   4.830  12.477 -1.4666  1.7390 -0.0017
 5564TIP3   OH238182   4.533   3.466  13.452 -0.3858  0.6426 -0.4648
 5564TIP3    H138183   4.620   3.429  13.439 -0.4541  1.0349 -2.1735
 5564TIP3    H238184   4.482   3.395  13.492  0.1679 -0.2740 -1.3480
 5565TIP3   OH238185   0.349   6.047  13.306  0.5791 -0.9176 -0.2683
 5565TIP3    H138186   0.300   6.123  13.275  0.7969  0.6516  2.8175
 5565TIP3    H238187   0.285   5.976  13.308 -0.5439  0.0743 -0.1057
 5566TIP3   OH238188   0.776   4.124   0.111 -0.0041 -0.8689  0.0046
 5566TIP3    H138189   0.705   4.132   0.175  0.6967 -1.7412  0.9196
 5566TIP3    H238190   0.790   4.029   0.102  1.7695 -0.7041  0.6673
 5567TIP3   OH238191   4.841   1.084  13.700  0.2643  0.2574  0.4833
 5567TIP3    H138192   4.857   1.178  13.709  1.3864 -0.0686  2.1577
 5567TIP3    H238193   4.887   1.044  13.773 -0.8554 -1.5506  0.2612
 5568TIP3   OH238194   3.984   2.269  10.710 -0.0910  0.2714 -0.1798
 5568TIP3    H138195   4.013   2.207  10.643  0.7610  0.9753 -0.4889
 5568TIP3    H238196   3.888   2.270  10.702 -0.0076  0.3751 -1.4281
 5569TIP3   OH238197   1.504   2.957   1.758 -0.6252 -0.0572 -0.1636
 5569TIP3    H138198   1.539   2.940   1.671 -0.7879 -0.0076 -0.2394
 5569TIP3    H238199   1.479   3.050   1.757  0.5556  0.2901  0.3528
 5570TIP3   OH238200   4.921   1.946  10.592  0.3610  0.3368  0.2527
 5570TIP3    H138201   4.891   1.924  10.504  0.6436  1.1572 -0.0589
 5570TIP3    H238202   4.848   1.924  10.649 -0.1738  0.6583 -0.2996
 5571TIP3   OH238203   3.206   5.441   2.307 -0.4355  0.2028  0.4807
 5571TIP3    H138204   3.230   5.492   2.230  0.0605 -1.6086 -0.6188
 5571TIP3    H238205   3.288   5.404   2.339 -0.7709  0.1111  1.2647
 5572TIP3   OH238206   4.690   0.925  11.318 -0.3699  0.5690 -0.5130
 5572TIP3    H138207   4.626   0.865  11.279 -0.7085  0.8705 -0.4208
 5572TIP3    H238208   4.761   0.928  11.254 -1.1719  1.5007 -1.3863
 5573TIP3   OH238209   3.895   5.802  15.399 -0.0941  0.4974 -0.5767
 5573TIP3    H138210   3.990   5.799  15.390 -0.1280 -1.7774 -0.8217
 5573TIP3    H238211   3.880   5.821  15.491  0.6317 -0.2051 -0.3039
 5574TIP3   OH238212   3.678   1.928   0.537  0.0517 -0.2159  0.4589
 5574TIP3    H138213   3.624   1.848   0.537  0.1666 -0.2973  1.2421
 5574TIP3    H238214   3.733   1.919   0.459 -0.4419 -0.5556  0.1385
 5575TIP3   OH238215   3.791   5.212   5.925 -0.0267 -0.3379 -0.1831
 5575TIP3    H138216   3.838   5.162   5.992  0.7298 -0.7743 -1.0111
 5575TIP3    H238217   3.724   5.151   5.893 -0.3364 -0.1577  0.1234
 5576TIP3   OH238218   3.964   6.033   0.636 -0.4626  0.0060 -0.2478
 5576TIP3    H138219   4.028   5.964   0.619  0.4684  0.2287  1.9396
 5576TIP3    H238220   3.986   6.102   0.573  0.3974 -0.5871 -0.6157
 5577TIP3   OH238221   3.000   3.183  14.404  0.0375 -0.0051 -0.1319
 5577TIP3    H138222   3.057   3.208  14.331 -1.4737  1.0223 -1.0119
 5577TIP3    H238223   3.046   3.110  14.447  1.3329 -0.1123 -1.6210
 5578TIP3   OH238224   0.370   5.580  12.756 -0.1248  0.0955 -0.4743
 5578TIP3    H138225   0.401   5.578  12.666  2.4917 -0.3234  0.3423
 5578TIP3    H238226   0.401   5.498  12.794 -1.1992  0.2445  0.8213
 5579TIP3   OH238227   2.945   5.148   4.870 -0.2247  0.3019 -0.2467
 5579TIP3    H138228   2.978   5.155   4.960  1.8643  0.5311 -0.9577
 5579TIP3    H238229   2.878   5.080   4.874  1.1722 -1.0882  1.1789
 5580TIP3   OH238230   6.462   5.848   0.570 -0.0057  0.3095  0.8147
 5580TIP3    H138231   6.530   5.785   0.592 -0.6092 -0.2996  0.9820
 5580TIP3    H238232   6.387   5.794   0.545  0.2006  0.9489 -1.3953
 5581TIP3   OH238233   4.062   5.709   2.447 -0.1389  0.3845  0.1808
 5581TIP3    H138234   4.054   5.617   2.422 -1.1419  0.3940  0.4323
 5581TIP3    H238235   4.038   5.711   2.540 -0.7125  0.9713  0.0318
 5582TIP3   OH238236   6.821   0.001  15.890  0.0192  0.1963  0.5214
 5582TIP3    H138237   6.896   0.042  15.932 -0.9721  2.5713  0.1533
 5582TIP3    H238238   6.832   0.019  15.797 -1.6581  1.9180  0.5805
 5583TIP3   OH238239   0.042   0.308   6.101  0.2770 -0.2063 -0.1123
 5583TIP3    H138240   0.110   0.352   6.150 -1.3275  4.4134 -1.4997
 5583TIP3    H238241  -0.038   0.322   6.151 -0.6649  0.5849 -1.7338
 5584TIP3   OH238242   3.967   0.719   1.262  0.2219 -0.0202 -0.2426
 5584TIP3    H138243   4.005   0.807   1.261  2.2824 -0.8462 -0.0033
 5584TIP3    H238244   3.889   0.726   1.207  1.2650  1.5714 -1.6327
 5585TIP3   OH238245   4.406   2.539  12.775 -0.1133  0.6597 -0.3096
 5585TIP3    H138246   4.352   2.597  12.722 -0.3591  0.1834 -0.5857
 5585TIP3    H238247   4.362   2.536  12.860 -0.0057  1.0111 -0.2417
 5586TIP3   OH238248   2.190   6.557   6.113  0.2906  0.3589  0.1598
 5586TIP3    H138249   2.186   6.475   6.163 -0.0840 -0.2254 -0.8010
 5586TIP3    H238250   2.203   6.625   6.179  3.2433 -0.6894  0.7868
 5587TIP3   OH238251   0.355   3.396   5.409 -0.3420  0.5323  0.8000
 5587TIP3    H138252   0.438   3.376   5.366 -1.1954  1.5042 -1.4926
 5587TIP3    H238253   0.327   3.313   5.447  1.2932  0.0177  0.9673
 5588TIP3   OH238254   3.705   5.143  16.639 -0.0554 -0.1399 -0.2685
 5588TIP3    H138255   3.758   5.071  16.674 -0.6585 -0.7727 -0.6225
 5588TIP3    H238256   3.767   5.215  16.627  0.1794  0.1778  2.2087
 5589TIP3   OH238257   2.370   2.315   4.518 -0.1659 -0.0504 -0.0106
 5589TIP3    H138258   2.330   2.356   4.594 -0.8827 -0.4457 -0.1592
 5589TIP3    H238259   2.297   2.275   4.471 -0.0798  2.0591 -2.1171
 5590TIP3   OH238260   1.542   0.088   3.912 -0.0698  0.2088 -0.0564
 5590TIP3    H138261   1.546   0.125   4.000 -0.2108  0.4622 -0.1569
 5590TIP3    H238262   1.448   0.079   3.894 -0.0999  1.8547 -0.8930
 5591TIP3   OH238263   3.651   3.523  14.206 -0.5980 -0.2436 -0.3833
 5591TIP3    H138264   3.564   3.489  14.183 -0.0799 -0.9785 -1.3266
 5591TIP3    H238265   3.639   3.565  14.291 -1.3845 -2.3166  0.5965
 5592TIP3   OH238266   3.505   6.567  16.613 -0.2729  0.4058 -0.1850
 5592TIP3    H138267   3.525   6.521  16.694  0.3728 -1.6411 -1.4367
 5592TIP3    H238268   3.583   6.618  16.593 -0.0161  0.0486 -0.0863
 5593TIP3   OH238269   4.315   2.708  13.235 -0.5048  0.4496  0.1370
 5593TIP3    H138270   4.350   2.709  13.324 -0.3545  0.2828  0.0803
 5593TIP3    H238271   4.371   2.769  13.186  0.7383 -1.0025 -0.3407
 5594TIP3   OH238272   2.843   0.838   3.895  0.5217  0.4569 -0.3492
 5594TIP3    H138273   2.862   0.845   3.989  0.4891  1.7918 -0.4224
 5594TIP3    H238274   2.929   0.834   3.853  0.5366 -0.0818 -0.2723
 5595TIP3   OH238275   3.986   0.944  15.022 -0.3459  0.2425 -0.4868
 5595TIP3    H138276   4.007   1.006  15.091 -1.1104 -1.0229  0.9331
 5595TIP3    H238277   3.939   0.996  14.957  1.4950  1.7279 -0.7246
 5596TIP3   OH238278   0.629   1.121   2.354 -0.3340  0.0555 -0.6012
 5596TIP3    H138279   0.680   1.171   2.291 -0.5295  1.2120  0.1342
 5596TIP3    H238280   0.577   1.186   2.401 -1.7939 -0.9890 -0.6848
 5597TIP3   OH238281   2.851   3.033   4.270 -0.0412  0.6167  0.0103
 5597TIP3    H138282   2.781   3.052   4.333  0.7921  2.2786  0.4900
 5597TIP3    H238283   2.892   3.118   4.254  2.1023 -0.3648  0.0082
 5598TIP3   OH238284   5.900   6.760  12.235  0.1994 -0.0933 -0.1346
 5598TIP3    H138285   5.896   6.770  12.330 -0.0402 -0.1626 -0.1359
 5598TIP3    H238286   5.835   6.821  12.202  0.9300  0.6001 -0.3048
 5599TIP3   OH238287   4.738   2.098   3.918 -0.1305 -0.3338  1.0168
 5599TIP3    H138288   4.750   2.004   3.904  0.0743 -0.0567 -1.0935
 5599TIP3    H238289   4.817   2.137   3.879 -0.4209  0.7314  1.4800
 5600TIP3   OH238290   0.153   5.501   2.033 -0.5850 -0.5495 -0.3317
 5600TIP3    H138291   0.122   5.497   2.124 -0.8954  0.0590 -0.4034
 5600TIP3    H238292   0.169   5.410   2.009  0.7409 -0.6297  0.7477
 5601TIP3   OH238293   3.983   5.291   5.053  0.9436  0.1528  0.1766
 5601TIP3    H138294   3.923   5.366   5.050  0.5508 -0.1782 -1.3521
 5601TIP3    H238295   4.044   5.307   4.980  0.7940 -1.0634 -0.2232
 5602TIP3   OH238296   2.017   2.507   3.952 -0.3426  0.6625  0.1417
 5602TIP3    H138297   2.008   2.493   3.858  0.8903  0.7177  0.0009
 5602TIP3    H238298   1.927   2.508   3.985 -0.8663  1.9658 -1.2227
 5603TIP3   OH238299   0.534   2.333   5.542  0.0812 -0.0300  0.0345
 5603TIP3    H138300   0.499   2.406   5.593 -2.2297  0.3371 -1.8484
 5603TIP3    H238301   0.621   2.318   5.577  1.6688  5.1166 -0.8935
 5604TIP3   OH238302   0.128   3.336  13.182  0.0445 -0.4869  0.1516
 5604TIP3    H138303   0.207   3.316  13.233  0.3410 -1.0284 -0.5028
 5604TIP3    H238304   0.156   3.328  13.091 -0.7639 -0.6457 -0.0887
 5605TIP3   OH238305   4.769   5.523   5.098 -0.4260 -0.0606  0.2837
 5605TIP3    H138306   4.682   5.558   5.121 -0.5607 -0.8393  1.0078
 5605TIP3    H238307   4.826   5.600   5.100 -0.6838  0.1376  2.0041
 5606TIP3   OH238308   6.728   4.755  14.042  0.3462  0.3837  0.0404
 5606TIP3    H138309   6.762   4.742  13.953 -3.3014 -0.1606 -1.4645
 5606TIP3    H238310   6.671   4.832  14.035  0.7856  0.9624  2.2139
 5607TIP3   OH238311   5.713   1.036  14.726  0.0232 -0.2389  0.2634
 5607TIP3    H138312   5.627   1.022  14.688 -0.4559  0.8444  0.8986
 5607TIP3    H238313   5.755   0.949  14.725  0.1104 -0.2532 -2.8017
 5608TIP3   OH238314   1.082   3.094   3.438  0.0419 -0.1242 -0.0210
 5608TIP3    H138315   1.096   3.189   3.441 -1.3973  0.1011  0.3225
 5608TIP3    H238316   1.075   3.068   3.530 -1.9975 -0.1298 -0.1263
 5609TIP3   OH238317   6.855   5.224  15.624  0.5418  0.3033 -0.1438
 5609TIP3    H138318   6.827   5.304  15.669  0.5091  0.9254 -1.2237
 5609TIP3    H238319   6.929   5.253  15.569 -0.1147 -0.1758 -1.3088
 5610TIP3   OH238320   0.778   0.502  16.079 -0.2714 -0.1417  0.3187
 5610TIP3    H138321   0.733   0.550  16.010 -0.4130 -1.1691 -0.3210
 5610TIP3    H238322   0.824   0.432  16.034 -0.9525 -1.2784  1.3259
 5611TIP3   OH238323   1.079   1.748  13.893 -0.0027 -0.3524  0.4445
 5611TIP3    H138324   0.988   1.757  13.922 -0.5081 -0.2980 -1.0370
 5611TIP3    H238325   1.117   1.683  13.952 -1.2612 -1.0088  0.5823
 5612TIP3   OH238326   2.816   3.732  13.586  0.9414  0.3659 -0.3717
 5612TIP3    H138327   2.733   3.727  13.634  1.2779  0.4112  0.2141
 5612TIP3    H238328   2.863   3.653  13.611  1.2900  0.5907 -0.3114
 5613TIP3   OH238329   2.118   5.683   6.116 -0.0929  0.2396  0.3274
 5613TIP3    H138330   2.183   5.715   6.178  0.7926 -1.7130  0.4823
 5613TIP3    H238331   2.156   5.603   6.079 -2.3375 -0.9366  0.3526
 5614TIP3   OH238332   0.774   2.140   1.599 -0.4482  0.2940 -0.1475
 5614TIP3    H138333   0.829   2.202   1.550 -0.4540 -0.3692 -1.0217
 5614TIP3    H238334   0.769   2.063   1.542 -1.3390 -0.0919  0.4380
 5615TIP3   OH238335   0.275   0.962  14.077  0.5430 -0.6644 -0.1070
 5615TIP3    H138336   0.322   0.879  14.062 -0.6351 -1.4751  0.5074
 5615TIP3    H238337   0.183   0.937  14.081  0.2209  0.5714  0.8877
 5616TIP3   OH238338   2.978   1.574   4.395 -0.0109  0.4861  0.7155
 5616TIP3    H138339   2.961   1.649   4.338 -1.3847  0.9686  1.7174
 5616TIP3    H238340   2.935   1.596   4.478  0.0111 -1.1717  1.2063
 5617TIP3   OH238341   6.068   6.355  14.556  0.6157 -0.0118  0.0844
 5617TIP3    H138342   6.127   6.378  14.628  0.9488 -2.1254  0.5636
 5617TIP3    H238343   6.126   6.344  14.481  0.5897 -0.1370  0.0816
 5618TIP3   OH238344   2.202   3.146   6.334  0.4504  0.7892 -0.4188
 5618TIP3    H138345   2.213   3.053   6.355 -1.5783  0.1521 -1.8929
 5618TIP3    H238346   2.247   3.157   6.250  0.9568  1.2592 -0.1010
 5619TIP3   OH238347   4.818   3.313   4.817 -0.4108 -0.6079  0.6225
 5619TIP3    H138348   4.745   3.312   4.755 -1.7357  0.3111  2.0866
 5619TIP3    H238349   4.885   3.258   4.776 -1.7758 -1.1990 -0.9376
 5620TIP3   OH238350   0.013   6.606   1.540 -0.4412 -0.3381 -0.4222
 5620TIP3    H138351   0.004   6.540   1.609 -0.5704  0.6223  0.4968
 5620TIP3    H238352   0.064   6.562   1.472  0.3014 -1.0933  0.5827
 5621TIP3   OH238353   5.947   6.000  15.783 -0.6214 -0.1857 -0.0539
 5621TIP3    H138354   5.867   6.020  15.733 -0.4078  1.0828  0.0807
 5621TIP3    H238355   5.922   5.925  15.837 -1.3239 -0.6263 -0.9488
 5622TIP3   OH238356   5.675   3.572   4.417  0.0095  0.4253 -0.8142
 5622TIP3    H138357   5.606   3.625   4.375 -0.8652  0.3050  0.4189
 5622TIP3    H238358   5.683   3.609   4.505  0.4637 -0.5242 -0.4511
 5623TIP3   OH238359   0.899   1.358   2.579 -0.0681 -0.6233  0.0443
 5623TIP3    H138360   0.960   1.286   2.560  0.6798 -0.1096  0.4955
 5623TIP3    H238361   0.866   1.339   2.666 -2.3682 -2.1641 -1.0477
 5624TIP3   OH238362   5.802   6.514  15.239 -0.3194  0.3612  0.0123
 5624TIP3    H138363   5.786   6.594  15.289  0.8087 -0.3322  1.5367
 5624TIP3    H238364   5.851   6.543  15.162 -1.2213  1.3049 -0.2360
 5625TIP3   OH238365   6.799   0.950  14.325 -0.0408 -0.4488 -0.6748
 5625TIP3    H138366   6.729   1.014  14.340 -0.2051 -0.3313 -1.8727
 5625TIP3    H238367   6.867   0.974  14.388 -0.0754  0.9644 -1.1387
 5626TIP3   OH238368   6.704   1.116  12.107  0.5093  0.5838  0.0075
 5626TIP3    H138369   6.726   1.202  12.072  1.1273  0.6832  0.6334
 5626TIP3    H238370   6.624   1.130  12.158  0.2979  0.6740 -0.3441
 5627TIP3   OH238371   6.071   1.129   0.163 -0.0852  0.1501  0.3177
 5627TIP3    H138372   6.166   1.140   0.165 -0.2217  1.4911  1.8522
 5627TIP3    H238373   6.037   1.219   0.158 -1.2746 -0.2123  1.4048
 5628TIP3   OH238374   0.870   2.453  14.304 -0.0482 -0.1547 -0.2421
 5628TIP3    H138375   0.793   2.508  14.287 -0.2467 -0.9597 -2.1878
 5628TIP3    H238376   0.937   2.515  14.332 -1.3820  0.5582  1.5597
 5629TIP3   OH238377   0.843   6.626  15.494  0.1726 -0.7398  0.1412
 5629TIP3    H138378   0.782   6.553  15.485  0.4172 -0.9316  0.0437
 5629TIP3    H238379   0.829   6.658  15.584 -0.0351 -0.8113  0.1357
 5630TIP3   OH238380   6.552   0.497   0.396 -0.4618  0.2789  0.2243
 5630TIP3    H138381   6.549   0.446   0.315  0.1362  0.8088 -0.1330
 5630TIP3    H238382   6.632   0.548   0.390 -1.1895  1.4897  0.4481
 5631TIP3   OH238383   0.764   0.027   5.125  0.1431 -0.1631 -0.5930
 5631TIP3    H138384   0.854   0.059   5.132 -0.3953  1.5100 -0.7257
 5631TIP3    H238385   0.765  -0.036   5.053  1.1215  0.1441 -0.8557
 5632TIP3   OH238386   2.070   2.512  10.926 -0.0480  0.3290  0.4844
 5632TIP3    H138387   2.131   2.441  10.906 -1.2566 -0.9138  1.0564
 5632TIP3    H238388   2.070   2.517  11.022 -1.6536 -0.4612  0.5568
 5633TIP3   OH238389   3.292   3.166  13.332  0.2552 -0.2624  0.0173
 5633TIP3    H138390   3.378   3.134  13.361  0.7340  1.4307  0.5829
 5633TIP3    H238391   3.244   3.182  13.412 -0.9251 -1.9225 -0.3042
 5634TIP3   OH238392   1.918   2.897  12.092 -0.0057  0.3823 -0.6849
 5634TIP3    H138393   1.831   2.858  12.080 -0.2031  0.1191  1.1801
 5634TIP3    H238394   1.978   2.834  12.054 -0.6367  0.8600 -2.5746
 5635TIP3   OH238395   2.059   6.800   1.847 -0.0009 -0.4285 -0.3166
 5635TIP3    H138396   2.094   6.738   1.911  0.7313  0.1686 -0.1286
 5635TIP3    H238397   1.972   6.822   1.880  0.3250 -0.2174  0.4105
 5636TIP3   OH238398   4.895   3.199  10.411 -0.1238  0.2142  0.0894
 5636TIP3    H138399   4.901   3.287  10.448  0.5230  0.2338 -0.0446
 5636TIP3    H238400   4.938   3.142  10.475  0.7206  0.2041 -0.4556
 5637TIP3   OH238401   0.240   3.159   5.112  0.0236  0.4276  0.3775
 5637TIP3    H138402   0.287   3.075   5.104 -0.9376 -0.0268 -0.6716
 5637TIP3    H238403   0.218   3.164   5.205  1.5141  0.3134  0.7623
 5638TIP3   OH238404   2.625   0.405   6.053  0.6068 -0.6066 -0.6920
 5638TIP3    H138405   2.605   0.490   6.016  1.1897  0.1786  0.7107
 5638TIP3    H238406   2.649   0.423   6.144  3.4785 -1.8871 -1.0546
 5639TIP3   OH238407   6.344   1.546  11.148  0.2279  0.0424 -0.1800
 5639TIP3    H138408   6.373   1.626  11.103  0.2238 -0.9597 -2.0449
 5639TIP3    H238409   6.418   1.486  11.141  1.9134  1.0729  4.7882
 5640TIP3   OH238410   0.670   0.735   4.077  0.1316  0.7417  0.3706
 5640TIP3    H138411   0.644   0.806   4.136 -0.6297  0.7356  0.0567
 5640TIP3    H238412   0.765   0.734   4.082  0.3014  2.8858 -0.8477
 5641TIP3   OH238413   0.108   6.097  10.831 -0.0778  0.6784 -0.3010
 5641TIP3    H138414   0.031   6.040  10.829 -0.5329  1.2969 -0.6187
 5641TIP3    H238415   0.165   6.063  10.762 -1.0155  1.5242 -1.5215
 5642TIP3   OH238416   2.455   1.496  11.343 -0.1308  0.2358  0.0095
 5642TIP3    H138417   2.542   1.530  11.365 -0.2219  1.2233 -1.0337
 5642TIP3    H238418   2.444   1.419  11.398  1.0941  0.5368  0.7086
 5643TIP3   OH238419   4.586   3.933  11.323  0.4757 -0.1946  0.4512
 5643TIP3    H138420   4.515   3.897  11.270  1.5272 -2.1926  0.3244
 5643TIP3    H238421   4.561   3.913  11.413 -0.1254  1.0073  0.5645
 5644TIP3   OH238422   1.891   1.458   0.193  0.3110 -0.8540  0.3387
 5644TIP3    H138423   1.823   1.412   0.143  0.7568 -0.8499 -0.2905
 5644TIP3    H238424   1.843   1.520   0.248 -0.1568 -0.2602 -0.7093
 5645TIP3   OH238425   6.402   5.664  14.110 -0.0047  0.0150 -0.5184
 5645TIP3    H138426   6.462   5.651  14.184 -2.5293  0.7531  1.8082
 5645TIP3    H238427   6.409   5.757  14.090  0.9203 -0.2444 -1.5135
 5646TIP3   OH238428   0.568   4.513  14.829  0.1313  0.1417  0.2574
 5646TIP3    H138429   0.629   4.545  14.895 -2.4514  1.9625  1.9961
 5646TIP3    H238430   0.510   4.453  14.877 -0.3458 -0.3894 -0.9469
 5647TIP3   OH238431   5.322   1.907   2.011 -0.2075 -0.2101 -0.3233
 5647TIP3    H138432   5.369   1.842   2.063 -1.3792 -0.8260  0.0104
 5647TIP3    H238433   5.380   1.983   2.009  1.5792 -1.5125 -1.4144
 5648TIP3   OH238434   2.885   6.144   3.472  0.0389 -0.0612 -0.0185
 5648TIP3    H138435   2.972   6.107   3.457 -0.1515  0.1083 -1.7053
 5648TIP3    H238436   2.893   6.236   3.449  0.5648  1.1931  4.3448
 5649TIP3   OH238437   1.872   4.223   0.780  0.1616  0.3385  0.1793
 5649TIP3    H138438   1.887   4.129   0.766  0.7475  0.4228  0.2054
 5649TIP3    H238439   1.943   4.250   0.839 -0.1565  0.7426  0.3779
 5650TIP3   OH238440   4.016   4.179   4.941  0.0730 -0.3040  0.2092
 5650TIP3    H138441   3.987   4.186   5.031  0.2401  0.9455  0.1877
 5650TIP3    H238442   4.089   4.117   4.943 -0.4247 -0.8801  0.7889
 5651TIP3   OH238443   2.736   5.293   1.214  0.4316  0.2788 -0.5297
 5651TIP3    H138444   2.691   5.363   1.166  1.0222  0.8145 -0.3218
 5651TIP3    H238445   2.792   5.340   1.277  1.5806 -0.3560 -1.0551
 5652TIP3   OH238446   2.771   6.532   2.700  0.1053 -0.3129  0.6139
 5652TIP3    H138447   2.777   6.461   2.636 -1.1423 -0.4808  0.6552
 5652TIP3    H238448   2.746   6.488   2.781 -0.0691  0.1100  0.7909
 5653TIP3   OH238449   0.557   1.249  13.187 -0.5138  0.1301  0.0251
 5653TIP3    H138450   0.615   1.303  13.133 -0.6929 -0.7578 -1.1108
 5653TIP3    H238451   0.469   1.272  13.157 -0.6212 -0.3146 -0.0075
 5654TIP3   OH238452   3.091   6.488  12.670  0.0687 -0.0378 -0.1671
 5654TIP3    H138453   3.056   6.424  12.733  1.5381  0.6719  1.4648
 5654TIP3    H238454   3.047   6.570  12.692 -1.6104 -0.3539 -2.0810
 5655TIP3   OH238455   2.717   5.807   5.579 -0.1504  0.0208  0.1860
 5655TIP3    H138456   2.680   5.891   5.606 -0.6010 -0.4813  1.1717
 5655TIP3    H238457   2.722   5.813   5.484  1.1112  1.6847  0.3090
 5656TIP3   OH238458   0.499   3.087   3.722  0.2529 -0.2239 -0.2404
 5656TIP3    H138459   0.424   3.028   3.724 -0.0844  0.1933 -0.5071
 5656TIP3    H238460   0.461   3.174   3.709  0.5539  0.3571  2.2334
 5657TIP3   OH238461   4.639   1.377  12.519 -0.1522 -0.4843  0.2039
 5657TIP3    H138462   4.657   1.418  12.604  1.6197  2.5874 -1.4961
 5657TIP3    H238463   4.560   1.422  12.487  1.1256  0.8903 -1.1680
 5658TIP3   OH238464   3.487   5.838   0.382  0.3185  0.1957  0.5484
 5658TIP3    H138465   3.574   5.827   0.345  0.5414  1.4608  0.6564
 5658TIP3    H238466   3.478   5.767   0.445  0.8712 -0.5386 -0.1864
 5659TIP3   OH238467   0.899   6.564  13.013 -0.0940 -0.2579  0.4010
 5659TIP3    H138468   0.930   6.655  13.020 -1.6725  0.5033 -1.4269
 5659TIP3    H238469   0.972   6.511  13.045  1.1379  1.6181  0.8720
 5660TIP3   OH238470   2.170   3.627  11.512  0.3093 -0.1143  0.2349
 5660TIP3    H138471   2.082   3.635  11.475  0.8341 -0.2452 -1.1122
 5660TIP3    H238472   2.206   3.549  11.470  2.1360  1.5847 -1.6102
 5661TIP3   OH238473   4.652   0.705   3.113  0.0640 -0.0225  0.4381
 5661TIP3    H138474   4.667   0.775   3.050 -0.0215 -0.5891 -0.2228
 5661TIP3    H238475   4.661   0.747   3.199  0.5280  0.6770  0.0510
 5662TIP3   OH238476   0.063   3.683  12.483  0.0886 -0.7181  0.0983
 5662TIP3    H138477  -0.006   3.618  12.491 -0.8952  0.1505 -0.9895
 5662TIP3    H238478   0.045   3.727  12.400  0.0022  1.7283  1.3190
 5663TIP3   OH238479   5.795   4.590  16.910  0.1127  0.2045 -0.2155
 5663TIP3    H138480   5.783   4.594  16.815 -1.6960  0.1037 -0.0331
 5663TIP3    H238481   5.738   4.659  16.944 -0.6207 -0.8807  0.8633
 5664TIP3   OH238482   2.811   6.154  11.460 -0.2556 -0.0520 -0.0056
 5664TIP3    H138483   2.807   6.238  11.413  3.5090 -0.0632 -0.6915
 5664TIP3    H238484   2.834   6.090  11.393 -0.5324 -1.1864  0.9484
 5665TIP3   OH238485   6.011   2.197  13.065  0.1109  0.0897 -0.4604
 5665TIP3    H138486   5.917   2.181  13.069  0.2623 -1.7106 -2.1703
 5665TIP3    H238487   6.027   2.228  12.975  1.1133  0.7355 -0.0829
 5666TIP3   OH238488   3.518   0.505  16.057  0.1649  0.0994  0.2691
 5666TIP3    H138489   3.480   0.428  16.099  0.2912  0.8574  1.8471
 5666TIP3    H238490   3.551   0.559  16.129  2.5049  0.3896 -0.9092
 5667TIP3   OH238491   5.323   1.731   0.971 -0.1343 -0.6347 -0.8156
 5667TIP3    H138492   5.353   1.748   0.882  0.0888  0.3307 -0.5703
 5667TIP3    H238493   5.333   1.636   0.982 -0.5356 -0.8174 -1.9392
 5668TIP3   OH238494   2.205   6.125   5.907  0.4109  0.1714  0.1199
 5668TIP3    H138495   2.260   6.084   5.841  1.5485  2.2506 -0.3140
 5668TIP3    H238496   2.244   6.098   5.990  1.5545  0.8659 -0.1677
 5669TIP3   OH238497   2.875   3.294   3.326  0.2725  0.3012 -0.1528
 5669TIP3    H138498   2.874   3.372   3.381 -2.6466  0.6273 -0.5393
 5669TIP3    H238499   2.900   3.327   3.239 -0.5662  0.7448 -0.2279
 5670TIP3   OH238500   1.282   3.374   5.773 -0.0089  0.0127 -0.0999
 5670TIP3    H138501   1.253   3.436   5.839 -1.5068  0.7841 -1.4063
 5670TIP3    H238502   1.339   3.314   5.820 -0.1853  1.1327  1.6518
 5671TIP3   OH238503   6.523   3.005   5.192 -0.1199 -0.1440 -0.2379
 5671TIP3    H138504   6.533   3.054   5.273 -0.4945 -0.1566 -0.1838
 5671TIP3    H238505   6.592   3.040   5.134 -0.3189  0.3761 -0.1687
 5672TIP3   OH238506   3.211   0.221  13.668 -0.1204  0.8512 -0.8074
 5672TIP3    H138507   3.183   0.302  13.711 -0.1078  1.4391 -1.8910
 5672TIP3    H238508   3.284   0.190  13.721  1.7225  3.0533 -1.9401
 5673TIP3   OH238509   1.341   2.847   6.181 -0.3523  0.3360 -0.3553
 5673TIP3    H138510   1.329   2.872   6.089 -0.4609  2.0947  0.1048
 5673TIP3    H238511   1.335   2.929   6.229  1.0039 -0.3868  1.1210
 5674TIP3   OH238512   5.082   5.302   3.259 -0.0888  0.2427  0.2705
 5674TIP3    H138513   5.060   5.215   3.291 -2.0169  1.1748  1.6537
 5674TIP3    H238514   4.998   5.340   3.231  0.8211  1.3682 -1.1219
 5675TIP3   OH238515   6.102   2.563  15.244  0.0758  0.5600 -0.8217
 5675TIP3    H138516   6.062   2.609  15.169 -0.2299 -0.2756 -1.1862
 5675TIP3    H238517   6.148   2.489  15.205 -0.0069  0.1669 -0.1857
 5676TIP3   OH238518   6.801   4.684  11.570  0.4503 -0.3098  0.1883
 5676TIP3    H138519   6.758   4.755  11.618  1.0160  0.4530 -0.4012
 5676TIP3    H238520   6.887   4.676  11.611  0.3471 -0.7366  0.3250
 5677TIP3   OH238521   0.681   6.386  15.504  0.8510  0.1982  0.1116
 5677TIP3    H138522   0.676   6.350  15.416  4.3176 -1.2523  0.3321
 5677TIP3    H238523   0.744   6.330  15.549  0.3720  1.8135  3.0590
 5678TIP3   OH238524   3.837   0.419  11.992 -0.3328  0.6495  0.2951
 5678TIP3    H138525   3.791   0.422  11.908  0.0715 -1.5565 -0.0504
 5678TIP3    H238526   3.874   0.507  12.002 -2.5849  1.7907 -0.5331
 5679TIP3   OH238527   4.240   3.837  11.376  0.3462 -0.5187 -0.2526
 5679TIP3    H138528   4.205   3.917  11.338 -0.3876 -0.9968 -0.6061
 5679TIP3    H238529   4.194   3.828  11.460  0.8601 -0.2645  0.0639
 5680TIP3   OH238530   0.661   5.851   3.833  0.0066 -0.3286  0.4822
 5680TIP3    H138531   0.594   5.901   3.880  0.4167  0.6411  0.0557
 5680TIP3    H238532   0.616   5.820   3.754  0.1795  0.7659 -0.0681
 5681TIP3   OH238533   1.068   4.973   0.942  0.1757 -0.2911  0.1182
 5681TIP3    H138534   1.069   5.023   0.860  1.5363  0.5405  0.6021
 5681TIP3    H238535   1.160   4.952   0.957 -0.0421 -0.3027  1.5054
 5682TIP3   OH238536   1.923   4.651   3.864  0.0576 -0.1071 -0.2085
 5682TIP3    H138537   1.900   4.722   3.803 -1.6466 -0.2755  0.1814
 5682TIP3    H238538   1.890   4.572   3.822 -1.1914 -0.2171  0.9157
 5683TIP3   OH238539   3.190   4.272  16.572  0.0824 -0.3607 -0.4991
 5683TIP3    H138540   3.231   4.324  16.503 -1.5780  0.4301 -0.9458
 5683TIP3    H238541   3.230   4.304  16.653  0.6486  0.0781 -0.9424
 5684TIP3   OH238542   3.928   2.412   6.097 -0.1976  0.7908 -0.1196
 5684TIP3    H138543   4.017   2.383   6.080 -0.0189  1.0997  0.2641
 5684TIP3    H238544   3.918   2.494   6.048 -0.4946  0.4163 -0.6982
 5685TIP3   OH238545   0.505   6.767   1.492 -0.3317 -0.3086  0.1396
 5685TIP3    H138546   0.488   6.859   1.513  1.0902  0.1793 -0.7377
 5685TIP3    H238547   0.580   6.744   1.546 -1.1690 -1.2268  0.9563
 5686TIP3   OH238548   4.799   3.485   3.802 -0.0422 -0.5972  0.4373
 5686TIP3    H138549   4.777   3.541   3.727 -0.3825 -0.9550  0.2661
 5686TIP3    H238550   4.807   3.545   3.876 -1.7735 -0.4529  0.5574
 5687TIP3   OH238551   4.287   1.665  16.535 -0.2708 -0.1507  0.2256
 5687TIP3    H138552   4.215   1.688  16.476 -1.3300 -1.1496  1.0826
 5687TIP3    H238553   4.258   1.584  16.577  1.3252 -0.5193  0.6695
 5688TIP3   OH238554   1.552   5.274  14.986  0.0948 -0.6494 -0.0525
 5688TIP3    H138555   1.535   5.231  15.070  0.2052  0.7417  0.7157
 5688TIP3    H238556   1.639   5.244  14.961  1.2247  0.8914  1.6806
 5689TIP3   OH238557   2.807   0.455   5.039 -0.0770 -0.0017 -0.3312
 5689TIP3    H138558   2.853   0.518   4.984  4.0022 -1.0533  1.5009
 5689TIP3    H238559   2.820   0.487   5.128 -1.3827 -1.3874  0.4122
 5690TIP3   OH238560   2.904   6.504   3.085 -0.2188 -0.4551  0.1913
 5690TIP3    H138561   2.906   6.440   3.014  1.9699 -0.9972  0.6773
 5690TIP3    H238562   2.915   6.453   3.165 -1.7267  0.2377  0.8769
 5691TIP3   OH238563   6.741   5.238  13.358  0.2799 -0.4026 -0.6169
 5691TIP3    H138564   6.816   5.198  13.315  1.2878  0.9218 -0.1737
 5691TIP3    H238565   6.763   5.239  13.451  0.8172  2.0456 -0.6821
 5692TIP3   OH238566   6.020   2.601   5.792  0.0226 -0.2282  0.0921
 5692TIP3    H138567   6.011   2.539   5.864  2.7100 -1.0426 -0.1548
 5692TIP3    H238568   5.986   2.555   5.715  0.2617 -0.6648  0.2463
 5693TIP3   OH238569   4.299   6.189  14.349 -0.0416 -0.3099  0.4423
 5693TIP3    H138570   4.343   6.274  14.353 -0.9242  0.3709 -2.2999
 5693TIP3    H238571   4.348   6.140  14.283  0.5190 -2.0492  2.0520
 5694TIP3   OH238572   2.443   2.228  13.348  0.6527 -0.0492 -0.1948
 5694TIP3    H138573   2.368   2.204  13.293 -0.1116  1.1357  0.2824
 5694TIP3    H238574   2.425   2.318  13.374  1.4753 -0.2644  1.2140
 5695TIP3   OH238575   5.300   4.953  11.277 -0.0531 -0.1740 -0.4691
 5695TIP3    H138576   5.374   4.967  11.335 -0.0578  0.0471 -0.5155
 5695TIP3    H238577   5.339   4.938  11.191 -0.0777  0.5938 -0.6232
 5696TIP3   OH238578   1.783   1.441  10.940  0.5010  0.1359  0.0973
 5696TIP3    H138579   1.879   1.449  10.940  0.4972  0.1834  0.3192
 5696TIP3    H238580   1.767   1.353  10.907  0.6474 -0.1500  0.7727
 5697TIP3   OH238581   4.697   4.613  13.548  0.0048 -0.5949  0.1705
 5697TIP3    H138582   4.669   4.628  13.639 -1.5925 -2.8432  0.1287
 5697TIP3    H238583   4.782   4.657  13.541  0.0096 -0.0787  2.6317
 5698TIP3   OH238584   2.664   4.154  16.893  0.2392 -0.5663 -0.0078
 5698TIP3    H138585   2.636   4.122  16.978 -1.8424  0.6451 -0.1647
 5698TIP3    H238586   2.730   4.221  16.912 -1.5560  1.0440  0.8243
 5699TIP3   OH238587   6.255   3.321   4.500  0.6099 -0.4874 -0.3360
 5699TIP3    H138588   6.311   3.303   4.424  1.5429  0.7006  0.0525
 5699TIP3    H238589   6.282   3.407   4.530 -1.1513 -0.0487  0.1225
 5700TIP3   OH238590   4.821   3.692   1.731  0.2787 -0.0349 -0.7493
 5700TIP3    H138591   4.808   3.786   1.725  1.4256  0.3158  1.2534
 5700TIP3    H238592   4.782   3.668   1.815  0.8774 -1.1831 -0.7842
 5701TIP3   OH238593   4.280   0.930  16.940  0.8329 -0.3521  0.6527
 5701TIP3    H138594   4.224   0.860  16.906  0.7483  0.8232 -1.8349
 5701TIP3    H238595   4.221   1.005  16.951  1.4352  0.1549  0.5111
 5702TIP3   OH238596   1.643   0.216  12.828  0.2987 -0.0321  0.2056
 5702TIP3    H138597   1.609   0.261  12.751  0.8199 -0.9501 -0.5884
 5702TIP3    H238598   1.589   0.248  12.900 -3.7818 -2.8526 -1.1942
 5703TIP3   OH238599   4.766   0.506   0.968  1.4054  0.7453  0.3210
 5703TIP3    H138600   4.693   0.488   1.028  1.9597 -0.0071  0.7837
 5703TIP3    H238601   4.726   0.555   0.897  0.5569  0.8704  0.8632
 5704TIP3   OH238602   4.443   3.966   6.844 -0.6734 -0.1396  0.0632
 5704TIP3    H138603   4.505   3.972   6.772  0.2101  0.7521  0.8733
 5704TIP3    H238604   4.484   3.907   6.907 -1.2497 -0.5816  0.0327
 5705TIP3   OH238605   6.345   6.634  13.927  0.1290 -0.4854  0.0462
 5705TIP3    H138606   6.323   6.583  13.849  0.1904  0.4013 -0.5551
 5705TIP3    H238607   6.339   6.725  13.900 -0.3172 -0.1448  1.2054
 5706TIP3   OH238608   6.183   1.838   5.861  0.4402 -0.3394 -0.0099
 5706TIP3    H138609   6.267   1.869   5.897  0.8388 -0.6857 -0.6297
 5706TIP3    H238610   6.165   1.757   5.909  0.8373 -0.6593 -0.3898
 5707TIP3   OH238611   1.238   2.221   4.896 -1.1283  0.3971  0.0694
 5707TIP3    H138612   1.318   2.180   4.932  0.7067  3.1066 -0.6368
 5707TIP3    H238613   1.188   2.147   4.861  0.3165 -1.5841  1.8765
 5708TIP3   OH238614   6.077   1.025   4.936 -0.0547  0.4938  0.6285
 5708TIP3    H138615   6.040   1.074   5.010  2.8451 -0.0796  2.6242
 5708TIP3    H238616   6.035   0.939   4.940 -0.9749  0.9352  0.6753
 5709TIP3   OH238617   1.635   6.720  12.952 -0.5335  0.7623 -0.2064
 5709TIP3    H138618   1.545   6.690  12.959 -0.0411 -0.6331  0.4993
 5709TIP3    H238619   1.651   6.730  12.858 -0.3560 -2.4953 -0.6083
 5710TIP3   OH238620   0.383   2.565  12.855  0.2350 -0.0187 -0.1431
 5710TIP3    H138621   0.418   2.652  12.874  0.6502 -0.0988 -0.5322
 5710TIP3    H238622   0.294   2.581  12.824 -0.2950  0.1537  1.3609
 5711TIP3   OH238623   0.030   3.441  16.789  0.2100  0.1834  0.0480
 5711TIP3    H138624  -0.005   3.530  16.782  0.1303  0.0732 -1.4775
 5711TIP3    H238625   0.090   3.434  16.714  0.9892 -0.7103  0.7440
 5712TIP3   OH238626   4.337   6.243   0.497  0.2765  0.0081  0.3988
 5712TIP3    H138627   4.283   6.287   0.431 -0.2843 -2.1481 -0.6801
 5712TIP3    H238628   4.300   6.270   0.581  0.2583  1.8958 -0.1764
 5713TIP3   OH238629   3.231   5.570  16.439 -0.0851 -0.3962  0.3749
 5713TIP3    H138630   3.276   5.488  16.417 -0.0160  0.3888 -2.9324
 5713TIP3    H238631   3.189   5.597  16.357  0.0177  2.9631  1.2885
 5714TIP3   OH238632   5.023   0.068  14.730 -0.2135  0.3185 -0.0448
 5714TIP3    H138633   5.020   0.153  14.773  0.4498  0.6691 -0.6549
 5714TIP3    H238634   5.117   0.049  14.721 -0.3548 -0.4069 -0.0452
 5715TIP3   OH238635   5.833   1.179   4.673 -0.3637  0.4161  0.2861
 5715TIP3    H138636   5.857   1.250   4.734 -2.1910  1.2276  0.1262
 5715TIP3    H238637   5.760   1.135   4.716 -0.2621 -0.3870 -0.3479
 5716TIP3   OH238638   2.030   1.461  11.025 -0.8048  0.2520 -0.1038
 5716TIP3    H138639   1.980   1.458  11.107 -1.6390 -0.8186 -0.6290
 5716TIP3    H238640   2.121   1.459  11.053 -1.0741  0.2826  0.8178
 5717TIP3   OH238641   5.718   5.992  10.885 -0.0127  0.1405 -0.2433
 5717TIP3    H138642   5.710   5.941  10.804  2.3236 -0.9734  0.1585
 5717TIP3    H238643   5.773   5.939  10.942 -1.6534  0.8386  2.1847
 5718TIP3   OH238644   3.535   0.015   3.851 -0.2574  0.4249  0.4093
 5718TIP3    H138645   3.575   0.010   3.938  1.4759 -2.0720 -0.4181
 5718TIP3    H238646   3.490  -0.069   3.840  0.0609  0.4425 -1.3243
 5719TIP3   OH238647   5.088   4.883  13.744  1.0829  0.4654 -0.7721
 5719TIP3    H138648   5.161   4.943  13.726  0.0314  2.3555  0.8120
 5719TIP3    H238649   5.087   4.876  13.840  0.5145 -1.3125 -0.8784
 5720TIP3   OH238650   3.081   1.552  13.947 -0.1463 -0.6396  0.3682
 5720TIP3    H138651   3.061   1.589  13.861  2.7923  0.0109 -0.1457
 5720TIP3    H238652   3.101   1.460  13.929  0.2317 -0.5614  0.3821
 5721TIP3   OH238653   4.648   1.018  15.430 -0.2352 -0.8720  0.8113
 5721TIP3    H138654   4.558   0.997  15.454 -0.6573  0.0002  0.0894
 5721TIP3    H238655   4.682   1.068  15.504 -0.2560 -1.4175  1.1919
 5722TIP3   OH238656   0.592   4.397   4.614  0.2602 -0.3257 -0.3207
 5722TIP3    H138657   0.542   4.475   4.640  1.1685 -0.1504  0.9922
 5722TIP3    H238658   0.531   4.347   4.559  0.0237  1.8372 -2.1993
 5723TIP3   OH238659   2.613   0.747  13.345 -0.3034  0.2461  0.4578
 5723TIP3    H138660   2.531   0.718  13.385 -0.8111  0.5815 -0.3146
 5723TIP3    H238661   2.596   0.746  13.251 -0.0240  2.0619  0.3416
 5724TIP3   OH238662   6.283   6.198  11.668 -0.3056  0.1750 -0.1569
 5724TIP3    H138663   6.322   6.216  11.753 -1.5887  1.2148  0.2516
 5724TIP3    H238664   6.232   6.277  11.648 -0.6469 -0.3651 -1.5301
 5725TIP3   OH238665   2.681   2.900  15.213  0.5567  0.0621 -0.4813
 5725TIP3    H138666   2.616   2.849  15.165  0.2571  0.0208 -0.0342
 5725TIP3    H238667   2.701   2.847  15.291 -0.9907  1.3419  0.8613
 5726TIP3   OH238668   6.439   3.827   4.871  0.1562 -0.1564 -0.2198
 5726TIP3    H138669   6.468   3.896   4.931 -1.4276  0.4523 -0.1110
 5726TIP3    H238670   6.393   3.765   4.927  2.1689 -1.7194 -0.2004
 5727TIP3   OH238671   5.345   4.309  11.271  0.1321  0.0232 -0.3912
 5727TIP3    H138672   5.363   4.349  11.355 -0.4208  2.7400 -1.4623
 5727TIP3    H238673   5.289   4.234  11.291  0.1072  0.5468  1.6341
 5728TIP3   OH238674   4.309   5.711  13.482 -0.1874  0.3256  0.3049
 5728TIP3    H138675   4.219   5.726  13.510 -0.9046  0.0360 -1.6785
 5728TIP3    H238676   4.347   5.657  13.551 -1.4180  0.7032  1.3260
 5729TIP3   OH238677   3.646   5.195   4.633  0.6467 -0.3890  0.5633
 5729TIP3    H138678   3.709   5.223   4.700 -1.3312  2.0817  1.5764
 5729TIP3    H238679   3.580   5.145   4.681 -0.4572  0.8603  0.4087
 5730TIP3   OH238680   1.863   0.058   3.993 -0.1898  0.9264  0.4945
 5730TIP3    H138681   1.812   0.012   4.060  1.1698 -0.9673  0.2971
 5730TIP3    H238682   1.881  -0.008   3.926  1.7240  1.7505  0.1269
 5731TIP3   OH238683   1.502   4.229  11.174  0.4333  0.1888 -0.0787
 5731TIP3    H138684   1.549   4.297  11.124 -0.4367 -0.5722 -2.0555
 5731TIP3    H238685   1.553   4.149  11.158 -0.2980 -0.2165 -0.4527
 5732TIP3   OH238686   0.363   5.799  10.444  0.5081 -0.1708 -0.2312
 5732TIP3    H138687   0.405   5.777  10.361  1.1266 -1.0443  0.3015
 5732TIP3    H238688   0.328   5.717  10.477 -0.4054  0.3016  0.0225
 5733TIP3   OH238689   3.733   2.622   4.259  0.3306 -0.0559  0.0426
 5733TIP3    H138690   3.779   2.691   4.212 -1.3499  1.9676  1.1990
 5733TIP3    H238691   3.685   2.575   4.191  0.8163  0.4419 -0.6664
 5734TIP3   OH238692   2.374   1.172   4.509  0.4133  0.4618  0.4048
 5734TIP3    H138693   2.445   1.190   4.448  2.2285 -0.3182  2.1507
 5734TIP3    H238694   2.324   1.101   4.467  0.6598  1.0020 -0.8442
 5735TIP3   OH238695   3.352   2.620   6.193  0.0367  0.3193  0.1365
 5735TIP3    H138696   3.262   2.591   6.203  0.2087 -1.1416 -1.8951
 5735TIP3    H238697   3.346   2.707   6.153 -0.4341  1.4828  2.5480
 5736TIP3   OH238698   1.145   2.799  14.041 -0.5933  0.3808  0.4737
 5736TIP3    H138699   1.082   2.820  13.973 -1.5540  0.4241  1.3599
 5736TIP3    H238700   1.171   2.708  14.022 -2.4746 -0.3756  1.2482
 5737TIP3   OH238701   6.288   3.110   0.270  0.3545  0.2921  0.1058
 5737TIP3    H138702   6.231   3.181   0.300  2.5482  1.5509  1.6137
 5737TIP3    H238703   6.256   3.032   0.316 -0.5291  0.8197  0.4191
 5738TIP3   OH238704   6.485   5.485   0.441 -0.5120 -0.3896 -0.0668
 5738TIP3    H138705   6.551   5.442   0.387  0.7340  0.0022  1.0968
 5738TIP3    H238706   6.535   5.529   0.509 -1.8824  1.2938 -0.1023
 5739TIP3   OH238707   6.817   4.559   0.631 -0.0057  0.0205  0.4436
 5739TIP3    H138708   6.829   4.654   0.636 -0.6920  0.3968 -2.7509
 5739TIP3    H238709   6.722   4.548   0.627  0.0964 -0.7211  0.0296
 5740TIP3   OH238710   6.373   0.695  15.503 -0.4393 -0.3661  0.1625
 5740TIP3    H138711   6.368   0.625  15.438 -0.4822  0.1901 -0.4528
 5740TIP3    H238712   6.412   0.654  15.580 -0.4684 -1.0644 -0.1842
 5741TIP3   OH238713   1.928   6.708   5.020  0.0707  0.4220  0.4718
 5741TIP3    H138714   1.962   6.797   5.016 -0.7590  0.7555  0.5305
 5741TIP3    H238715   1.895   6.699   5.110  0.2087  0.0383  0.4848
 5742TIP3   OH238716   1.333   3.627  12.386 -0.5726  0.6863  0.4432
 5742TIP3    H138717   1.251   3.638  12.435  0.3051  2.0854  1.6923
 5742TIP3    H238718   1.378   3.710  12.396  0.5234  0.3464 -1.1974
 5743TIP3   OH238719   6.479   4.363  13.055  0.5193  0.0976 -0.0094
 5743TIP3    H138720   6.464   4.454  13.082 -1.2216 -0.3422  0.6433
 5743TIP3    H238721   6.475   4.365  12.960  2.6560  1.0208 -0.1310
 5744TIP3   OH238722   1.566   3.905  11.902 -0.4171  0.6005 -0.2238
 5744TIP3    H138723   1.506   3.937  11.969 -0.2428  0.7191 -0.1257
 5744TIP3    H238724   1.652   3.905  11.944 -0.4335 -0.1257 -0.1724
 5745TIP3   OH238725   4.754   5.923  11.489 -0.1893  0.5350 -0.4668
 5745TIP3    H138726   4.665   5.929  11.524 -0.6700 -1.8339 -1.0964
 5745TIP3    H238727   4.806   5.889  11.562  0.0899  1.3354 -0.2836
 5746TIP3   OH238728   4.225   2.367   1.966 -0.0514 -0.6693  0.1949
 5746TIP3    H138729   4.290   2.422   1.921  0.2190  0.3714  1.7716
 5746TIP3    H238730   4.277   2.310   2.022 -0.4528  0.1441  1.4382
 5747TIP3   OH238731   0.987   0.148   5.917  0.2615  0.1412 -0.2354
 5747TIP3    H138732   0.951   0.124   6.002 -0.5177  0.5397 -0.4390
 5747TIP3    H238733   0.974   0.070   5.863 -0.0729  0.1958 -0.2359
 5748TIP3   OH238734   0.626   2.375  12.096  0.1543 -0.2043 -0.2453
 5748TIP3    H138735   0.694   2.361  12.030 -0.4510 -0.6058 -0.7948
 5748TIP3    H238736   0.597   2.465  12.082 -0.0481 -0.3230 -0.6019
 5749TIP3   OH238737   1.251   6.766  13.218 -0.5824  0.1987  0.4724
 5749TIP3    H138738   1.284   6.757  13.307  0.6353  0.0664  0.0342
 5749TIP3    H238739   1.323   6.734  13.163 -1.4362 -0.0318 -0.5400
 5750TIP3   OH238740   5.513   0.668  12.662  0.2539  0.1573 -0.7028
 5750TIP3    H138741   5.436   0.613  12.650 -0.2749  0.7495 -0.0713
 5750TIP3    H238742   5.562   0.625  12.732  0.3612 -0.0680 -0.9147
 5751TIP3   OH238743   0.620   2.962   1.934 -0.4133 -0.4331  0.5053
 5751TIP3    H138744   0.623   3.022   2.009 -1.2915  0.7666 -0.3790
 5751TIP3    H238745   0.549   2.996   1.880  0.1845 -1.2996 -0.8471
 5752TIP3   OH238746   3.958   4.234   5.207 -0.6885 -0.6062  0.9459
 5752TIP3    H138747   4.049   4.250   5.231 -0.0849 -0.5314 -1.2616
 5752TIP3    H238748   3.915   4.319   5.222 -0.3524 -0.5442  1.6330
 5753TIP3   OH238749   1.508   1.045  16.960  0.1330  0.0099 -0.0801
 5753TIP3    H138750   1.499   0.990  17.038 -1.8248 -1.4283 -1.2433
 5753TIP3    H238751   1.550   0.990  16.895 -2.7529 -0.6080 -1.5878
 5754TIP3   OH238752   0.889   4.142   6.579  0.2994 -0.0908 -0.3016
 5754TIP3    H138753   0.969   4.101   6.610  0.0338  0.4447  1.1703
 5754TIP3    H238754   0.911   4.176   6.492  1.4006 -0.7057 -0.2720
 5755TIP3   OH238755   0.759   5.627   5.029  0.2990  0.3397 -0.1542
 5755TIP3    H138756   0.788   5.659   4.944  0.7416 -0.4828 -0.3272
 5755TIP3    H238757   0.755   5.532   5.019  2.4708  0.0179  1.3655
 5756TIP3   OH238758   0.912   6.627  16.399  0.5730  0.0382  0.1332
 5756TIP3    H138759   0.980   6.690  16.422  0.3881 -0.1029  1.1424
 5756TIP3    H238760   0.832   6.662  16.440  0.2970 -0.4194 -0.0061
 5757TIP3   OH238761   3.255   4.158   3.322 -0.0241 -0.1342 -0.0311
 5757TIP3    H138762   3.316   4.088   3.345 -0.8010 -0.2290  1.8989
 5757TIP3    H238763   3.237   4.202   3.405 -0.4860  1.6139 -1.0165
 5758TIP3   OH238764   1.080   3.213  13.377 -0.0907 -0.3423 -0.3800
 5758TIP3    H138765   1.170   3.206  13.409  0.5493  0.0328 -1.9998
 5758TIP3    H238766   1.027   3.217  13.456  1.1294 -2.4780  0.6470
 5759TIP3   OH238767   6.552   1.600   3.975 -0.2630 -0.2331 -0.0812
 5759TIP3    H138768   6.469   1.648   3.969 -0.5256 -0.6687  0.0003
 5759TIP3    H238769   6.550   1.539   3.902 -0.2781 -0.6431  0.2540
 5760TIP3   OH238770   6.732   5.625   3.701 -0.0647  0.1150  0.6476
 5760TIP3    H138771   6.813   5.674   3.712  0.0058 -0.1743  1.4660
 5760TIP3    H238772   6.699   5.613   3.790 -1.6891  1.3755  0.2529
 5761TIP3   OH238773   6.081   0.705   5.713  0.2493 -0.5782 -0.3380
 5761TIP3    H138774   5.993   0.716   5.748  0.4716  0.1078  0.0065
 5761TIP3    H238775   6.139   0.718   5.788  0.7844  1.9480 -1.1080
 5762TIP3   OH238776   6.460   3.153   2.107  0.1013 -0.3606 -0.8458
 5762TIP3    H138777   6.535   3.117   2.154 -0.5006 -1.0448 -0.3733
 5762TIP3    H238778   6.412   3.076   2.077 -0.8236  0.0458 -0.4455
 5763TIP3   OH238779   2.011   3.488   0.604 -0.0155  0.1884 -0.1515
 5763TIP3    H138780   2.004   3.559   0.540 -0.7973  0.4698  0.2260
 5763TIP3    H238781   2.003   3.408   0.553  0.9526  0.3609 -0.5941
 5764TIP3   OH238782   1.163   2.151  15.933  0.5541  0.1210 -0.5720
 5764TIP3    H138783   1.238   2.211  15.933 -0.9724  2.1258 -0.8184
 5764TIP3    H238784   1.157   2.121  16.024 -1.6710  4.5503  1.0616
 5765TIP3   OH238785   2.028   4.829   5.893  0.3445 -0.2316 -0.1308
 5765TIP3    H138786   2.021   4.799   5.983  0.8933 -0.9258 -0.3158
 5765TIP3    H238787   1.969   4.905   5.889  0.4855 -0.0561  0.8597
 5766TIP3   OH238788   6.063   2.774  16.038 -0.3430  0.4086 -0.5230
 5766TIP3    H138789   6.091   2.751  15.950 -0.7838 -1.4535 -0.2225
 5766TIP3    H238790   6.109   2.856  16.057  0.4872  0.3597 -2.1164
 5767TIP3   OH238791   1.220   1.427   0.549  0.4285  0.0627  0.1017
 5767TIP3    H138792   1.210   1.369   0.624  0.2693 -0.2432 -0.1561
 5767TIP3    H238793   1.205   1.372   0.473  0.3444  0.4250 -0.1490
 5768TIP3   OH238794   2.177   1.990  11.236  0.0430 -0.0058  0.7884
 5768TIP3    H138795   2.083   1.970  11.246  0.1039 -1.0744 -0.4471
 5768TIP3    H238796   2.183   2.033  11.151  0.3756  2.4936  1.9953
 5769TIP3   OH238797   5.385   6.489  13.488 -0.7103 -0.1523  0.1435
 5769TIP3    H138798   5.340   6.552  13.544 -1.4909 -0.7361  0.1802
 5769TIP3    H238799   5.389   6.409  13.539  1.1260  0.0889  0.4797
 5770TIP3   OH238800   4.022   1.727  16.408 -0.1477  0.4454  0.3057
 5770TIP3    H138801   3.931   1.705  16.387 -0.0074  0.4569 -0.3352
 5770TIP3    H238802   4.045   1.796  16.345 -0.1509  1.4669  1.3929
 5771TIP3   OH238803   1.040   4.406   4.638  0.0545  0.2877  0.2200
 5771TIP3    H138804   0.956   4.397   4.593 -1.1917 -1.2534  2.6461
 5771TIP3    H238805   1.105   4.383   4.572 -1.4120  1.0939 -1.6106
 5772TIP3   OH238806   4.066   2.038  14.351 -0.2360 -0.3505 -0.0870
 5772TIP3    H138807   4.106   1.951  14.343  0.1897 -0.1593 -0.0427
 5772TIP3    H238808   4.003   2.042  14.279  2.5987  0.8476 -2.7152
 5773TIP3   OH238809   0.776   2.996   4.204 -0.4765 -0.1798 -0.1553
 5773TIP3    H138810   0.739   2.989   4.115 -1.8632  2.0488  0.1814
 5773TIP3    H238811   0.707   2.960   4.261 -0.9164  1.2447  0.2395
 5774TIP3   OH238812   6.594   5.929  11.628  0.2623  0.5628 -0.0169
 5774TIP3    H138813   6.603   6.016  11.668  1.0841  0.3389  0.3228
 5774TIP3    H238814   6.500   5.917  11.618  0.1591  2.0617 -1.3592
 5775TIP3   OH238815   1.197   4.588   1.337  0.5062 -0.1913 -0.0328
 5775TIP3    H138816   1.139   4.636   1.396  0.7545  0.6807 -0.4869
 5775TIP3    H238817   1.243   4.526   1.394 -1.0707 -1.1198  0.2888
 5776TIP3   OH238818   5.146   4.983   0.260  0.3776 -0.8514  0.2465
 5776TIP3    H138819   5.242   4.976   0.256  0.4094 -1.5334  1.6221
 5776TIP3    H238820   5.115   4.895   0.240  0.0584 -0.7679  0.3780
 5777TIP3   OH238821   2.576   5.617  11.478 -0.2829 -0.0455  0.1889
 5777TIP3    H138822   2.591   5.635  11.386  1.4189  0.0918  0.4492
 5777TIP3    H238823   2.530   5.694  11.511  1.1498  0.9805 -0.0919
 5778TIP3   OH238824   5.752   6.439  14.421 -0.0390  0.6168 -0.3260
 5778TIP3    H138825   5.785   6.484  14.344 -0.7062  2.0190  0.1792
 5778TIP3    H238826   5.668   6.402  14.393 -0.2037  0.9858 -0.3235
 5779TIP3   OH238827   0.312   2.357   3.652 -0.1777 -0.1612  0.2861
 5779TIP3    H138828   0.348   2.395   3.732  1.0263 -0.0355 -0.2909
 5779TIP3    H238829   0.264   2.280   3.682 -0.4026  0.3177  1.2005
 5780TIP3   OH238830   1.000   1.740   2.909 -0.2954  0.2585 -0.8186
 5780TIP3    H138831   1.000   1.672   2.842  0.2143  0.0205 -0.5780
 5780TIP3    H238832   0.930   1.715   2.969  1.4147 -1.3912  0.6048
 5781TIP3   OH238833   2.674   4.315   3.826  0.1081 -0.2617  0.6603
 5781TIP3    H138834   2.627   4.239   3.858  1.2557 -0.7029  1.3507
 5781TIP3    H238835   2.764   4.285   3.814 -0.2592 -0.2851 -3.4761
 5782TIP3   OH238836   1.079   2.026   4.594  0.2606 -0.2320 -0.7463
 5782TIP3    H138837   1.112   2.104   4.548 -0.5654  0.7238  0.2292
 5782TIP3    H238838   1.157   1.988   4.634  0.5058  0.8422 -0.1579
 5783TIP3   OH238839   1.592   0.148  17.003 -0.2193  0.3214  0.2951
 5783TIP3    H138840   1.634   0.143  17.089  1.8321  0.4096 -0.6541
 5783TIP3    H238841   1.659   0.182  16.945 -1.5802  0.3105 -1.3603
 5784TIP3   OH238842   5.270   5.376   2.575 -0.6577  0.2620  0.5459
 5784TIP3    H138843   5.346   5.335   2.534 -0.7527  0.1732  0.4618
 5784TIP3    H238844   5.196   5.348   2.523 -0.6618  0.9782  0.1542
 5785TIP3   OH238845   3.271   3.203   4.216  0.0006  0.2991  0.0881
 5785TIP3    H138846   3.229   3.273   4.265  0.1207  0.8009 -0.5137
 5785TIP3    H238847   3.294   3.138   4.283 -3.8726 -1.1738  0.2023
 5786TIP3   OH238848   6.444   1.089   2.917  0.4063  0.2884 -0.4377
 5786TIP3    H138849   6.478   1.063   3.002  1.0211 -2.4345 -1.4326
 5786TIP3    H238850   6.351   1.105   2.932  0.1041 -1.9588  0.4609
 5787TIP3   OH238851   2.593   1.615  12.616 -0.1218 -0.4052  0.0721
 5787TIP3    H138852   2.646   1.685  12.580 -0.0457 -0.3758  0.2393
 5787TIP3    H238853   2.543   1.581  12.542  0.5838 -0.8418 -0.2116
 5788TIP3   OH238854   4.444   4.565   2.306 -0.7606  0.4277  0.4257
 5788TIP3    H138855   4.478   4.479   2.282  0.0393  0.4559  1.3863
 5788TIP3    H238856   4.521   4.613   2.338 -0.8811  2.0618 -1.5658
 5789TIP3   OH238857   0.854   5.160   3.367 -0.0658  0.0543 -0.0967
 5789TIP3    H138858   0.865   5.239   3.314 -0.5500  0.9146  1.0576
 5789TIP3    H238859   0.939   5.117   3.364  0.5364  1.1962  0.1557
 5790TIP3   OH238860   6.195   1.661   5.461 -0.2495 -0.0637  0.4791
 5790TIP3    H138861   6.243   1.739   5.433  0.8117 -1.2790 -1.2686
 5790TIP3    H238862   6.243   1.629   5.537 -1.5179  1.6798  2.1576
 5791TIP3   OH238863   4.897   3.836   4.517  0.2419  0.2643  0.5243
 5791TIP3    H138864   4.830   3.868   4.577 -0.6859  0.1163 -0.3902
 5791TIP3    H238865   4.880   3.883   4.435  2.1217  1.2479  0.6339
 5792TIP3   OH238866   2.286   2.674   1.293  0.2908  0.0081 -0.6589
 5792TIP3    H138867   2.325   2.696   1.209 -1.4138 -0.7175 -1.6697
 5792TIP3    H238868   2.348   2.709   1.358  2.5184 -0.9228 -2.1590
 5793TIP3   OH238869   1.689   6.578  16.905 -0.1262  0.7532 -0.4867
 5793TIP3    H138870   1.756   6.635  16.942  1.0472 -1.0860  0.4327
 5793TIP3    H238871   1.630   6.559  16.978 -1.4632  2.0498 -1.1982
 5794TIP3   OH238872   5.736   4.500  15.825  0.0890 -0.4527  0.2729
 5794TIP3    H138873   5.716   4.494  15.731  1.5014  0.5858 -0.1406
 5794TIP3    H238874   5.831   4.493  15.829  0.0442 -0.4441  1.6359
 5795TIP3   OH238875   1.182   6.053  16.275  0.3935  0.1817  0.4953
 5795TIP3    H138876   1.126   6.078  16.202  0.5356 -0.2698  0.2267
 5795TIP3    H238877   1.265   6.028  16.234  0.8122  0.9078  0.8946
 5796TIP3   OH238878   2.636   4.450  12.589 -0.0246 -0.5395  0.0809
 5796TIP3    H138879   2.637   4.408  12.503  0.5547  0.2327 -0.3008
 5796TIP3    H238880   2.557   4.503  12.589  0.6808  0.5627 -0.5424
 5797TIP3   OH238881   6.434   6.205   0.951 -0.2423 -0.4194 -0.1423
 5797TIP3    H138882   6.347   6.174   0.976 -0.5813 -0.5306 -1.3852
 5797TIP3    H238883   6.450   6.165   0.865  0.7812  0.0890 -0.2087
 5798TIP3   OH238884   4.394   2.624  11.718 -0.0169  0.0426 -0.5058
 5798TIP3    H138885   4.440   2.569  11.656 -1.6608  1.6335 -3.3211
 5798TIP3    H238886   4.333   2.565  11.762 -0.1775 -0.8081 -1.8152
 5799TIP3   OH238887   4.089   6.625  12.753 -0.1072 -0.4593  0.1209
 5799TIP3    H138888   4.019   6.570  12.788 -0.2996 -0.9445 -0.9973
 5799TIP3    H238889   4.044   6.694  12.705  0.1458 -1.5238 -1.7455
 5800TIP3   OH238890   5.151   6.265   5.478 -0.0300 -0.1664 -0.3304
 5800TIP3    H138891   5.062   6.232   5.487 -0.5754  1.2382 -0.2804
 5800TIP3    H238892   5.173   6.299   5.565  1.5191 -2.6522  0.3661
 5801TIP3   OH238893   2.801   5.907  14.465  0.3749 -0.0840  0.2830
 5801TIP3    H138894   2.722   5.881  14.512  1.0709 -1.0269  0.9622
 5801TIP3    H238895   2.791   6.001  14.451 -0.4013 -0.0108  1.2659
 5802TIP3   OH238896   3.308   3.591   5.512 -0.2057  0.0563  0.0019
 5802TIP3    H138897   3.338   3.666   5.562  0.1113 -0.1376  0.0992
 5802TIP3    H238898   3.357   3.595   5.430 -2.2496  1.6212 -1.2502
 5803TIP3   OH238899   2.465   6.015  16.310 -0.1092  0.5451 -0.1971
 5803TIP3    H138900   2.477   5.998  16.216 -0.4260  1.4325 -0.4081
 5803TIP3    H238901   2.440   5.930  16.346 -0.0446  0.2036 -0.9273
 5804TIP3   OH238902   1.350   3.182   5.209  0.0428 -0.4063  1.0434
 5804TIP3    H138903   1.307   3.265   5.187  2.4829  1.4818  2.8014
 5804TIP3    H238904   1.307   3.153   5.290 -0.2463 -0.4390  0.8819
 5805TIP3   OH238905   1.807   4.577  17.106 -0.2293  0.8785  1.0497
 5805TIP3    H138906   1.847   4.512  17.164  2.8950  0.9098 -0.8564
 5805TIP3    H238907   1.866   4.652  17.109 -1.0018  1.6177 -0.7354
 5806TIP3   OH238908   1.336   4.924   0.896  0.3928  0.7347 -0.4086
 5806TIP3    H138909   1.429   4.916   0.917  0.0733  2.0684  1.8150
 5806TIP3    H238910   1.333   4.936   0.801  2.1607 -3.2397 -1.1638
 5807TIP3   OH238911   1.939   4.388   0.120 -0.2795  0.2177 -0.1532
 5807TIP3    H138912   1.901   4.314   0.169  0.6232 -0.6543 -0.7458
 5807TIP3    H238913   2.029   4.362   0.103 -0.1988  1.0863 -1.1445
 5808TIP3   OH238914   1.790   6.569  12.537  0.0209 -0.0655 -0.0106
 5808TIP3    H138915   1.861   6.514  12.571 -1.2063 -2.7026 -1.3662
 5808TIP3    H238916   1.803   6.568  12.443  0.1743  2.4424 -0.0685
 5809TIP3   OH238917   6.025   5.590  11.256 -0.4490 -0.1299 -0.2407
 5809TIP3    H138918   6.025   5.496  11.238  0.7819 -0.1812 -0.0949
 5809TIP3    H238919   6.025   5.596  11.352  1.8434 -0.0649 -0.1905
 5810TIP3   OH238920   2.622   1.579  12.900 -0.3556 -0.6877 -0.4683
 5810TIP3    H138921   2.712   1.568  12.932 -0.8116 -0.9751  0.7794
 5810TIP3    H238922   2.630   1.580  12.805  1.0613  0.1125 -0.3669
 5811TIP3   OH238923   1.123   0.372   6.428 -0.2245  0.0294  0.5115
 5811TIP3    H138924   1.197   0.423   6.460  0.5533 -0.3376 -0.6253
 5811TIP3    H238925   1.092   0.323   6.504  1.4962 -0.7562  0.7500
 5812TIP3   OH238926   2.497   5.869  14.275 -0.1642  0.7069 -0.7453
 5812TIP3    H138927   2.529   5.958  14.263  0.3519  0.5660 -0.4431
 5812TIP3    H238928   2.417   5.865  14.223 -1.4100  2.0075  0.9694
 5813TIP3   OH238929   0.428   4.023  14.784  0.2065  0.1399  0.6606
 5813TIP3    H138930   0.385   3.970  14.851 -0.4364 -0.5843 -0.3045
 5813TIP3    H238931   0.357   4.073  14.743  0.7249  1.3353  1.1603
 5814TIP3   OH238932   1.671   4.111  12.225  1.0016 -0.1059  0.3463
 5814TIP3    H138933   1.746   4.163  12.195  1.6260 -0.6817  0.8742
 5814TIP3    H238934   1.617   4.173  12.273  0.9885  0.3802 -0.2774
 5815TIP3   OH238935   0.248   5.403  12.336 -0.2347  0.3863 -0.6496
 5815TIP3    H138936   0.276   5.410  12.245  2.5698 -0.8709  0.0005
 5815TIP3    H238937   0.256   5.492  12.370  1.3356  0.4184 -1.0072
 5816TIP3   OH238938   4.494   0.909  16.179  0.3197  0.7935  0.0530
 5816TIP3    H138939   4.529   0.997  16.195  0.1379  0.7612  0.6538
 5816TIP3    H238940   4.464   0.879  16.265 -0.5280  0.5412 -0.3191
 5817TIP3   OH238941   1.670   5.796  12.757  0.6659  0.0895  0.2145
 5817TIP3    H138942   1.721   5.720  12.729 -0.6157 -0.8241  0.2871
 5817TIP3    H238943   1.674   5.794  12.853  0.4279 -0.0340  0.2219
 5818TIP3   OH238944   2.906   1.256  13.441  0.6564  0.2832 -0.0766
 5818TIP3    H138945   2.983   1.296  13.481  0.2625 -1.6129  2.8941
 5818TIP3    H238946   2.832   1.300  13.483 -0.0713  2.2009 -3.0013
 5819TIP3   OH238947   1.184   4.264  11.894  0.3926 -0.3464  0.0839
 5819TIP3    H138948   1.117   4.303  11.838  0.6410 -2.4409 -1.8288
 5819TIP3    H238949   1.191   4.174  11.862  2.5433 -0.8138  1.7154
 5820TIP3   OH238950   4.474   4.747   2.033 -0.3507  0.0747 -0.5820
 5820TIP3    H138951   4.380   4.762   2.042 -0.1438  0.7168  0.7000
 5820TIP3    H238952   4.499   4.700   2.113  0.9200  2.4781  0.5425
 5821TIP3   OH238953   6.725   1.744  13.186  0.5052  0.3649 -0.2100
 5821TIP3    H138954   6.757   1.757  13.096  2.3685 -3.9886 -0.4601
 5821TIP3    H238955   6.802   1.760  13.241  0.2822 -0.1309  0.2550
 5822TIP3   OH238956   1.034   1.813  10.702 -0.6585 -0.2927  0.3968
 5822TIP3    H138957   1.014   1.790  10.611  0.8317  0.2297 -0.0851
 5822TIP3    H238958   0.995   1.899  10.714 -0.3275 -0.0914  0.0490
 5823TIP3   OH238959   2.747   2.965   3.095 -0.2031 -0.1654 -0.1331
 5823TIP3    H138960   2.677   3.029   3.079  0.5751  0.6708 -0.2576
 5823TIP3    H238961   2.794   2.959   3.012  1.0482  0.7439  0.4793
 5824TIP3   OH238962   2.983   5.986   5.393  0.2708  0.2828  0.1105
 5824TIP3    H138963   3.006   6.029   5.311  2.3376 -1.8182 -0.5111
 5824TIP3    H238964   2.920   5.919   5.368 -2.1206  2.0432  0.9286
 5825TIP3   OH238965   1.005   2.581   5.877  0.0951  0.3525 -0.5006
 5825TIP3    H138966   0.958   2.550   5.955  0.9407 -1.3914 -0.6465
 5825TIP3    H238967   1.085   2.621   5.912  0.0949  0.2983 -0.4382
 5826TIP3   OH238968   4.379   5.753   3.879  0.7825 -0.2967 -0.2935
 5826TIP3    H138969   4.326   5.820   3.922 -1.1739 -1.8232 -0.1500
 5826TIP3    H238970   4.468   5.785   3.884  0.0988  1.5369  1.1668
 5827TIP3   OH238971   5.310   6.657  13.201 -0.1838 -0.1440 -0.3234
 5827TIP3    H138972   5.398   6.649  13.239  0.7669  0.6024 -2.2694
 5827TIP3    H238973   5.260   6.704  13.268  1.4591  1.2172  0.0200
 5828TIP3   OH238974   3.082   0.096  15.423  0.7086  0.5194  0.1138
 5828TIP3    H138975   2.987   0.084  15.431  0.2143  0.5985 -3.5755
 5828TIP3    H238976   3.096   0.188  15.445  0.0738  0.3298  1.3908
 5829TIP3   OH238977   6.059   5.558   0.205  0.6604 -0.0170 -0.4801
 5829TIP3    H138978   6.022   5.521   0.124 -0.6964 -0.6476  0.3910
 5829TIP3    H238979   6.042   5.652   0.199 -1.6175 -0.3404  0.1058
 5830TIP3   OH238980   6.616   5.112  15.508 -0.5765  0.6993 -0.2351
 5830TIP3    H138981   6.642   5.113  15.416 -0.3035 -0.0063 -0.1754
 5830TIP3    H238982   6.692   5.148  15.554 -0.0025 -0.5944 -0.1361
 5831TIP3   OH238983   5.872   2.870  13.944  0.2747  0.6091 -1.0508
 5831TIP3    H138984   5.945   2.858  13.883  1.8334 -0.7256  0.9495
 5831TIP3    H238985   5.912   2.903  14.024 -1.3174  0.0058  0.0638
 5832TIP3   OH238986   3.000   6.832  12.165 -0.1132 -0.4408 -0.1288
 5832TIP3    H138987   2.919   6.845  12.213  1.4129  0.5794  2.3225
 5832TIP3    H238988   2.994   6.892  12.090 -0.6311  1.4298  1.3469
 5833TIP3   OH238989   3.671   3.924   0.456 -0.2795  0.5782 -0.1526
 5833TIP3    H138990   3.736   3.876   0.404 -1.5682  0.0494 -1.3468
 5833TIP3    H238991   3.678   3.886   0.544  1.0204  0.5572 -0.2371
 5834TIP3   OH238992   5.121   1.973  13.686 -1.0701  0.1527 -0.9874
 5834TIP3    H138993   5.151   2.024  13.611  1.1178  0.9213  0.3344
 5834TIP3    H238994   5.160   1.886  13.675 -1.8884 -0.1725 -1.4178
 5835TIP3   OH238995   4.659   6.376  11.946 -0.4307 -0.1941 -0.3875
 5835TIP3    H138996   4.736   6.424  11.915 -0.2377  0.4989  1.0621
 5835TIP3    H238997   4.694   6.299  11.991 -0.4789  0.7097  1.2766
 5836TIP3   OH238998   5.722   1.234  10.312 -0.0985 -0.1681  0.2374
 5836TIP3    H138999   5.804   1.255  10.357 -0.6773 -0.1119  1.2787
 5836TIP3    H239000   5.746   1.167  10.248  0.6435 -0.6230  0.9780
 5837TIP3   OH239001   6.286   1.415   4.116 -0.1853  0.2858 -0.4018
 5837TIP3    H139002   6.218   1.385   4.177  0.8608 -0.9110  0.2003
 5837TIP3    H239003   6.258   1.504   4.092 -0.3201  1.0577  2.3034
 5838TIP3   OH239004   5.937   2.611   1.666 -0.1678  0.1856  0.0771
 5838TIP3    H139005   5.923   2.518   1.651 -0.3833  0.3306 -0.6717
 5838TIP3    H239006   5.921   2.623   1.759 -1.9114 -0.2116 -0.1354
 5839TIP3   OH239007   2.248   3.932  15.468  0.3469  0.5963  0.2454
 5839TIP3    H139008   2.215   3.993  15.403 -1.0992  0.8895  1.2137
 5839TIP3    H239009   2.253   3.983  15.549  0.6991 -0.1409  0.7026
 5840TIP3   OH239010   1.518   3.985   1.442  0.2619 -0.0777 -0.4657
 5840TIP3    H139011   1.441   3.930   1.457  0.1858 -0.4709 -2.0540
 5840TIP3    H239012   1.590   3.923   1.430  0.7685  0.2789  0.6287
 5841TIP3   OH239013   5.008   5.702   0.275  0.0683 -0.1280 -0.1259
 5841TIP3    H139014   5.030   5.740   0.361 -0.2733 -2.0975  0.8911
 5841TIP3    H239015   4.932   5.752   0.246  0.5460  0.9637  0.4252
 5842TIP3   OH239016   5.179   1.717  13.202  0.0809  0.4335 -0.1963
 5842TIP3    H139017   5.156   1.808  13.217 -1.6030 -0.0781  0.5872
 5842TIP3    H239018   5.262   1.705  13.248 -0.6030  1.1341  1.2952
 5843TIP3   OH239019   0.619   2.181   3.198 -0.4810 -0.0557  0.2002
 5843TIP3    H139020   0.600   2.230   3.278  1.8792 -0.4989  1.1014
 5843TIP3    H239021   0.628   2.091   3.226 -0.1206 -0.2984 -0.6478
 5844TIP3   OH239022   6.334   1.519   4.630  0.3053  0.7218 -0.1543
 5844TIP3    H139023   6.351   1.579   4.558 -1.1050  1.5471  0.1742
 5844TIP3    H239024   6.239   1.520   4.642  0.2766 -1.1961  0.2060
 5845TIP3   OH239025   2.522   1.949  12.517  0.1963 -0.3067 -0.4097
 5845TIP3    H139026   2.608   1.907  12.523  0.7697  0.8241 -0.3111
 5845TIP3    H239027   2.535   2.035  12.557 -1.2083 -0.4273  0.3808
 5846TIP3   OH239028   0.990   1.257   0.449  0.3775  0.1932  0.4177
 5846TIP3    H139029   0.937   1.284   0.374  0.0087  1.5633  1.1486
 5846TIP3    H239030   1.029   1.174   0.421 -1.3694 -0.3775 -0.5265
 5847TIP3   OH239031   4.394   5.674   5.880  0.2330 -0.3381  0.3517
 5847TIP3    H139032   4.414   5.707   5.967  1.6702 -1.4604  0.4884
 5847TIP3    H239033   4.298   5.676   5.875  0.1574  0.4452  1.6567
 5848TIP3   OH239034   4.459   5.802  15.908 -0.4202  0.1685 -0.3948
 5848TIP3    H139035   4.498   5.737  15.966 -1.0430 -0.2407 -0.4291
 5848TIP3    H239036   4.440   5.877  15.966 -0.1329  0.1449 -0.2679
 5849TIP3   OH239037   2.974   6.798   3.470 -0.2144 -0.0215 -0.1513
 5849TIP3    H139038   2.969   6.843   3.555 -0.4591 -1.5929  0.6946
 5849TIP3    H239039   3.063   6.764   3.466  0.2824  1.2964 -1.2267
 5850TIP3   OH239040   1.137   6.068  14.180  0.2772 -0.3112  0.1399
 5850TIP3    H139041   1.188   5.994  14.146  0.8580 -0.2066  0.7536
 5850TIP3    H239042   1.064   6.027  14.226  1.5235 -0.6024  1.9653
 5851TIP3   OH239043   0.698   5.180   3.985  0.0267  0.1245  0.5367
 5851TIP3    H139044   0.654   5.120   4.046 -2.4965  1.2716 -0.0032
 5851TIP3    H239045   0.724   5.125   3.911 -0.9245 -0.5592  0.6932
 5852TIP3   OH239046   5.687   1.271   0.506  0.0549 -0.2467  0.4326
 5852TIP3    H139047   5.739   1.224   0.571 -0.3537  1.0992  1.7982
 5852TIP3    H239048   5.722   1.242   0.422  0.8812 -1.7340  1.2411
 5853TIP3   OH239049   3.752   4.940   4.641  0.0660  0.3167 -0.0607
 5853TIP3    H139050   3.675   4.963   4.694  0.3064 -1.7004  1.2719
 5853TIP3    H239051   3.819   5.003   4.667  0.5075 -1.2563  2.9278
 5854TIP3   OH239052   4.472   2.807  15.257 -0.5390  0.5124 -0.5827
 5854TIP3    H139053   4.455   2.899  15.273 -0.0220  0.2883  1.4947
 5854TIP3    H239054   4.539   2.783  15.321 -0.6097 -1.2911 -1.1261
 5855TIP3   OH239055   5.279   6.121  11.309  0.9803 -0.0301  0.2334
 5855TIP3    H139056   5.370   6.101  11.330  0.7362 -0.3952  0.9409
 5855TIP3    H239057   5.281   6.214  11.283  1.4422  0.1555  0.9107
 5856TIP3   OH239058   0.741   3.413   0.018  0.1938 -0.3081  0.0685
 5856TIP3    H139059   0.694   3.467  -0.045 -1.2597 -2.0971 -0.4684
 5856TIP3    H239060   0.686   3.413   0.096  0.7803 -0.0636  0.4898
 5857TIP3   OH239061   2.300   0.302  14.826  0.6311 -0.2884  0.1245
 5857TIP3    H139062   2.292   0.379  14.883 -1.4076 -0.5732  0.3017
 5857TIP3    H239063   2.372   0.323  14.767  1.2498  1.0109  1.2737
 5858TIP3   OH239064   5.825   5.427  14.208  0.4573 -0.4566  0.8633
 5858TIP3    H139065   5.738   5.385  14.204  0.2421  0.0306  0.3602
 5858TIP3    H239066   5.821   5.497  14.143  0.4129  1.1188  2.4785
 5859TIP3   OH239067   4.376   0.650   0.246  0.2917  0.1857 -0.6289
 5859TIP3    H139068   4.420   0.721   0.292 -1.7085  1.3822 -0.4607
 5859TIP3    H239069   4.364   0.683   0.157 -0.6747  0.0881 -0.5420
 5860TIP3   OH239070   1.441   2.837  15.794  0.1534  0.4473 -0.3215
 5860TIP3    H139071   1.537   2.830  15.794  0.0810 -0.9065 -0.2285
 5860TIP3    H239072   1.424   2.930  15.787  1.4812  1.0073  2.5802
 5861TIP3   OH239073   3.839   6.058   0.061  0.4935  0.1884  0.1758
 5861TIP3    H139074   3.844   6.087   0.152 -2.7975 -1.5452  1.0628
 5861TIP3    H239075   3.775   6.116   0.021  4.3381  3.2514 -2.2565
 5862TIP3   OH239076   2.207   5.846   6.623  0.3778 -0.0691  0.1825
 5862TIP3    H139077   2.229   5.766   6.669  2.2931  0.6153  0.5704
 5862TIP3    H239078   2.164   5.901   6.689 -1.0926 -0.7948 -0.1296
 5863TIP3   OH239079   1.670   3.479   2.381  0.4701 -0.2377  0.1818
 5863TIP3    H139080   1.734   3.445   2.443  0.2145 -1.8410 -0.3719
 5863TIP3    H239081   1.679   3.422   2.304  0.3451  1.2998 -1.0089
 5864TIP3   OH239082   0.286   4.104   1.885  0.4643 -0.5895  0.6174
 5864TIP3    H139083   0.299   4.061   1.800 -0.7743 -1.9498  1.0925
 5864TIP3    H239084   0.309   4.037   1.949 -0.4663 -0.2022  1.3702
 5865TIP3   OH239085   0.089   0.786  15.326 -0.0969  0.0750 -0.1925
 5865TIP3    H139086   0.102   0.881  15.327 -0.8473  0.2144  2.2759
 5865TIP3    H239087   0.171   0.752  15.291  0.0047  1.6196 -1.6110
 5866TIP3   OH239088   6.466   1.548  15.897  0.6613 -0.7401  0.7442
 5866TIP3    H139089   6.377   1.526  15.923  0.1455 -0.0635 -0.3572
 5866TIP3    H239090   6.479   1.503  15.813  0.7932  0.3755  0.1419
 5867TIP3   OH239091   6.232   0.308  16.764  0.1113 -0.0717 -0.3668
 5867TIP3    H139092   6.175   0.261  16.703 -0.1259  0.7767 -0.8244
 5867TIP3    H239093   6.248   0.392  16.721  0.0349  0.5033  0.6906
 5868TIP3   OH239094   4.171   0.662   4.384  0.4422 -0.2761 -0.7818
 5868TIP3    H139095   4.115   0.731   4.346  1.1930 -0.0155 -1.4422
 5868TIP3    H239096   4.109   0.597   4.417 -0.3066  0.9537  0.3473
 5869TIP3   OH239097   6.506   5.996   0.070 -0.6263  0.0467 -0.4421
 5869TIP3    H139098   6.563   6.064   0.108 -0.8148  1.1716 -2.0373
 5869TIP3    H239099   6.495   5.932   0.140  0.8418  0.8832  0.6217
 5870TIP3   OH239100   1.659   5.815  13.025 -0.1250 -0.4711 -0.4808
 5870TIP3    H139101   1.729   5.798  13.088 -0.9688 -1.1289  0.3099
 5870TIP3    H239102   1.581   5.828  13.079 -0.4986  0.9742 -1.2992
 5871TIP3   OH239103   3.526   2.706  15.028 -0.4681  0.1131  0.0230
 5871TIP3    H139104   3.600   2.735  15.082  0.2060 -1.3531 -0.0612
 5871TIP3    H239105   3.492   2.629  15.073 -2.4725  1.1896  0.4626
 5872TIP3   OH239106   1.925   0.029   5.829 -0.2568 -0.2451 -0.2653
 5872TIP3    H139107   2.011   0.028   5.871  0.9358 -0.8822 -2.5277
 5872TIP3    H239108   1.905  -0.063   5.813 -0.8867 -0.0553 -0.6165
 5873TIP3   OH239109   4.337   2.573   3.079  0.1199  0.3282 -0.5814
 5873TIP3    H139110   4.400   2.503   3.059 -0.1481 -0.3489  0.8313
 5873TIP3    H239111   4.388   2.654   3.072  2.2371 -0.3318  3.8854
 5874TIP3   OH239112   3.370   6.039  13.702  0.0446  0.1388 -0.0131
 5874TIP3    H139113   3.311   6.048  13.626  1.0006  1.9760 -0.6015
 5874TIP3    H239114   3.365   5.947  13.726 -3.0173  0.1916 -0.0749
 5875TIP3   OH239115   3.841   3.700   3.523  0.0082  0.2003  0.9058
 5875TIP3    H139116   3.856   3.622   3.470  0.4289  1.7086 -1.3287
 5875TIP3    H239117   3.929   3.728   3.550  0.0016  0.7181  0.4159
 5876TIP3   OH239118   5.371   4.474   3.777 -0.0340 -0.4427 -0.3869
 5876TIP3    H139119   5.406   4.450   3.863 -1.5089 -0.2526  0.2922
 5876TIP3    H239120   5.407   4.409   3.718 -1.0895 -2.2041  0.8198
 5877TIP3   OH239121   3.503   4.908  11.453 -0.1740 -0.4395  0.1256
 5877TIP3    H139122   3.446   4.926  11.378  1.3102  0.4502 -0.8497
 5877TIP3    H239123   3.509   4.813  11.457 -0.9251 -0.5171 -0.3622
 5878TIP3   OH239124   5.302   0.477  11.136 -0.4233 -0.0910  0.1550
 5878TIP3    H139125   5.281   0.518  11.219 -0.4079  0.6495 -0.1976
 5878TIP3    H239126   5.396   0.459  11.141  0.0253  1.8639 -0.4930
 5879TIP3   OH239127   4.683   3.774  13.166 -0.0406 -0.7014 -0.7938
 5879TIP3    H139128   4.670   3.862  13.201 -1.0912 -1.4341  0.7298
 5879TIP3    H239129   4.774   3.775  13.134  1.1755 -0.0742  2.3289
 5880TIP3   OH239130   4.059   1.512   0.656  0.0413  0.1295 -0.1644
 5880TIP3    H139131   4.050   1.434   0.601 -1.6035 -0.5579  1.0160
 5880TIP3    H239132   4.011   1.492   0.736  1.5266  1.4915  1.1461
 5881TIP3   OH239133   4.635   5.025   2.030 -0.6427 -0.1105  0.3204
 5881TIP3    H139134   4.576   4.965   1.985  1.2892 -0.9832 -1.1743
 5881TIP3    H239135   4.672   4.974   2.101 -0.8341  0.0957  0.5717
 5882TIP3   OH239136   6.325   2.323  13.830 -0.4485  0.3838  0.1875
 5882TIP3    H139137   6.255   2.262  13.808  0.0729  0.3471 -1.5132
 5882TIP3    H239138   6.360   2.351  13.746  1.4525  0.5569  0.9709
 5883TIP3   OH239139   6.004   6.797  13.689  0.1524  0.1318 -0.6057
 5883TIP3    H139140   5.988   6.703  13.680 -0.6980  0.3772 -2.0306
 5883TIP3    H239141   6.070   6.816  13.622 -0.7735  0.7832 -1.3513
 5884TIP3   OH239142   6.715   2.569  11.663  0.0812 -0.1192 -0.4985
 5884TIP3    H139143   6.802   2.608  11.674 -0.3720  1.1342 -1.2145
 5884TIP3    H239144   6.732   2.491  11.610  0.7992 -0.0121 -0.4409
 5885TIP3   OH239145   2.284   4.642   6.373 -0.2077  0.1205 -0.4329
 5885TIP3    H139146   2.196   4.640   6.409  0.5804  1.7572  1.7911
 5885TIP3    H239147   2.302   4.735   6.358  1.0185 -0.2083 -1.1572
 5886TIP3   OH239148   6.266   5.139   5.794 -0.6991 -0.2131 -0.2439
 5886TIP3    H139149   6.275   5.193   5.715  0.0834  0.2247  0.1300
 5886TIP3    H239150   6.287   5.199   5.865 -2.1437 -0.3993  0.3690
 5887TIP3   OH239151   4.129   5.494   3.440  0.1772 -0.0139  0.8253
 5887TIP3    H139152   4.125   5.540   3.356  1.9728  2.2788  1.8794
 5887TIP3    H239153   4.050   5.439   3.441 -1.5638  2.2210 -1.0452
 5888TIP3   OH239154   6.365   6.597  15.495  0.3718  0.2265  0.3939
 5888TIP3    H139155   6.289   6.545  15.522  0.6921 -0.3538  0.2008
 5888TIP3    H239156   6.438   6.561  15.547  0.8898 -0.5441 -0.8266
 5889TIP3   OH239157   0.435   0.633  12.162  0.3085  0.3985 -0.2430
 5889TIP3    H139158   0.379   0.571  12.115 -0.9177  0.9883  0.4162
 5889TIP3    H239159   0.423   0.716  12.117 -0.9315  0.9851  1.1169
 5890TIP3   OH239160   5.075   6.726   4.332 -0.3896  0.4021  0.5007
 5890TIP3    H139161   5.083   6.632   4.315  1.6544  0.8166 -1.3396
 5890TIP3    H239162   5.125   6.741   4.412  0.1135  0.0591  0.2516
 5891TIP3   OH239163   3.823   6.640  12.810  0.2868  0.3155 -0.4172
 5891TIP3    H139164   3.771   6.571  12.853  1.3587 -0.5297 -0.4331
 5891TIP3    H239165   3.766   6.672  12.740 -0.3286 -0.3926 -0.2628
 5892TIP3   OH239166   6.120   0.265   3.180 -0.3574 -0.7392  0.3603
 5892TIP3    H139167   6.161   0.306   3.256  0.7537 -1.3201  0.1076
 5892TIP3    H239168   6.044   0.219   3.214 -0.9088  0.4646  0.8344
 5893TIP3   OH239169   3.394   5.865  13.935  0.2585 -0.3392 -0.1971
 5893TIP3    H139170   3.451   5.790  13.948 -1.1559 -1.4886 -0.3641
 5893TIP3    H239171   3.310   5.827  13.911 -0.4788  1.3092 -0.3436
 5894TIP3   OH239172   4.267   5.584   4.588 -0.6144 -0.4517  0.6184
 5894TIP3    H139173   4.356   5.621   4.590 -1.2876  1.2276  0.7949
 5894TIP3    H239174   4.257   5.552   4.498  0.2205 -0.8058  0.6426
 5895TIP3   OH239175   3.106   3.185   2.022  0.1257 -0.0527 -0.8244
 5895TIP3    H139176   3.024   3.200   2.069 -0.5091  0.6680 -2.1079
 5895TIP3    H239177   3.145   3.272   2.013  0.1960 -0.1621 -1.6742
 5896TIP3   OH239178   0.623   3.048   2.727  0.8424 -0.1735  0.1421
 5896TIP3    H139179   0.700   3.089   2.687 -1.0056  0.6462 -2.8719
 5896TIP3    H239180   0.638   2.954   2.717  1.8247 -0.0539  0.3916
 5897TIP3   OH239181   1.044   3.564  12.481  0.3618 -0.1036 -0.3478
 5897TIP3    H139182   0.985   3.512  12.426 -0.1608 -0.5758  0.6423
 5897TIP3    H239183   1.045   3.651  12.440 -1.4044  0.0570 -0.1072
 5898TIP3   OH239184   5.535   1.500   5.097 -0.2282  0.1075  0.2307
 5898TIP3    H139185   5.455   1.486   5.046 -1.1948  0.6560  1.5335
 5898TIP3    H239186   5.587   1.421   5.083  0.0692  0.6425 -2.4180
 5899TIP3   OH239187   0.219   4.330  12.978 -0.0884  0.6103 -0.2848
 5899TIP3    H139188   0.183   4.408  12.935  0.1757  0.8552 -0.0656
 5899TIP3    H239189   0.143   4.273  12.991 -0.1515  0.4603 -1.2143
 5900TIP3   OH239190   3.489   4.859   2.077  0.1593 -0.0572 -0.4996
 5900TIP3    H139191   3.422   4.793   2.097 -0.7010  0.1805 -2.3959
 5900TIP3    H239192   3.445   4.943   2.089  0.1437  0.1021 -1.5479
 5901TIP3   OH239193   2.400   0.092   4.105  0.5071 -0.3410  0.3805
 5901TIP3    H139194   2.307   0.098   4.126  0.2818  1.3807 -0.9018
 5901TIP3    H239195   2.440   0.054   4.184 -1.3040 -1.5050  0.7984
 5902TIP3   OH239196   6.055   3.051  10.527  0.2974 -0.0176 -0.1186
 5902TIP3    H139197   6.130   3.082  10.477  0.6313  1.0595  1.0131
 5902TIP3    H239198   6.061   2.955  10.523  1.1389  0.0551 -0.8753
 5903TIP3   OH239199   0.551   2.377   0.722  0.3137 -0.0673 -0.0502
 5903TIP3    H139200   0.547   2.282   0.710  1.9911 -0.0862 -0.7582
 5903TIP3    H239201   0.616   2.390   0.791  0.5544  0.5857 -0.3904
 5904TIP3   OH239202   6.789   0.673  11.207  0.2629  0.1278 -0.0779
 5904TIP3    H139203   6.756   0.633  11.287 -2.4550  0.5967 -0.8618
 5904TIP3    H239204   6.865   0.620  11.183  0.1863 -0.9870  1.9160
 5905TIP3   OH239205   1.913   2.571   0.838  0.9133 -0.5050  0.2340
 5905TIP3    H139206   1.997   2.609   0.814  0.9891 -1.1370 -0.5546
 5905TIP3    H239207   1.933   2.504   0.903  0.9152 -0.0809  0.6800
 5906TIP3   OH239208   6.659   1.263   1.628 -0.2822 -0.5610 -0.0792
 5906TIP3    H139209   6.687   1.305   1.547  0.5827 -0.9688  0.0038
 5906TIP3    H239210   6.575   1.305   1.649  1.0834  2.0259  0.6529
 5907TIP3   OH239211   3.492   1.081  13.095 -0.0769  0.9046  0.7670
 5907TIP3    H139212   3.548   1.126  13.157  1.4632  1.8031 -1.1994
 5907TIP3    H239213   3.403   1.091  13.131  0.8965 -0.7752  4.0827
 5908TIP3   OH239214   0.657   3.679  15.569  0.6211  0.0516 -0.0091
 5908TIP3    H139215   0.649   3.617  15.496 -1.8918 -1.1427  1.1805
 5908TIP3    H239216   0.583   3.739  15.557  0.3706  0.0345  1.3946
 5909TIP3   OH239217   5.892   2.355   1.252 -0.0992 -0.0569 -0.1862
 5909TIP3    H139218   5.858   2.349   1.163 -2.1039  0.7125  0.4922
 5909TIP3    H239219   5.918   2.446   1.261  1.3607 -0.4256 -0.3785
 5910TIP3   OH239220   0.357   1.229  11.520 -0.0602 -0.6082  0.1144
 5910TIP3    H139221   0.448   1.204  11.503  0.1136  0.4298 -0.6184
 5910TIP3    H239222   0.320   1.246  11.433 -0.9518 -0.9826  0.4071
 5911TIP3   OH239223   0.892   6.297   2.701 -0.7034 -0.0749  0.0248
 5911TIP3    H139224   0.969   6.354   2.700  0.2458 -1.3348 -0.1241
 5911TIP3    H239225   0.886   6.265   2.791  1.5665 -3.3523 -0.8057
 5912TIP3   OH239226   1.740   6.804  14.199  0.5000  0.5698 -0.4303
 5912TIP3    H139227   1.736   6.810  14.103 -1.0643  0.2032 -0.4147
 5912TIP3    H239228   1.682   6.874  14.230  1.5800  1.1814  0.2929
 5913TIP3   OH239229   6.505   2.811  16.571  0.2176 -0.4435 -0.0058
 5913TIP3    H139230   6.524   2.893  16.615 -3.1668 -0.1179  1.1489
 5913TIP3    H239231   6.552   2.745  16.623  0.8515  0.4886  0.6447
 5914TIP3   OH239232   4.702   1.743  11.879 -0.0378  0.6041 -0.4038
 5914TIP3    H139233   4.656   1.680  11.933  1.0860  0.4662  0.4337
 5914TIP3    H239234   4.662   1.734  11.792  0.8432 -2.1465 -0.6471
 5915TIP3   OH239235   6.729   6.052  11.083  0.4229  1.0902  0.1134
 5915TIP3    H139236   6.634   6.056  11.093  0.4482  0.2765  0.6984
 5915TIP3    H239237   6.743   6.040  10.989 -0.0536  1.0015  0.0542
 5916TIP3   OH239238   3.225   1.585   4.688 -0.3868 -0.7312 -0.0270
 5916TIP3    H139239   3.212   1.669   4.732  2.8686  0.5193 -1.1162
 5916TIP3    H239240   3.268   1.530   4.754 -0.9678 -0.9852  0.1508
 5917TIP3   OH239241   0.289   4.566  10.132 -0.9711 -0.2119 -0.2446
 5917TIP3    H139242   0.372   4.572  10.083 -1.6595  2.6796 -1.2384
 5917TIP3    H239243   0.308   4.611  10.215 -1.4226  0.0855 -0.3035
 5918TIP3   OH239244   2.047   2.213  15.616  0.0738  0.2962 -0.0115
 5918TIP3    H139245   2.055   2.287  15.677 -1.4436 -0.2739  0.9395
 5918TIP3    H239246   1.953   2.201  15.605  0.3012 -1.1346 -0.6025
 5919TIP3   OH239247   4.606   5.885   1.378 -0.5632 -0.0949  0.3199
 5919TIP3    H139248   4.560   5.905   1.460 -0.2321  0.4624  0.3747
 5919TIP3    H239249   4.545   5.911   1.309 -0.3033  0.7250  0.3918
 5920TIP3   OH239250   0.419   5.166  16.573 -0.3140 -0.0874  0.1384
 5920TIP3    H139251   0.460   5.092  16.616  0.0022  0.2407  0.4055
 5920TIP3    H239252   0.412   5.233  16.641  0.1799  0.4304 -0.3072
 5921TIP3   OH239253   0.272   4.120   0.556 -0.5034 -0.4522  0.0401
 5921TIP3    H139254   0.226   4.102   0.474 -1.3762  1.0291  0.1539
 5921TIP3    H239255   0.244   4.209   0.579  2.0588  0.3370  0.3911
 5922TIP3   OH239256   1.434   0.647   4.674 -0.2308 -0.0990  0.0703
 5922TIP3    H139257   1.475   0.721   4.718 -0.8508  1.3092 -1.5916
 5922TIP3    H239258   1.342   0.650   4.702 -0.8121  1.2716 -1.7500
 5923TIP3   OH239259   1.952   1.542  14.088 -0.0368  0.0812 -0.3068
 5923TIP3    H139260   1.908   1.532  14.172  0.3329 -0.5733 -0.1794
 5923TIP3    H239261   1.960   1.452  14.055  2.4061 -0.0153  0.3211
 5924TIP3   OH239262   2.825   5.180   3.056  0.8801 -0.8356 -0.4961
 5924TIP3    H139263   2.774   5.101   3.070  1.1626 -0.9305  0.0342
 5924TIP3    H239264   2.916   5.151   3.058  1.0344 -0.3536  0.8369
 5925TIP3   OH239265   2.536   5.435   5.268  0.3263 -0.2678  0.5204
 5925TIP3    H139266   2.465   5.495   5.244  1.2902  0.8815  0.4368
 5925TIP3    H239267   2.502   5.385   5.342 -0.6530  0.0869  0.3238
 5926TIP3   OH239268   2.209   1.737  17.046  0.1415  0.0593 -0.2514
 5926TIP3    H139269   2.168   1.822  17.065  1.0479  0.4575 -0.0316
 5926TIP3    H239270   2.139   1.673  17.062 -1.0148  0.8478 -1.9211
 5927TIP3   OH239271   3.640   3.294   2.045  0.3847 -0.4444 -0.5120
 5927TIP3    H139272   3.565   3.239   2.022 -0.5262 -0.1977  1.6197
 5927TIP3    H239273   3.654   3.348   1.968 -3.2910  1.2970 -0.1827
 5928TIP3   OH239274   3.206   1.269   2.791 -0.4405 -0.1738  0.2914
 5928TIP3    H139275   3.278   1.252   2.852 -0.3712 -0.0538  0.2421
 5928TIP3    H239276   3.148   1.193   2.801 -0.3353 -0.2438  0.3714
 5929TIP3   OH239277   0.810   1.222   2.186  0.4508 -0.1635  0.3165
 5929TIP3    H139278   0.857   1.283   2.129  0.9855 -0.7273  0.1466
 5929TIP3    H239279   0.868   1.146   2.193  0.1168 -0.3508  1.1224
 5930TIP3   OH239280   0.944   1.493  15.728  0.2692  0.1288 -0.1760
 5930TIP3    H139281   0.989   1.423  15.774  3.6408  2.4066  0.3021
 5930TIP3    H239282   0.930   1.561  15.794  1.3007  1.7253 -1.5213
 5931TIP3   OH239283   4.898   3.940   3.135 -0.4093  0.2118 -0.3400
 5931TIP3    H139284   4.836   3.891   3.189  0.8071 -0.1837  0.7492
 5931TIP3    H239285   4.845   4.009   3.095 -1.3022  0.8249  1.7336
 5932TIP3   OH239286   0.731   4.260   4.823 -0.3763 -0.5342  0.2380
 5932TIP3    H139287   0.787   4.184   4.804  0.3370 -0.2215  0.9977
 5932TIP3    H239288   0.680   4.273   4.744 -2.5272 -3.4730  0.9504
 5933TIP3   OH239289   0.781   4.910   1.055 -0.1743  0.4018 -0.0882
 5933TIP3    H139290   0.848   4.955   1.003 -1.6700  2.9187 -0.0177
 5933TIP3    H239291   0.712   4.890   0.992  0.3441 -1.7461 -0.0679
 5934TIP3   OH239292   6.082   0.463   2.163  0.3107 -0.5394 -0.0188
 5934TIP3    H139293   6.118   0.443   2.077  1.2146  2.1245 -0.3407
 5934TIP3    H239294   6.158   0.470   2.221  0.1242  1.6852  0.0499
 5935TIP3   OH239295   1.582   2.898   4.488 -0.1000  0.1598 -0.3788
 5935TIP3    H139296   1.629   2.963   4.436  1.8755 -1.5604 -0.8764
 5935TIP3    H239297   1.592   2.927   4.578  0.8977  0.4949 -0.5804
 5936TIP3   OH239298   1.035   4.622   2.168  0.1900  0.3495  0.4536
 5936TIP3    H139299   1.083   4.564   2.109  1.1317  1.4019  0.1579
 5936TIP3    H239300   1.084   4.620   2.250 -0.4227 -0.1418  0.8228
 5937TIP3   OH239301   0.654   6.622   2.411 -0.0171 -0.1205  0.3096
 5937TIP3    H139302   0.746   6.626   2.436  0.4427 -1.8985 -0.8753
 5937TIP3    H239303   0.629   6.531   2.426 -0.8295 -0.2915 -1.7555
 5938TIP3   OH239304   4.351   0.942   5.495 -0.5443 -0.2070  0.2759
 5938TIP3    H139305   4.353   0.944   5.400 -1.0002 -1.2454  0.2339
 5938TIP3    H239306   4.269   0.898   5.517 -1.6063  2.0824  1.1989
 5939TIP3   OH239307   2.481   5.578   2.730  0.2597 -0.2044  0.2530
 5939TIP3    H139308   2.395   5.620   2.736  0.9266  1.0705  4.3218
 5939TIP3    H239309   2.465   5.487   2.754 -0.0310 -0.1435  0.2969
 5940TIP3   OH239310   5.515   6.484   3.056 -0.0600  0.0479 -0.2717
 5940TIP3    H139311   5.444   6.524   3.106  0.0344 -0.3424  0.1813
 5940TIP3    H239312   5.528   6.543   2.982 -1.3002 -0.2148 -0.7235
 5941TIP3   OH239313   2.755   6.207  15.464  0.2085 -0.6175 -0.0431
 5941TIP3    H139314   2.713   6.131  15.505 -0.4479 -0.2205  0.0154
 5941TIP3    H239315   2.699   6.228  15.389 -0.8171  1.1198  1.1496
 5942TIP3   OH239316   5.430   0.208   1.997  0.3854  0.1964  0.1100
 5942TIP3    H139317   5.372   0.284   2.004  1.0671  0.6185  1.4000
 5942TIP3    H239318   5.494   0.233   1.929 -0.8280 -0.2316 -1.2428
 5943TIP3   OH239319   0.292   0.198  16.430  0.0744  0.4875  0.0892
 5943TIP3    H139320   0.321   0.270  16.374 -1.3896  1.0459  0.0175
 5943TIP3    H239321   0.347   0.124  16.404  1.3842  1.4759 -0.0613
 5944TIP3   OH239322   4.249   1.541   1.745  0.3478 -0.1999 -0.4947
 5944TIP3    H139323   4.229   1.457   1.787 -0.6072  0.0706 -0.3803
 5944TIP3    H239324   4.245   1.605   1.817  3.0324 -0.2661 -0.1800
 5945TIP3   OH239325   6.332   4.873  13.934 -0.0205  0.5675  0.5287
 5945TIP3    H139326   6.238   4.889  13.926 -0.3135 -1.1504  0.0837
 5945TIP3    H239327   6.340   4.810  14.006  1.1187  3.0235  2.6868
 5946TIP3   OH239328   1.624   6.726  15.830  0.0625 -0.0648 -0.0235
 5946TIP3    H139329   1.665   6.746  15.745  0.2802  0.3541  0.1765
 5946TIP3    H239330   1.539   6.689  15.807  0.2714 -0.3051 -0.4330
 5947TIP3   OH239331   0.885   6.544   3.462  0.0742 -0.1230  0.1099
 5947TIP3    H139332   0.966   6.493   3.458  0.4258  0.4331  0.0164
 5947TIP3    H239333   0.871   6.573   3.372 -0.9896 -1.3620 -0.1551
 5948TIP3   OH239334   5.924   1.578   4.323  0.4079 -0.6205  0.1181
 5948TIP3    H139335   5.994   1.627   4.365  1.7478 -0.8468 -1.7295
 5948TIP3    H239336   5.845   1.600   4.373  1.4279  1.2543  0.9926
 5949TIP3   OH239337   2.755   5.091   1.015  0.2304 -0.1859  0.0602
 5949TIP3    H139338   2.810   5.021   1.049 -0.1384  0.3317  1.8402
 5949TIP3    H239339   2.756   5.158   1.083 -0.3632  1.0426 -1.0868
 5950TIP3   OH239340   2.802   2.220   5.581 -0.0127  0.1204  0.5486
 5950TIP3    H139341   2.848   2.156   5.635 -0.7811 -1.3660 -0.5076
 5950TIP3    H239342   2.820   2.304   5.624 -0.6231 -0.9687  3.1478
 5951TIP3   OH239343   5.366   3.581  11.736  0.1242  0.0570  0.5652
 5951TIP3    H139344   5.344   3.616  11.823  1.2947  3.2949 -0.2979
 5951TIP3    H239345   5.293   3.523  11.715 -0.8306  0.1618  3.1522
 5952TIP3   OH239346   1.654   2.041  11.198 -0.2139 -0.5309  0.1530
 5952TIP3    H139347   1.625   2.114  11.143  0.8815 -1.9857 -2.5462
 5952TIP3    H239348   1.573   1.996  11.223 -0.7075 -0.4562 -1.2396
 5953TIP3   OH239349   3.148   0.241  11.538  0.1981 -0.4717  0.0129
 5953TIP3    H139350   3.233   0.196  11.536  0.5471  0.1807 -1.6779
 5953TIP3    H239351   3.165   0.325  11.496 -0.7083  0.8008  2.0769
 5954TIP3   OH239352   5.407   1.524   3.027  0.2369 -0.1292  0.5057
 5954TIP3    H139353   5.345   1.500   2.959 -0.3878  1.8048  0.3331
 5954TIP3    H239354   5.489   1.480   3.002 -0.0683  0.2465 -1.3233
 5955TIP3   OH239355   6.258   5.230   2.919 -0.0069 -0.0643  0.1081
 5955TIP3    H139356   6.173   5.273   2.929  0.0411 -0.2313  1.3735
 5955TIP3    H239357   6.306   5.285   2.858 -0.4065  0.9929  0.7254
 5956TIP3   OH239358   2.080   2.835  13.058  0.3405 -0.7489 -0.3234
 5956TIP3    H139359   2.148   2.824  13.124  2.2780 -0.2228 -2.0857
 5956TIP3    H239360   2.017   2.896  13.097  1.4597 -0.4048  0.9965
 5957TIP3   OH239361   0.633   2.663   3.450  0.2739  0.0104 -0.0670
 5957TIP3    H139362   0.672   2.747   3.475  0.9473  1.3514 -4.5934
 5957TIP3    H239363   0.606   2.676   3.359  0.4840 -4.7236 -1.0650
 5958TIP3   OH239364   5.069   4.696  15.336  0.3277  0.5541  0.1151
 5958TIP3    H139365   5.054   4.653  15.420  0.8518  2.3154  1.1611
 5958TIP3    H239366   4.987   4.741  15.317 -0.5737 -1.5949 -1.4789
 5959TIP3   OH239367   5.774   2.180   0.148 -0.0507 -0.8141  0.0748
 5959TIP3    H139368   5.732   2.261   0.122 -0.8656 -1.1519  0.3126
 5959TIP3    H239369   5.703   2.124   0.178  0.8520  0.3048  5.3142
 5960TIP3   OH239370   0.081   3.452  11.361  0.7918  0.5632 -0.1898
 5960TIP3    H139371   0.055   3.368  11.400  1.4325  0.0495 -0.8368
 5960TIP3    H239372   0.005   3.479  11.310  1.1688 -0.5158 -1.3908
 5961TIP3   OH239373   1.012   2.348  15.264  0.1056  0.1935 -0.3052
 5961TIP3    H139374   1.045   2.360  15.175  0.2958  0.1094 -0.2482
 5961TIP3    H239375   0.930   2.300  15.253 -0.1373  0.6392 -0.4656
 5962TIP3   OH239376   3.689   6.647   4.777  0.1470 -0.0714  0.1332
 5962TIP3    H139377   3.632   6.587   4.730 -0.9165  0.0014  1.2708
 5962TIP3    H239378   3.776   6.607   4.771 -0.5006 -1.6608  0.7272
 5963TIP3   OH239379   3.600   2.862   3.360  0.2142  0.4418  0.3338
 5963TIP3    H139380   3.594   2.914   3.280  0.6075  0.0269  0.0324
 5963TIP3    H239381   3.674   2.900   3.408  0.0419  0.6259  0.4544
 5964TIP3   OH239382   0.802   4.340  16.273 -0.4371 -0.2375  0.2049
 5964TIP3    H139383   0.710   4.353  16.294 -0.7984 -2.4638  0.2682
 5964TIP3    H239384   0.803   4.319  16.179  0.1832  1.1532 -0.1163
 5965TIP3   OH239385   5.623   3.121  11.186  0.1142 -0.1873  0.5596
 5965TIP3    H139386   5.644   3.211  11.212  0.2512 -0.3500  1.0068
 5965TIP3    H239387   5.676   3.107  11.107 -1.5266  0.8640 -0.8004
 5966TIP3   OH239388   3.071   4.051   4.277  0.6361 -0.1524  0.0858
 5966TIP3    H139389   3.121   4.059   4.195  0.1946  1.2215 -0.0796
 5966TIP3    H239390   3.022   3.970   4.268 -0.5345  0.6830 -1.6917
 5967TIP3   OH239391   3.578   3.206   1.194  0.1140 -0.3881 -0.1035
 5967TIP3    H139392   3.535   3.261   1.260  0.6399  0.7012 -0.6399
 5967TIP3    H239393   3.559   3.250   1.111  0.5433 -1.0346 -0.5447
 5968TIP3   OH239394   5.671   6.012  13.019 -0.4545 -0.8253 -0.1491
 5968TIP3    H139395   5.711   5.927  13.001  0.0965 -0.2360 -2.0618
 5968TIP3    H239396   5.685   6.062  12.938  0.5249  1.5882  1.3911
 5969TIP3   OH239397   0.393   2.118   0.912 -0.5255  0.0604 -0.4165
 5969TIP3    H139398   0.409   2.098   0.820 -0.1102 -0.8780 -0.1499
 5969TIP3    H239399   0.398   2.213   0.917  0.2021  0.0737 -1.2225
 5970TIP3   OH239400   5.467   1.698  15.087  0.0141  0.5056  0.2857
 5970TIP3    H139401   5.517   1.694  15.006 -0.1562  0.8913  0.1590
 5970TIP3    H239402   5.515   1.760  15.142  0.3086  0.0022  0.6090
 5971TIP3   OH239403   2.795   4.907   3.503  0.2741  0.2958 -0.0609
 5971TIP3    H139404   2.803   4.884   3.410  0.5714  0.7584 -0.1527
 5971TIP3    H239405   2.735   4.841   3.539 -1.5946  1.3953 -1.0486
 5972TIP3   OH239406   1.410   1.349  12.036  0.3031  0.1269  0.1839
 5972TIP3    H139407   1.350   1.335  11.963 -0.8794 -0.2813  1.2151
 5972TIP3    H239408   1.462   1.425  12.009 -0.6835  0.5085 -0.7138
 5973TIP3   OH239409   3.187   5.518  11.288 -0.4367  0.2095  0.1834
 5973TIP3    H139410   3.128   5.505  11.363 -0.7634 -0.1644 -0.1344
 5973TIP3    H239411   3.132   5.502  11.212 -0.1090  0.6154 -0.1401
 5974TIP3   OH239412   5.554   4.070  17.040  0.7537  0.4219  0.2646
 5974TIP3    H139413   5.553   4.145  16.981 -0.1012  1.1629  1.1905
 5974TIP3    H239414   5.462   4.043  17.046  0.6598  1.0618  2.1105
 5975TIP3   OH239415   4.587   2.946   5.276 -0.5824  0.1009  0.8363
 5975TIP3    H139416   4.653   2.999   5.321  1.1913 -0.2538 -1.1584
 5975TIP3    H239417   4.609   2.954   5.183 -3.3903 -0.0619  0.0606
 5976TIP3   OH239418   2.372   5.311  16.487 -0.0667 -0.0963  0.1082
 5976TIP3    H139419   2.351   5.258  16.564 -0.1168  1.1808  1.0201
 5976TIP3    H239420   2.468   5.318  16.488 -0.0628 -0.1408  0.0183
 5977TIP3   OH239421   6.831   5.769  12.969 -0.0372 -0.1409  0.1845
 5977TIP3    H139422   6.749   5.730  12.937 -0.5715  1.3704 -0.3805
 5977TIP3    H239423   6.893   5.756  12.897  0.4532 -1.9071  0.8859
 5978TIP3   OH239424   0.688   2.083  15.653 -0.4602  0.0399 -0.3488
 5978TIP3    H139425   0.720   2.006  15.699 -0.7063  0.4874  0.5918
 5978TIP3    H239426   0.657   2.141  15.722  0.0434  1.1393 -1.0190
 5979TIP3   OH239427   0.809   0.299   1.042 -0.2136 -0.0119 -0.4065
 5979TIP3    H139428   0.901   0.298   1.065 -0.4312  0.0610  0.5024
 5979TIP3    H239429   0.768   0.234   1.100 -1.0298  1.3222  0.5780
 5980TIP3   OH239430   5.872   5.102   0.762  0.1949  0.5647 -0.1808
 5980TIP3    H139431   5.904   5.086   0.673  0.5836 -0.8858  0.1837
 5980TIP3    H239432   5.948   5.083   0.817 -0.4457  0.0325  0.5324
 5981TIP3   OH239433   0.972   6.212   1.777  0.0326 -0.0418 -0.4921
 5981TIP3    H139434   1.048   6.245   1.825  0.1336 -3.0756  1.6678
 5981TIP3    H239435   1.006   6.141   1.723 -1.0416 -0.4966 -0.5882
 5982TIP3   OH239436   3.221   0.848   1.598  0.2040 -0.2314  0.1123
 5982TIP3    H139437   3.144   0.796   1.576  0.5453 -1.3458  1.3728
 5982TIP3    H239438   3.246   0.891   1.517 -1.8395  0.2970 -0.2782
 5983TIP3   OH239439   4.656   3.538  11.368  0.3440  0.2800 -0.1832
 5983TIP3    H139440   4.580   3.500  11.323 -0.0819  2.2557 -1.2292
 5983TIP3    H239441   4.731   3.504  11.319  0.2553 -2.0302  1.1180
 5984TIP3   OH239442   0.797   1.875  16.984  0.3725  0.0209  0.5774
 5984TIP3    H139443   0.779   1.842  16.897  1.1568 -0.2713  0.5212
 5984TIP3    H239444   0.742   1.953  16.992 -0.4013 -0.4743  0.1815
 5985TIP3   OH239445   6.684   4.108   3.095  0.2006  0.5741 -0.2467
 5985TIP3    H139446   6.711   4.189   3.138  0.5962 -0.2082  1.0250
 5985TIP3    H239447   6.633   4.137   3.019 -0.4135  1.9976  0.6699
 5986TIP3   OH239448   4.741   4.624   0.115 -0.6662  0.4342 -0.5339
 5986TIP3    H139449   4.664   4.632   0.171 -0.3462  1.0112 -0.1703
 5986TIP3    H239450   4.719   4.553   0.054 -1.8353  1.1635 -0.9977
 5987TIP3   OH239451   3.604   3.949  16.296 -0.3394  0.1180 -0.2246
 5987TIP3    H139452   3.580   4.039  16.319 -2.1540 -0.1238 -0.9729
 5987TIP3    H239453   3.604   3.902  16.379  0.8992  0.8511  0.2068
 5988TIP3   OH239454   6.259   4.703   5.698 -0.2135  0.4420 -0.1884
 5988TIP3    H139455   6.319   4.707   5.624 -0.5246 -0.3530 -0.4954
 5988TIP3    H239456   6.173   4.723   5.661 -0.0487  2.5359  0.4138
 5989TIP3   OH239457   2.254   4.233   5.738 -0.6959  0.0845  0.1924
 5989TIP3    H139458   2.329   4.175   5.724 -0.0322  1.0537 -0.4243
 5989TIP3    H239459   2.255   4.251   5.832 -1.3785 -1.4811  0.5317
 5990TIP3   OH239460   0.428   6.547   4.826 -0.1978 -0.2104 -0.3956
 5990TIP3    H139461   0.347   6.552   4.776 -0.9783 -0.6693  0.7810
 5990TIP3    H239462   0.488   6.607   4.781 -1.2863  0.3775 -1.0917
 5991TIP3   OH239463   2.930   4.396  14.155 -0.2549  0.7519 -0.1216
 5991TIP3    H139464   2.883   4.337  14.097  0.2965  1.7882 -1.6667
 5991TIP3    H239465   2.948   4.474  14.102  0.6440  1.5657  1.2992
 5992TIP3   OH239466   1.842   1.996   6.146  0.2468  0.5849  0.4494
 5992TIP3    H139467   1.785   1.996   6.068  0.2080 -1.3363  0.4311
 5992TIP3    H239468   1.855   2.088   6.165 -0.7287  1.1031 -1.1290
 5993TIP3   OH239469   0.767   2.239   2.871 -0.2154 -0.1152  0.0515
 5993TIP3    H139470   0.861   2.240   2.891  0.0671 -0.1377 -1.2459
 5993TIP3    H239471   0.748   2.328   2.841 -0.2854 -0.5256 -1.1430
 5994TIP3   OH239472   0.527   1.136   2.739  0.2665  0.5171  0.2107
 5994TIP3    H139473   0.542   1.188   2.817 -1.9644 -0.0738  1.1090
 5994TIP3    H239474   0.608   1.088   2.726  0.9316  1.1685  1.7450
 5995TIP3   OH239475   5.588   4.316   3.959 -0.0760  0.3768  0.7981
 5995TIP3    H139476   5.613   4.265   3.882  1.1430  0.8796  0.8307
 5995TIP3    H239477   5.576   4.251   4.028  1.0088  0.0819  0.7248
 5996TIP3   OH239478   2.467   6.783  11.953  0.1181  0.2787  0.1189
 5996TIP3    H139479   2.420   6.744  12.026 -0.4342 -0.4978 -0.6310
 5996TIP3    H239480   2.553   6.741  11.953 -0.3550 -0.7275 -0.4820
 5997TIP3   OH239481   3.672   3.715  13.700 -0.7360 -0.4819 -0.2105
 5997TIP3    H139482   3.764   3.718  13.723 -1.1963 -2.7504  2.5291
 5997TIP3    H239483   3.626   3.716  13.785 -2.9970 -2.9019 -1.2582
 5998TIP3   OH239484   2.542   1.622  14.680 -0.8190  0.1824 -0.0522
 5998TIP3    H139485   2.558   1.622  14.775  0.5254 -0.7154 -0.2508
 5998TIP3    H239486   2.602   1.688  14.646 -2.8350  2.1238 -0.1166
 5999TIP3   OH239487   5.280   3.400  11.436 -0.2999 -0.2169  0.3167
 5999TIP3    H139488   5.365   3.422  11.474  0.2666  0.0914 -1.0546
 5999TIP3    H239489   5.255   3.478  11.387 -1.1956 -0.4521  0.3782
 6000TIP3   OH239490   4.698   4.374  16.595  0.1449 -0.0370  0.0008
 6000TIP3    H139491   4.650   4.442  16.642  0.1713 -0.1985  0.2671
 6000TIP3    H239492   4.673   4.293  16.639 -0.6160 -0.3107 -0.9152
 6001TIP3   OH239493   6.532   0.992  15.949 -0.0313 -0.0852  0.0864
 6001TIP3    H139494   6.440   1.017  15.940 -0.4057 -0.5957  1.9179
 6001TIP3    H239495   6.544   0.921  15.886 -1.0825 -0.4453  0.2620
 6002TIP3   OH239496   1.035   2.258   5.863  0.2856  0.2941 -0.0306
 6002TIP3    H139497   0.980   2.334   5.882 -2.3012 -1.5093  0.2505
 6002TIP3    H239498   1.004   2.226   5.778  1.0502 -0.6682  0.0311
 6003TIP3   OH239499   6.681   1.473  14.044 -0.2230  0.8544 -0.0902
 6003TIP3    H139500   6.728   1.432  14.117 -0.5046  0.0364 -0.3579
 6003TIP3    H239501   6.745   1.534  14.006 -0.2180  1.6045  1.0946
 6004TIP3   OH239502   3.621   6.073  11.596  0.0306  0.6425 -0.6423
 6004TIP3    H139503   3.697   6.034  11.639  0.1070  0.3137 -1.0744
 6004TIP3    H239504   3.608   6.021  11.517 -1.5218 -0.2305  0.1419
 6005TIP3   OH239505   5.280   0.323   5.757  0.7206 -0.2331 -0.3267
 6005TIP3    H139506   5.211   0.348   5.819 -1.6679 -1.5533 -2.2845
 6005TIP3    H239507   5.301   0.232   5.780 -0.6421 -0.9549 -1.7235
 6006TIP3   OH239508   5.337   3.805  10.995  0.0781 -0.2103 -0.1499
 6006TIP3    H139509   5.426   3.789  11.027 -0.3162  0.7288  1.5041
 6006TIP3    H239510   5.338   3.772  10.905  2.1684  0.0008 -0.2521
 6007TIP3   OH239511   3.161   2.774  14.859  0.3221  0.2401  1.0432
 6007TIP3    H139512   3.247   2.816  14.856  0.2630  0.4332 -2.0018
 6007TIP3    H239513   3.169   2.699  14.799 -1.2686 -0.4959  1.6895
 6008TIP3   OH239514   1.808   2.973  14.631 -0.1844 -0.0419 -0.1728
 6008TIP3    H139515   1.790   2.879  14.629 -1.3443  0.1211  1.0501
 6008TIP3    H239516   1.838   2.989  14.721  2.8057  0.3161 -1.1438
 6009TIP3   OH239517   3.146   5.220   5.043  0.3978  0.0394 -0.1536
 6009TIP3    H139518   3.163   5.228   4.949  1.0613  1.3225  0.0420
 6009TIP3    H239519   3.229   5.247   5.084 -0.7114  2.2591  0.8145
 6010TIP3   OH239520   5.569   0.479  11.713  0.0765  0.4667  0.2097
 6010TIP3    H139521   5.621   0.410  11.671 -0.1145  0.1537  0.4759
 6010TIP3    H239522   5.581   0.556  11.658  0.2732  0.2115 -0.1077
 6011TIP3   OH239523   1.693   1.979   1.445  0.1634  0.0911 -0.0190
 6011TIP3    H139524   1.723   1.963   1.535 -2.1035  0.6793  0.9007
 6011TIP3    H239525   1.691   2.075   1.437  0.5402  0.0440 -0.7932
 6012TIP3   OH239526   0.676   1.627   2.202 -0.1829  0.4698 -0.3251
 6012TIP3    H139527   0.689   1.615   2.296  2.4202 -1.0546 -0.7673
 6012TIP3    H239528   0.760   1.662   2.171 -0.6965  0.1563 -2.1875
 6013TIP3   OH239529   4.203   3.150  10.949 -0.1445  0.4547 -0.0053
 6013TIP3    H139530   4.131   3.201  10.986  0.4563  1.2871  0.0487
 6013TIP3    H239531   4.174   3.130  10.860 -0.6135  0.4373  0.1470
 6014TIP3   OH239532   5.589   4.258  14.523 -0.1178  0.4833  0.2925
 6014TIP3    H139533   5.642   4.307  14.460 -0.3528  0.1023 -0.2160
 6014TIP3    H239534   5.513   4.229  14.472  0.9298 -2.0990 -0.0095
 6015TIP3   OH239535   3.006   0.014   3.938  0.4247  0.3550  0.1921
 6015TIP3    H139536   3.038  -0.076   3.931  1.7410  0.8116  0.0626
 6015TIP3    H239537   2.911   0.005   3.951  0.4046 -1.0203 -0.7207
 6016TIP3   OH239538   2.904   6.597  12.464 -0.2876 -0.5824 -0.1322
 6016TIP3    H139539   2.996   6.620  12.473 -0.1975 -0.1282 -1.9112
 6016TIP3    H239540   2.857   6.669  12.505  0.1169  0.6244 -1.6782
 6017TIP3   OH239541   4.247   4.375   0.718  0.1672  0.1579 -0.8679
 6017TIP3    H139542   4.324   4.318   0.711  0.0550 -0.1621  0.2272
 6017TIP3    H239543   4.189   4.345   0.649  0.1885 -0.9562 -0.4356
 6018TIP3   OH239544   3.583   4.879  14.206 -0.5219 -0.1136  0.6742
 6018TIP3    H139545   3.579   4.967  14.166 -2.8583  0.0677  1.1483
 6018TIP3    H239546   3.620   4.824  14.137  1.6308  1.3285  0.5977
 6019TIP3   OH239547   6.705   6.751  15.646 -0.2728  0.1550 -0.5600
 6019TIP3    H139548   6.738   6.691  15.579  0.1316  0.7557 -0.9030
 6019TIP3    H239549   6.642   6.698  15.695  1.3822 -1.1152  0.3016
 6020TIP3   OH239550   1.480   4.190  13.095 -0.0631 -0.1349  0.4929
 6020TIP3    H139551   1.494   4.193  13.000 -0.0269 -0.8200  0.4717
 6020TIP3    H239552   1.395   4.232  13.108  0.4743  1.0548  0.2860
 6021TIP3   OH239553   0.526   2.556   2.196  0.6056 -0.1342  0.3960
 6021TIP3    H139554   0.561   2.476   2.157  1.5341 -1.7300  4.0565
 6021TIP3    H239555   0.603   2.613   2.206  0.3095  0.4122 -0.3807
 6022TIP3   OH239556   0.657   0.188   1.284  0.0059 -0.3744 -0.5509
 6022TIP3    H139557   0.645   0.149   1.371  0.5412 -1.5966 -1.0051
 6022TIP3    H239558   0.720   0.259   1.298 -0.5338 -0.0171  0.1853
 6023TIP3   OH239559   6.308   1.566  15.430 -0.7197  0.0570 -0.2771
 6023TIP3    H139560   6.262   1.581  15.347 -0.4003 -0.3752 -0.5375
 6023TIP3    H239561   6.247   1.596  15.497 -2.1352 -2.0819 -0.5033
 6024TIP3   OH239562   0.728   2.690   5.818 -0.5965 -0.5132 -0.0147
 6024TIP3    H139563   0.800   2.643   5.861 -0.9104  0.1844  1.3043
 6024TIP3    H239564   0.690   2.625   5.758  0.9401 -0.9721 -0.5468
 6025TIP3   OH239565   3.389   6.518  12.778  0.5249 -0.1723 -0.0357
 6025TIP3    H139566   3.362   6.593  12.725  1.6160 -0.6847 -1.4047
 6025TIP3    H239567   3.324   6.450  12.758  1.3170 -0.5859 -1.3102
 6026TIP3   OH239568   0.132   3.317  17.051  0.0586  0.3082 -0.0516
 6026TIP3    H139569   0.043   3.295  17.078 -0.5836  1.9206 -0.7455
 6026TIP3    H239570   0.121   3.361  16.966  1.5130  0.5845 -0.1196
 6027TIP3   OH239571   5.490   5.253   1.704  0.5079 -0.2079 -0.6646
 6027TIP3    H139572   5.415   5.235   1.648  0.8004  1.5120 -1.6922
 6027TIP3    H239573   5.549   5.305   1.649  1.2263  0.7766  0.9499
 6028TIP3   OH239574   3.730   2.690   4.859 -0.1323 -0.1481  0.7533
 6028TIP3    H139575   3.746   2.728   4.945 -0.6148 -1.0617  1.2573
 6028TIP3    H239576   3.652   2.636   4.870 -2.5619  2.6045 -1.1345
 6029TIP3   OH239577   0.582   0.474  16.284 -0.7088  0.3576 -0.0690
 6029TIP3    H139578   0.674   0.489  16.266 -0.9891  1.5072 -0.6265
 6029TIP3    H239579   0.546   0.440  16.202 -0.9058  0.4733 -0.0307
 6030TIP3   OH239580   6.687   1.854   4.518 -0.2782 -0.0355  0.5502
 6030TIP3    H139581   6.780   1.845   4.541 -0.2960 -2.8684 -0.0576
 6030TIP3    H239582   6.641   1.830   4.599 -0.5055  1.1732  0.7922
 6031TIP3   OH239583   4.240   5.108   0.047  0.0680 -0.4364  0.0948
 6031TIP3    H139584   4.165   5.051   0.066  1.3518 -2.2378  0.0165
 6031TIP3    H239585   4.232   5.180   0.110 -0.4977 -1.7947  1.6383
 6032TIP3   OH239586   3.510   4.811  13.884 -0.5454 -0.2678 -0.3196
 6032TIP3    H139587   3.438   4.837  13.942  0.0386  1.7105 -0.4260
 6032TIP3    H239588   3.470   4.747  13.824 -1.4234 -1.5462  1.5270
 6033TIP3   OH239589   0.779   3.150   3.478  0.0275 -0.0130 -0.0191
 6033TIP3    H139590   0.795   3.212   3.407  0.6659 -1.4093 -1.1411
 6033TIP3    H239591   0.862   3.146   3.525  0.2647 -0.6262 -0.4700
 6034TIP3   OH239592   0.371   3.063   2.557 -0.5898  0.2906 -0.2809
 6034TIP3    H139593   0.442   3.076   2.621 -0.8884 -1.1865  0.4064
 6034TIP3    H239594   0.402   2.990   2.503 -1.4543 -0.1778 -0.1524
 6035TIP3   OH239595   1.911   4.823  14.640  0.2458  0.1703 -0.1100
 6035TIP3    H139596   1.921   4.746  14.697 -0.8590  0.7122  0.8623
 6035TIP3    H239597   1.981   4.815  14.576  0.6769 -1.1972  0.5004
 6036TIP3   OH239598   4.136   6.128   6.062 -0.0885  0.0433  0.1651
 6036TIP3    H139599   4.123   6.223   6.056  3.4724  0.6326 -0.6289
 6036TIP3    H239600   4.083   6.101   6.137  0.1098  2.9773  1.4989
 6037TIP3   OH239601   6.100   4.531   4.364 -0.1049 -0.0222 -0.1497
 6037TIP3    H139602   6.049   4.597   4.318  1.3746  0.0228 -1.8616
 6037TIP3    H239603   6.114   4.462   4.298  3.1559  0.6095 -0.2769
 6038TIP3   OH239604   5.568   5.101   0.577  0.4304 -0.3218 -0.3537
 6038TIP3    H139605   5.538   5.048   0.651 -0.0587  1.1258  0.5257
 6038TIP3    H239606   5.487   5.135   0.538  0.7349  2.2810  1.0234
 6039TIP3   OH239607   1.367   5.952  15.203 -0.0871 -0.9949 -0.3544
 6039TIP3    H139608   1.333   6.037  15.174 -1.1332 -1.3719 -0.2405
 6039TIP3    H239609   1.315   5.887  15.157  1.3258 -1.6025 -1.1530
 6040TIP3   OH239610   0.828   6.201  13.053  0.1426 -0.2035  0.0080
 6040TIP3    H139611   0.748   6.189  13.104 -0.4367  2.6644 -0.0308
 6040TIP3    H239612   0.803   6.174  12.964 -0.6987  0.2973  0.0758
 6041TIP3   OH239613   0.263   4.296  14.503  0.0526  0.2554 -0.3242
 6041TIP3    H139614   0.210   4.223  14.533  0.9030 -0.7425 -1.1744
 6041TIP3    H239615   0.336   4.301  14.565 -0.0614  0.4607 -0.2043
 6042TIP3   OH239616   4.911   1.174   0.475  0.5957  0.5626  0.0935
 6042TIP3    H139617   5.001   1.177   0.443  1.1061  2.2718  1.4916
 6042TIP3    H239618   4.899   1.257   0.521 -0.9862 -0.5393  1.8359
 6043TIP3   OH239619   3.120   6.574  15.139  0.2851 -1.2072  0.4751
 6043TIP3    H139620   3.126   6.480  15.159  1.4694 -0.8864  1.7364
 6043TIP3    H239621   3.140   6.617  15.222  1.5624  0.1835 -0.5226
 6044TIP3   OH239622   0.112   5.974  15.957 -0.1342  0.3428 -0.3351
 6044TIP3    H139623   0.129   6.029  15.880 -0.9833 -0.3014 -0.9940
 6044TIP3    H239624   0.075   6.034  16.021 -0.1553  0.7349 -0.7066
 6045TIP3   OH239625   3.505   4.545  15.547  0.0634  0.0558  0.0768
 6045TIP3    H139626   3.468   4.474  15.494 -0.8173  0.6414 -0.1133
 6045TIP3    H239627   3.439   4.563  15.614 -0.3774  1.6107 -0.7141
 6046TIP3   OH239628   2.677   1.396  13.499  0.5233  0.0080 -0.0096
 6046TIP3    H139629   2.646   1.320  13.449 -1.1541  0.0904  0.8169
 6046TIP3    H239630   2.614   1.404  13.570  1.1362  1.7121  0.3737
 6047TIP3   OH239631   5.536   3.679   0.860 -0.3857 -0.0359  0.0657
 6047TIP3    H139632   5.622   3.702   0.896  0.2278 -0.6501 -0.9588
 6047TIP3    H239633   5.509   3.602   0.909  0.8989 -1.4772 -1.3637
 6048TIP3   OH239634   1.945   5.963   1.087  0.1117 -0.2457  0.4483
 6048TIP3    H139635   1.935   5.958   0.992 -1.0271 -1.2039  0.5985
 6048TIP3    H239636   2.002   6.039   1.101 -0.0647  0.1783 -0.9707
 6049TIP3   OH239637   2.320   2.658  12.185 -0.0338  0.1580 -0.2551
 6049TIP3    H139638   2.410   2.626  12.186  0.0914  0.5076  0.3245
 6049TIP3    H239639   2.328   2.751  12.165 -0.4482 -0.2660 -2.7348
 6050TIP3   OH239640   5.706   4.159  13.933  0.3756  0.1765 -0.3624
 6050TIP3    H139641   5.653   4.088  13.896 -3.0756  1.5877  1.4083
 6050TIP3    H239642   5.664   4.239  13.903  1.3057  1.4029  1.3951
 6051TIP3   OH239643   2.278   1.662   5.010 -0.4490 -0.0527  0.3947
 6051TIP3    H139644   2.211   1.623   4.954  1.0393  0.4302 -1.8856
 6051TIP3    H239645   2.325   1.588   5.047 -0.4554 -0.4097 -0.3044
 6052TIP3   OH239646   3.515   5.398  16.848  0.0906  0.2719 -0.0651
 6052TIP3    H139647   3.493   5.489  16.826  0.0169  0.0733 -0.8755
 6052TIP3    H239648   3.609   5.391  16.830  0.0913  0.1834 -0.0252
 6053TIP3   OH239649   1.224   4.834  13.350  0.2960 -0.2397 -0.3698
 6053TIP3    H139650   1.146   4.783  13.370 -0.3395 -0.1853 -2.4794
 6053TIP3    H239651   1.297   4.775  13.370 -0.1767 -0.0404  2.3007
 6054TIP3   OH239652   3.412   4.762   4.221 -0.3141 -0.4166 -0.0505
 6054TIP3    H139653   3.326   4.725   4.241 -0.1361 -0.4185  0.7431
 6054TIP3    H239654   3.471   4.686   4.218 -0.3219 -0.4073 -0.5113
 6055TIP3   OH239655   1.448   1.842   3.946  0.0754  0.8075 -0.2850
 6055TIP3    H139656   1.518   1.879   3.891 -1.9646  4.0051 -0.9797
 6055TIP3    H239657   1.385   1.807   3.883  0.4980 -1.1009  0.3047
 6056TIP3   OH239658   1.854   4.786  10.964 -0.3712  0.4946 -0.1029
 6056TIP3    H139659   1.888   4.842  10.895 -3.0724 -1.5754 -3.4477
 6056TIP3    H239660   1.892   4.700  10.945 -1.4779 -0.2032  0.7328
 6057TIP3   OH239661   0.628   2.993   4.474 -0.1009  0.0755  0.2440
 6057TIP3    H139662   0.582   2.911   4.459  0.5563  0.1099 -2.3865
 6057TIP3    H239663   0.683   2.975   4.551 -0.2115 -1.8549 -0.0655
 6058TIP3   OH239664   6.077   6.157  12.078  0.2077 -0.1730 -0.0146
 6058TIP3    H139665   6.028   6.160  11.995  0.5247  0.8284 -0.1902
 6058TIP3    H239666   6.168   6.168  12.052  0.1700  1.8871  0.5540
 6059TIP3   OH239667   6.458   4.708   3.661 -0.5118  0.0606  0.1191
 6059TIP3    H139668   6.491   4.642   3.722 -0.5717 -0.0782  0.0021
 6059TIP3    H239669   6.447   4.786   3.715 -0.7543 -0.1176  0.3327
 6060TIP3   OH239670   5.570   1.611   2.560 -0.7596 -0.3968  0.8247
 6060TIP3    H139671   5.496   1.564   2.597  0.1431 -2.8348 -0.2292
 6060TIP3    H239672   5.582   1.572   2.473  1.0121  0.7529  0.4924
 6061TIP3   OH239673   2.053   6.496   5.887  0.1716 -0.6962  0.6119
 6061TIP3    H139674   2.116   6.532   5.950  0.8668  0.1190 -0.5241
 6061TIP3    H239675   2.053   6.558   5.815 -2.0770 -0.6113  0.6341
 6062TIP3   OH239676   6.824   5.131  10.453  0.2665  0.9518  0.4560
 6062TIP3    H139677   6.800   5.088  10.370 -0.3696 -0.3214  1.2741
 6062TIP3    H239678   6.827   5.224  10.431 -1.4760  0.7896 -0.6476
 6063TIP3   OH239679   4.848   1.180  15.901 -0.3896 -0.2762  0.4729
 6063TIP3    H139680   4.934   1.195  15.940 -0.2239  2.0273 -0.6055
 6063TIP3    H239681   4.786   1.223  15.960 -0.6579 -0.8367  0.6016
 6064TIP3   OH239682   3.873   2.798   4.094  0.0715 -0.2371 -0.4054
 6064TIP3    H139683   3.870   2.859   4.021 -2.3701 -1.1864 -1.1874
 6064TIP3    H239684   3.934   2.730   4.065 -0.0210 -0.0397 -1.0843
 6065TIP3   OH239685   4.600   3.103  14.792  0.2631 -0.1856  0.4138
 6065TIP3    H139686   4.566   3.181  14.749  1.4920 -0.5405 -1.2800
 6065TIP3    H239687   4.547   3.031  14.757  1.5168 -0.5214 -0.8583
 6066TIP3   OH239688   3.841   0.091   6.065 -0.4578  0.3843  0.4106
 6066TIP3    H139689   3.917   0.038   6.042 -1.1635 -0.2534 -0.5743
 6066TIP3    H239690   3.870   0.182   6.056 -0.2101  0.1549 -1.4448
 6067TIP3   OH239691   4.470   5.854  14.621 -0.0603 -1.0230 -0.3936
 6067TIP3    H139692   4.485   5.826  14.530 -0.0265 -0.0369 -0.7102
 6067TIP3    H239693   4.389   5.906  14.616  0.7752  0.3596 -0.1646
 6068TIP3   OH239694   4.348   5.990  16.761  0.5703  0.1471  0.0220
 6068TIP3    H139695   4.260   6.010  16.791 -0.0196  0.1709 -1.6105
 6068TIP3    H239696   4.350   5.895  16.753  1.4490 -0.0628  2.1567
 6069TIP3   OH239697   3.600   4.433   5.376  0.0547  0.0015  1.1357
 6069TIP3    H139698   3.564   4.427   5.287 -0.9243  2.0632  1.3465
 6069TIP3    H239699   3.695   4.437   5.363 -0.0957  0.7670  0.1193
 6070TIP3   OH239700   5.443   3.835   5.822 -0.1181  0.8094  0.2492
 6070TIP3    H139701   5.480   3.795   5.900 -0.4488 -0.5323 -0.2590
 6070TIP3    H239702   5.517   3.840   5.761 -0.4121 -0.5477 -0.2541
 6071TIP3   OH239703   3.616   2.067  16.410 -0.1670 -0.0038  0.1786
 6071TIP3    H139704   3.620   2.155  16.447  0.4409 -0.4023  1.0957
 6071TIP3    H239705   3.525   2.056  16.382 -0.7728  0.1473  2.0019
 6072TIP3   OH239706   2.458   3.288   2.660  0.0072  0.4375 -0.5445
 6072TIP3    H139707   2.527   3.352   2.641  0.7628 -0.6677 -1.6876
 6072TIP3    H239708   2.506   3.207   2.679 -0.9672 -0.5144 -1.9789
 6073TIP3   OH239709   4.138   2.304   2.820 -0.1677 -0.2064 -0.2014
 6073TIP3    H139710   4.119   2.389   2.861  0.7903 -0.2585  0.3727
 6073TIP3    H239711   4.158   2.246   2.893  0.3996 -0.6097 -0.6673
 6074TIP3   OH239712   2.329   1.579   2.458 -0.7113  0.2566  0.3039
 6074TIP3    H139713   2.289   1.558   2.374 -0.1527 -0.5025  0.2192
 6074TIP3    H239714   2.367   1.666   2.444 -1.9144  0.7968  0.2542
 6075TIP3   OH239715   0.395   5.162  14.676  0.0643 -0.1830  0.7058
 6075TIP3    H139716   0.478   5.138  14.718 -0.1272 -1.8522  0.1903
 6075TIP3    H239717   0.410   5.148  14.582 -0.4945  0.4430  0.5174
 6076TIP3   OH239718   5.365   2.026   0.774  0.2362 -0.0159 -0.5299
 6076TIP3    H139719   5.448   1.993   0.739  1.0655 -0.7833  1.9086
 6076TIP3    H239720   5.365   2.119   0.753  0.6749 -0.4160 -2.4411
 6077TIP3   OH239721   5.012   0.255  16.531  0.1976  0.3505  0.1128
 6077TIP3    H139722   4.923   0.224  16.514  0.5571 -1.4491  1.2696
 6077TIP3    H239723   5.015   0.268  16.625  0.6145  2.3553 -0.1323
 6078TIP3   OH239724   1.841   4.032  12.697 -0.4937  0.0033 -0.3281
 6078TIP3    H139725   1.882   3.947  12.685  0.8740  0.4234  1.0434
 6078TIP3    H239726   1.893   4.091  12.642 -2.2624 -0.1947 -2.3612
 6079TIP3   OH239727   0.690   1.868  11.272 -0.0805  0.0101  0.2486
 6079TIP3    H139728   0.688   1.964  11.274 -0.1108  0.0046  0.6072
 6079TIP3    H239729   0.768   1.846  11.323 -0.7210 -0.1826  1.1591
 6080TIP3   OH239730   5.354   5.671   1.748  0.9756  0.1920 -0.0161
 6080TIP3    H139731   5.291   5.603   1.726  0.6742  0.2706  0.6009
 6080TIP3    H239732   5.301   5.747   1.773  1.3142  0.4277 -0.0038
 6081TIP3   OH239733   1.362   6.432   4.642  0.1646  0.3881  0.1919
 6081TIP3    H139734   1.413   6.360   4.604 -0.9620 -0.6037  0.4928
 6081TIP3    H239735   1.405   6.451   4.725  0.3272 -0.1079  0.2263
 6082TIP3   OH239736   1.455   6.049   0.292  0.2822 -0.0214 -0.1012
 6082TIP3    H139737   1.467   5.958   0.264  2.2962 -0.1160  0.9090
 6082TIP3    H239738   1.525   6.097   0.248 -0.1690  0.8612  0.1305
 6083TIP3   OH239739   0.866   3.827  15.227  0.5350 -0.4236 -0.0136
 6083TIP3    H139740   0.855   3.829  15.132  0.5976 -1.0610 -0.0409
 6083TIP3    H239741   0.883   3.735  15.247  0.7334 -0.2598  0.5926
 6084TIP3   OH239742   6.092   0.050  16.472  0.0870 -0.3794  0.3542
 6084TIP3    H139743   6.003   0.038  16.442  0.8757 -1.7286 -1.5736
 6084TIP3    H239744   6.096   0.142  16.499 -1.2307  0.3756 -1.8540
 6085TIP3   OH239745   3.791   2.568   0.228 -0.2763  0.1250  0.3771
 6085TIP3    H139746   3.715   2.555   0.285 -1.3491 -1.8614 -1.4031
 6085TIP3    H239747   3.846   2.491   0.242  0.1403  0.3002 -0.2513
 6086TIP3   OH239748   4.713   1.800   6.166 -0.7425  0.2167 -0.3602
 6086TIP3    H139749   4.687   1.794   6.258 -0.3617  0.5991 -0.2241
 6086TIP3    H239750   4.729   1.710   6.140  0.4621  0.2067  0.3409
 6087TIP3   OH239751   4.543   3.221   3.254 -0.1665  0.0903  0.3813
 6087TIP3    H139752   4.602   3.280   3.300  0.5353  1.1343 -1.7426
 6087TIP3    H239753   4.472   3.278   3.223 -1.4311 -0.8544  1.4376
 6088TIP3   OH239754   6.556   3.082  15.693  0.1914 -0.1648  0.0096
 6088TIP3    H139755   6.599   3.113  15.613  0.4549 -2.0972 -0.6288
 6088TIP3    H239756   6.516   2.999  15.668 -0.3031 -0.4722  1.7278
 6089TIP3   OH239757   0.628   2.051   5.622 -0.2579 -0.1637 -0.0534
 6089TIP3    H139758   0.541   2.065   5.661  1.0232  2.8699  2.1196
 6089TIP3    H239759   0.617   2.074   5.530 -1.3695  2.4151  0.6417
 6090TIP3   OH239760   2.071   5.833   5.573 -0.0353  0.4400 -0.2967
 6090TIP3    H139761   2.029   5.797   5.495 -0.3842 -0.7027  0.3892
 6090TIP3    H239762   2.004   5.825   5.642  0.3556  1.1750  0.1801
 6091TIP3   OH239763   1.917   0.855  13.580  0.6111 -0.0824  0.0981
 6091TIP3    H139764   1.833   0.819  13.608  1.4732 -0.2405  2.7582
 6091TIP3    H239765   1.896   0.905  13.501 -1.1797 -3.7421 -2.0258
 6092TIP3   OH239766   0.630   1.550  11.927 -0.0593 -0.1378 -0.6421
 6092TIP3    H139767   0.655   1.500  11.849 -1.1431  0.1709 -1.2093
 6092TIP3    H239768   0.598   1.633  11.892 -3.0246 -0.9261 -0.1220
 6093TIP3   OH239769   4.963   6.777   5.103 -0.9324  0.2617  0.3584
 6093TIP3    H139770   4.955   6.772   5.007  0.1416 -0.9821  0.3026
 6093TIP3    H239771   4.951   6.869   5.123 -1.5080  0.4958 -0.9495
 6094TIP3   OH239772   0.386   3.191   4.082 -0.0680  0.5647 -0.0501
 6094TIP3    H139773   0.437   3.224   4.008  1.4045 -0.8216  0.2828
 6094TIP3    H239774   0.427   3.231   4.159  0.5030 -0.4539  0.2081
 6095TIP3   OH239775   2.269   4.273  14.918 -0.0764  0.0884 -0.4910
 6095TIP3    H139776   2.339   4.339  14.917  2.2693 -2.2226 -2.9705
 6095TIP3    H239777   2.298   4.209  14.982 -1.0647  0.1714  0.0506
 6096TIP3   OH239778   3.660   4.932  12.287  0.3356 -0.0052  0.6009
 6096TIP3    H139779   3.749   4.967  12.278  0.0403  0.6347  0.0238
 6096TIP3    H239780   3.628   4.970  12.368  0.7282 -0.5577  1.0170
 6097TIP3   OH239781   3.924   2.275  14.453  0.3032  0.0196  0.0929
 6097TIP3    H139782   3.911   2.181  14.448 -2.4596  0.1818  1.8209
 6097TIP3    H239783   3.879   2.302  14.534 -1.6813  3.1079 -1.7803
 6098TIP3   OH239784   4.254   2.036   0.067  0.0642  0.1662  0.0333
 6098TIP3    H139785   4.221   1.957   0.024 -0.0400 -0.1841  0.7252
 6098TIP3    H239786   4.177   2.092   0.077  0.7465  2.1724 -4.0236
 6099TIP3   OH239787   5.137   4.462   2.011  0.0507 -0.3278  0.7839
 6099TIP3    H139788   5.209   4.524   2.021 -0.8547  0.6937  1.2532
 6099TIP3    H239789   5.106   4.447   2.101  1.3203 -2.8401  0.9035
 6100TIP3   OH239790   5.385   4.856  13.369 -0.3558  0.0519 -0.2148
 6100TIP3    H139791   5.373   4.927  13.432 -0.0181 -0.7859  0.8216
 6100TIP3    H239792   5.313   4.867  13.306  1.0917  2.7906 -1.5684
 6101TIP3   OH239793   2.363   0.973   3.990 -0.5463  0.1128 -0.5516
 6101TIP3    H139794   2.440   0.920   4.011 -0.3354  1.3363  2.0858
 6101TIP3    H239795   2.292   0.909   3.982  0.2154 -0.7965 -0.2728
 6102TIP3   OH239796   0.609   4.927  11.547 -0.2065 -0.0051  0.4115
 6102TIP3    H139797   0.552   4.857  11.517  1.6589 -1.3930 -0.1002
 6102TIP3    H239798   0.550   4.998  11.572 -2.0895 -1.1755 -0.5313
 6103TIP3   OH239799   5.151   5.450  16.648 -0.4487 -0.1461  0.0992
 6103TIP3    H139800   5.123   5.428  16.737  1.6732  1.8381  1.3830
 6103TIP3    H239801   5.152   5.545  16.646  1.6272 -0.1356 -1.2996
 6104TIP3   OH239802   6.535   1.409   0.651 -0.1152  0.1831 -0.2115
 6104TIP3    H139803   6.601   1.373   0.709 -2.1709 -0.5550  1.8107
 6104TIP3    H239804   6.532   1.348   0.577  1.4214  0.2543 -0.3719
 6105TIP3   OH239805   2.720   3.600  12.581  0.0179 -0.0883 -0.3902
 6105TIP3    H139806   2.680   3.513  12.574 -0.2022  0.0049 -0.2900
 6105TIP3    H239807   2.651   3.656  12.615  0.8199 -0.3523  1.8224
 6106TIP3   OH239808   4.763   4.799  15.865 -0.2078  0.1636 -0.5424
 6106TIP3    H139809   4.847   4.845  15.873 -0.9006  1.3426  0.3688
 6106TIP3    H239810   4.723   4.837  15.787 -0.4735  0.6111 -0.1942
 6107TIP3   OH239811   0.260   2.774  12.015  0.1120 -0.0386 -0.2762
 6107TIP3    H139812   0.199   2.706  12.044 -2.2066  1.3988 -1.4396
 6107TIP3    H239813   0.248   2.844  12.079 -0.2504  0.6537 -1.0920
 6108TIP3   OH239814   1.293   3.192   4.098  0.4549  0.1645 -1.1239
 6108TIP3    H139815   1.385   3.166   4.094  0.4623 -0.1918  0.4768
 6108TIP3    H239816   1.293   3.286   4.083  0.9486 -0.0036 -2.2559
 6109TIP3   OH239817   1.089   6.545   2.742  0.0287  0.4678  0.5634
 6109TIP3    H139818   1.167   6.498   2.712  1.5657  1.8936  2.0756
 6109TIP3    H239819   1.089   6.626   2.690  0.8714  1.4727  2.0531
 6110TIP3   OH239820   0.970   2.150  11.782 -0.1653  0.6302 -0.3147
 6110TIP3    H139821   0.929   2.136  11.867 -1.1590 -0.6050 -0.9739
 6110TIP3    H239822   0.981   2.063  11.745  1.7144  1.0334 -0.8069
 6111TIP3   OH239823   2.392   6.440  14.643 -0.6670  0.1059  0.7426
 6111TIP3    H139824   2.390   6.522  14.593 -2.1230 -1.0251 -1.1894
 6111TIP3    H239825   2.434   6.378  14.585 -0.4701 -0.7703  1.7976
 6112TIP3   OH239826   6.038   1.161  15.810 -0.5626  0.0217 -0.3796
 6112TIP3    H139827   6.085   1.089  15.852  0.4727  0.8227 -0.1286
 6112TIP3    H239828   5.966   1.181  15.870 -0.8463 -0.7677 -0.4389
 6113TIP3   OH239829   3.773   0.745   3.958  0.1576  0.3008 -0.3129
 6113TIP3    H139830   3.784   0.660   3.915 -1.7587 -0.4584  0.5796
 6113TIP3    H239831   3.855   0.759   4.004  0.1945 -1.5464  0.2911
 6114TIP3   OH239832   5.873   0.917   2.366  0.5351 -0.5481 -0.3909
 6114TIP3    H139833   5.806   0.849   2.364  0.2168 -0.2826  0.4471
 6114TIP3    H239834   5.945   0.879   2.417  0.3157 -0.2406  0.1659
 6115TIP3   OH239835   4.643   6.664   3.005  0.4820  0.5455  0.5573
 6115TIP3    H139836   4.584   6.618   2.945 -0.9353  2.4193  0.4392
 6115TIP3    H239837   4.650   6.752   2.969  1.8722  0.9072  1.6324
 6116TIP3   OH239838   6.811   0.590  14.517 -0.2070 -0.0853  0.3995
 6116TIP3    H139839   6.842   0.581  14.426 -0.6915  0.7483  0.1462
 6116TIP3    H239840   6.720   0.560  14.514 -0.4976  0.7749  0.4203
 6117TIP3   OH239841   5.949   2.502  13.983 -0.0642 -0.3380 -0.4492
 6117TIP3    H139842   5.978   2.530  13.897  2.0188 -1.5356 -0.2128
 6117TIP3    H239843   5.921   2.411  13.971  1.8788 -1.1079  0.3738
 6118TIP3   OH239844   5.400   4.107   1.389 -0.1764 -0.2031  0.1980
 6118TIP3    H139845   5.471   4.172   1.389  0.5733 -1.0037 -0.0686
 6118TIP3    H239846   5.372   4.103   1.481 -0.5125  0.7861  0.1527
 6119TIP3   OH239847   0.359   5.060   5.330  0.8617  0.1959 -0.3640
 6119TIP3    H139848   0.300   5.085   5.259  0.1437  0.7559  0.4282
 6119TIP3    H239849   0.314   4.989   5.375  1.0945  0.1794 -0.1573
 6120TIP3   OH239850   3.790   0.730   5.014 -0.0216  0.6874 -0.3105
 6120TIP3    H139851   3.853   0.708   4.946  0.2302  2.1985 -0.6015
 6120TIP3    H239852   3.827   0.694   5.095  1.5573  2.1098 -0.3602
 6121TIP3   OH239853   0.569   3.218   5.236 -0.2978  0.7217 -0.2262
 6121TIP3    H139854   0.590   3.139   5.286 -0.7688  0.6212 -0.1815
 6121TIP3    H239855   0.595   3.197   5.146 -0.8158  0.3531 -0.2953
 6122TIP3   OH239856   4.879   4.363   0.201  0.0849  0.2094  0.5236
 6122TIP3    H139857   4.806   4.385   0.260  0.8743  2.3864  0.7901
 6122TIP3    H239858   4.947   4.427   0.224  1.5127 -0.8173 -0.7488
 6123TIP3   OH239859   3.948   4.826  13.352 -0.0112 -0.3336 -0.0029
 6123TIP3    H139860   3.957   4.731  13.337  0.2176 -0.1201 -1.4211
 6123TIP3    H239861   3.992   4.866  13.277 -0.4844  0.9015  0.3508
 6124TIP3   OH239862   5.527   3.538  12.032 -0.0117 -0.2235 -0.5867
 6124TIP3    H139863   5.494   3.456  11.996 -0.0936  0.2053 -1.5359
 6124TIP3    H239864   5.450   3.596  12.031 -0.4135 -0.6381  1.7483
 6125TIP3   OH239865   4.973   0.167   6.408 -0.2990  0.1352 -0.2408
 6125TIP3    H139866   5.062   0.197   6.389  0.6467 -2.8677 -1.1573
 6125TIP3    H239867   4.983   0.112   6.486 -1.3261 -0.2400 -0.3673
 6126TIP3   OH239868   2.643   3.989  13.432  0.3076  0.3484  0.0811
 6126TIP3    H139869   2.647   4.054  13.361  1.1374 -1.0123 -1.1740
 6126TIP3    H239870   2.681   3.910  13.394  0.0653 -0.6527  1.8295
 6127TIP3   OH239871   2.360   6.789   5.570 -0.3695 -0.3411 -0.4559
 6127TIP3    H139872   2.433   6.849   5.559 -0.4641 -0.2266 -0.4551
 6127TIP3    H239873   2.297   6.814   5.503 -0.5716 -0.1967 -0.2110
 6128TIP3   OH239874   1.610   3.721   1.360  0.2163  0.4143 -0.1253
 6128TIP3    H139875   1.631   3.628   1.365  0.5774  0.4962 -0.0455
 6128TIP3    H239876   1.572   3.733   1.273 -1.1796 -0.0631  0.3921
 6129TIP3   OH239877   2.449   1.673   3.143  0.2986 -0.3457 -0.1391
 6129TIP3    H139878   2.500   1.636   3.214  1.7817  2.5544  0.4659
 6129TIP3    H239879   2.364   1.691   3.181  0.7362  0.1861  0.5967
 6130TIP3   OH239880   1.930   1.690   3.045 -0.4582 -0.2634 -0.5262
 6130TIP3    H139881   1.955   1.782   3.035 -4.0205  0.9638  0.5616
 6130TIP3    H239882   1.916   1.659   2.956 -0.1201  0.5130 -0.8567
 6131TIP3   OH239883   3.156   5.875  11.471 -0.5486 -0.4406 -0.0883
 6131TIP3    H139884   3.186   5.850  11.384 -0.2097 -0.5399  0.0556
 6131TIP3    H239885   3.211   5.825  11.531 -0.6523 -0.2331  0.1855
 6132TIP3   OH239886   2.965   4.062   3.970  0.1426  0.1471 -0.2410
 6132TIP3    H139887   3.055   4.045   3.941  0.1259 -3.8025  1.3751
 6132TIP3    H239888   2.910   4.027   3.900 -0.1813  1.9911 -0.9443
 6133TIP3   OH239889   3.080   2.755  12.328 -0.0883 -0.0739 -0.2634
 6133TIP3    H139890   3.110   2.686  12.269  1.2136  0.0348  0.2311
 6133TIP3    H239891   3.036   2.818  12.272  0.3477 -0.4069 -0.9887
 6134TIP3   OH239892   3.969   3.541   2.529  0.0724 -0.2487 -0.2750
 6134TIP3    H139893   3.995   3.564   2.618  1.3831 -0.9097 -0.4588
 6134TIP3    H239894   3.908   3.610   2.503  2.0690  1.7401  0.0130
 6135TIP3   OH239895   5.083   5.569   3.365  0.3588  0.9072  0.5169
 6135TIP3    H139896   5.106   5.477   3.361 -0.4793  0.6134  1.7368
 6135TIP3    H239897   5.158   5.611   3.406 -0.4811  0.2129  2.9653
 6136TIP3   OH239898   6.328   1.198   0.181 -0.0297  0.2537  0.0394
 6136TIP3    H139899   6.390   1.239   0.241 -0.5839 -1.1915  1.6759
 6136TIP3    H239900   6.377   1.125   0.142 -0.2048  0.0847  0.1316
 6137TIP3   OH239901   4.098   2.819   3.191  0.3474  0.1516 -0.1273
 6137TIP3    H139902   4.185   2.789   3.217  0.7851  1.9318  0.6144
 6137TIP3    H239903   4.053   2.836   3.274 -0.6838 -0.6719 -0.5094
 6138TIP3   OH239904   1.940   2.412  13.661  0.5491 -0.4834 -0.2433
 6138TIP3    H139905   1.865   2.413  13.601 -0.1132  1.6891  0.5148
 6138TIP3    H239906   1.915   2.350  13.730 -1.1882  1.0854  0.6487
 6139TIP3   OH239907   4.578   5.069   4.261  0.1194  0.2832  0.1218
 6139TIP3    H139908   4.521   5.008   4.308  1.1097  0.4848  1.6277
 6139TIP3    H239909   4.530   5.089   4.180 -1.3559 -0.5226  0.7676
 6140TIP3   OH239910   5.351   6.150  15.642 -0.1211  0.0607  0.0577
 6140TIP3    H139911   5.345   6.061  15.609 -0.3559  0.0808  0.0401
 6140TIP3    H239912   5.314   6.145  15.730 -0.6643  0.2479 -0.1541
 6141TIP3   OH239913   4.858   4.246  15.573  0.2849 -0.1716  0.3762
 6141TIP3    H139914   4.769   4.280  15.566 -0.0197 -0.3687  2.4123
 6141TIP3    H239915   4.874   4.241  15.668  1.6987 -2.1014  0.0988
 6142TIP3   OH239916   4.714   2.870  14.492  0.0655  0.0422 -0.1725
 6142TIP3    H139917   4.716   2.812  14.567 -0.4629  0.2100 -0.0264
 6142TIP3    H239918   4.803   2.866  14.456  0.1555 -0.4935  0.1060
 6143TIP3   OH239919   4.766   6.733   2.473  0.0465 -0.2216 -0.3687
 6143TIP3    H139920   4.748   6.826   2.491 -1.7300 -0.5663 -0.2120
 6143TIP3    H239921   4.839   6.735   2.411 -2.1035  1.4516 -3.0825
 6144TIP3   OH239922   2.273   5.187  13.264 -0.0496  0.0654  0.5755
 6144TIP3    H139923   2.272   5.135  13.344  0.5168 -0.4098  0.2786
 6144TIP3    H239924   2.244   5.127  13.195  0.2551  0.2468  0.2895
 6145TIP3   OH239925   1.086   5.266  16.884 -0.5931 -0.3636 -0.5761
 6145TIP3    H139926   1.031   5.272  16.962  0.7360  0.4663  0.3510
 6145TIP3    H239927   1.053   5.191  16.836 -2.1197 -0.2538  0.2549
 6146TIP3   OH239928   3.221   5.920   5.923  0.0196 -0.1543  0.0931
 6146TIP3    H139929   3.235   5.832   5.958  0.2158 -0.4202 -0.6437
 6146TIP3    H239930   3.248   5.914   5.832 -0.3667  0.5689 -0.0722
 6147TIP3   OH239931   1.266   3.350   4.745  0.3099  0.1834  0.2280
 6147TIP3    H139932   1.324   3.339   4.820  1.0937  0.1911 -0.3568
 6147TIP3    H239933   1.287   3.277   4.688 -0.5821 -0.0602  0.2045
 6148TIP3   OH239934   4.040   4.650   3.986 -0.0653 -0.4232  0.4120
 6148TIP3    H139935   4.067   4.597   3.911 -0.1203  0.3975 -0.2063
 6148TIP3    H239936   4.084   4.610   4.061 -0.2830 -1.4702  0.0007
 6149TIP3   OH239937   3.300   5.335   4.849  0.0883  0.6356  0.6774
 6149TIP3    H139938   3.336   5.265   4.795 -0.2482  0.8710  0.1314
 6149TIP3    H239939   3.373   5.365   4.903  1.3544  2.5488 -1.9003
 6150TIP3   OH239940   0.754   3.422   2.827  0.5600  0.1587 -0.4901
 6150TIP3    H139941   0.682   3.480   2.853  0.5654  0.3449 -0.8832
 6150TIP3    H239942   0.802   3.472   2.761 -0.5675 -1.0331 -2.2893
 6151TIP3   OH239943   1.300   1.826   2.270 -0.0920  0.2397  0.1198
 6151TIP3    H139944   1.247   1.750   2.295  0.5108 -0.7004 -1.3330
 6151TIP3    H239945   1.363   1.835   2.341 -0.2489 -0.5578  0.3750
 6152TIP3   OH239946   1.251   1.822  15.329  0.3876  0.1711 -0.8659
 6152TIP3    H139947   1.180   1.760  15.316 -0.5043  1.0438 -0.3490
 6152TIP3    H239948   1.314   1.776  15.383  0.5660 -0.8617 -1.9216
 6153TIP3   OH239949   4.195   4.521   0.360  0.0599  0.2118  0.1096
 6153TIP3    H139950   4.197   4.455   0.429  0.5868  0.1531  0.0413
 6153TIP3    H239951   4.220   4.475   0.280 -0.4619  0.2987 -0.1111
 6154TIP3   OH239952   5.549   0.573   1.558  0.1024  0.0009  0.1967
 6154TIP3    H139953   5.588   0.509   1.499  0.8649  0.2648  0.3987
 6154TIP3    H239954   5.622   0.605   1.611 -0.3977  0.4843  0.6156
 6155TIP3   OH239955   2.121   6.283   4.516  0.8885  0.4108 -0.7564
 6155TIP3    H139956   2.180   6.212   4.491  1.9758  1.8094 -2.4534
 6155TIP3    H239957   2.118   6.340   4.438 -1.4666  1.2289 -0.1588
 6156TIP3   OH239958   1.729   5.401  12.807 -0.1913  1.0809 -0.1138
 6156TIP3    H139959   1.708   5.355  12.726 -0.3567 -0.3653  0.7198
 6156TIP3    H239960   1.665   5.369  12.870  1.3702  0.3930  1.1795
 6157TIP3   OH239961   4.924   3.245   2.830  0.7407 -0.0837  0.1769
 6157TIP3    H139962   4.844   3.196   2.848 -0.4357  1.7473  0.1360
 6157TIP3    H239963   4.935   3.302   2.906  1.0113  0.9626 -0.6343
 6158TIP3   OH239964   3.240   2.731  15.546  0.8097  0.4428  0.3768
 6158TIP3    H139965   3.146   2.727  15.564  0.8389 -1.9403  0.3103
 6158TIP3    H239966   3.278   2.664  15.603  2.4846  1.3772  0.4131
 6159TIP3   OH239967   0.917   3.292   6.180  0.3050  0.5844 -0.0268
 6159TIP3    H139968   0.831   3.255   6.202  0.3570  0.5342  0.0922
 6159TIP3    H239969   0.897   3.370   6.128  0.1234  1.6218  1.5338
 6160TIP3   OH239970   3.243   1.096  16.516 -0.3242 -0.2134 -0.1546
 6160TIP3    H139971   3.316   1.086  16.455 -0.0966 -0.2042  0.1163
 6160TIP3    H239972   3.236   1.191  16.529  0.5031 -0.2876  0.8908
 6161TIP3   OH239973   5.038   0.435   0.528  0.2829 -0.0698  0.3271
 6161TIP3    H139974   5.035   0.358   0.585 -2.1768 -0.4772 -0.2260
 6161TIP3    H239975   4.955   0.479   0.543  0.4606  0.9415 -1.4273
 6162TIP3   OH239976   6.777   0.787   3.540  0.7048 -0.3634  0.2335
 6162TIP3    H139977   6.739   0.872   3.521 -1.7359 -1.4462 -0.1247
 6162TIP3    H239978   6.863   0.807   3.580 -1.0059  2.3669  3.0171
 6163TIP3   OH239979   0.452   3.269  12.102  0.3682 -0.5845 -0.3519
 6163TIP3    H139980   0.431   3.216  12.026 -1.1941 -1.0073  0.3327
 6163TIP3    H239981   0.499   3.210  12.161  0.3823 -0.6440 -0.4235
 6164TIP3   OH239982   3.536   4.107  12.496  0.2749 -0.4023  0.1280
 6164TIP3    H139983   3.528   4.067  12.409 -0.1303  1.4413 -0.7388
 6164TIP3    H239984   3.629   4.105  12.515  0.3897 -0.6729 -0.4356
 6165TIP3   OH239985   0.420   0.251  13.461  0.0263  0.1265  0.0662
 6165TIP3    H139986   0.355   0.227  13.527  2.0995 -0.3381  2.0976
 6165TIP3    H239987   0.433   0.345  13.472  0.9455 -0.0860  0.9280
 6166TIP3   OH239988   6.780   4.334  13.031 -0.4278 -0.1267 -0.1020
 6166TIP3    H139989   6.782   4.427  13.008 -0.7153 -0.3593 -1.1145
 6166TIP3    H239990   6.687   4.313  13.038 -0.3577 -0.2471  0.5548
 6167TIP3   OH239991   2.045   1.951  12.395 -0.5933  0.6559  0.8472
 6167TIP3    H139992   2.076   1.866  12.426 -1.6346  0.6886  2.1274
 6167TIP3    H239993   2.103   1.974  12.323 -0.1419 -1.0236  0.6337
 6168TIP3   OH239994   0.421   2.809  12.960  0.5106 -0.0358 -0.0066
 6168TIP3    H139995   0.428   2.889  12.908  1.1739  0.1778  0.4020
 6168TIP3    H239996   0.423   2.839  13.051  1.2585 -0.5479  0.1502
 6169TIP3   OH239997   2.723   6.401  14.063 -0.0690 -0.0616 -0.4055
 6169TIP3    H139998   2.739   6.494  14.083  0.6651 -0.0041 -1.1925
 6169TIP3    H239999   2.804   6.357  14.086  0.4083 -0.1556 -2.1088
 6170TIP3   OH240000   2.872   5.631   4.474  0.1466 -0.2358 -0.0306
 6170TIP3    H140001   2.853   5.540   4.450  0.6915 -0.5020  0.5041
 6170TIP3    H240002   2.850   5.636   4.567 -1.0955  0.5353 -0.3345
 6171TIP3   OH240003   3.056   0.299   6.334 -0.3680  0.3040  0.2852
 6171TIP3    H140004   3.052   0.310   6.429  0.0982  3.5336  0.0476
 6171TIP3    H240005   2.987   0.356   6.300  0.3562  0.2548 -1.3647
 6172TIP3   OH240006   2.962   4.583   4.512 -0.0642  0.1523 -0.0992
 6172TIP3    H140007   2.900   4.529   4.562  1.3579 -0.9598  0.5313
 6172TIP3    H240008   2.994   4.647   4.575  0.7829 -0.4436  0.0876
 6173TIP3   OH240009   5.733   6.262   5.516  0.7876 -0.5356  0.0969
 6173TIP3    H140010   5.655   6.255   5.570  0.7961 -0.4547  0.1207
 6173TIP3    H240011   5.734   6.182   5.463 -0.9334  0.7570 -2.0573
 6174TIP3   OH240012   2.217   1.997  11.649  0.3982 -0.0610  0.5059
 6174TIP3    H140013   2.310   2.015  11.659  0.1917  0.9626  0.6405
 6174TIP3    H240014   2.193   2.039  11.566 -0.2371  0.9138  1.1685
 6175TIP3   OH240015   5.207   5.764   0.111 -0.0395  0.2154 -0.0040
 6175TIP3    H140016   5.159   5.693   0.152 -1.2382  0.0682 -1.5778
 6175TIP3    H240017   5.189   5.840   0.165 -0.2069 -0.3070  0.6798
 6176TIP3   OH240018   5.342   6.727  15.542 -0.6098 -0.2525 -0.3538
 6176TIP3    H140019   5.399   6.797  15.573 -0.7197  0.4567 -1.6829
 6176TIP3    H240020   5.347   6.660  15.610  1.4375 -0.0133 -0.2072
 6177TIP3   OH240021   5.179   0.390   3.964  0.3782 -0.7387  0.2232
 6177TIP3    H140022   5.129   0.435   3.897 -2.9569 -0.3765  2.7081
 6177TIP3    H240023   5.175   0.297   3.941  0.1592 -0.5262 -0.5931
 6178TIP3   OH240024   0.814   1.973  15.383  0.1954  0.1430 -0.0657
 6178TIP3    H140025   0.796   2.066  15.372  1.8718  0.6104  0.8694
 6178TIP3    H240026   0.813   1.958  15.477 -2.4249 -1.3444 -0.2248
 6179TIP3   OH240027   5.526   6.148  14.528  0.0149 -0.0108  0.0168
 6179TIP3    H140028   5.538   6.133  14.622  1.4175  1.4057  0.1153
 6179TIP3    H240029   5.504   6.241  14.521  3.3698  0.8384 -1.2029
 6180TIP3   OH240030   6.379   2.009  12.180 -0.3779  0.1665 -0.1277
 6180TIP3    H140031   6.373   2.055  12.263 -0.0462  1.5321 -0.8343
 6180TIP3    H240032   6.462   2.039  12.142 -0.5957 -0.3218 -1.0199
 6181TIP3   OH240033   1.288   5.515  13.424 -0.6991  0.3927 -1.0916
 6181TIP3    H140034   1.304   5.449  13.492  0.3812  2.4476  0.7914
 6181TIP3    H240035   1.348   5.492  13.353 -0.9412 -1.0972 -0.8481
 6182TIP3   OH240036   3.092   3.589   5.232 -0.1614 -0.0734  0.0375
 6182TIP3    H140037   3.043   3.635   5.299 -0.7690 -0.0273 -0.4360
 6182TIP3    H240038   3.026   3.545   5.178  0.3984 -1.4749  0.4533
 6183TIP3   OH240039   2.773   1.375   2.201 -0.3622  0.4737  0.1065
 6183TIP3    H140040   2.687   1.340   2.180  0.0562  0.2966 -1.3577
 6183TIP3    H240041   2.819   1.303   2.245 -0.8606  0.4915  0.6699
 6184TIP3   OH240042   0.489   5.920  12.139 -0.3225 -0.0396  0.0259
 6184TIP3    H140043   0.507   5.983  12.070 -0.4654  0.2555  0.2589
 6184TIP3    H240044   0.453   5.972  12.212  1.5977 -0.0576  1.0467
 6185TIP3   OH240045   3.473   1.088   6.443 -0.4533  0.2316 -0.6102
 6185TIP3    H140046   3.543   1.030   6.471 -0.6778 -0.0232 -0.5732
 6185TIP3    H240047   3.426   1.111   6.523  0.3118  1.3698 -0.4690
 6186TIP3   OH240048   4.233   0.681  13.942  0.2992  0.1182 -0.1689
 6186TIP3    H140049   4.143   0.665  13.915 -0.0376 -0.3082  1.1421
 6186TIP3    H240050   4.274   0.594  13.942 -0.0328 -0.0721  1.7429
 6187TIP3   OH240051   6.373   3.865  14.415  0.2152  0.7748 -0.0489
 6187TIP3    H140052   6.393   3.909  14.333  0.0291  1.7136  0.3987
 6187TIP3    H240053   6.277   3.868  14.421 -0.0288 -1.8317 -1.1559
 6188TIP3   OH240054   1.824   3.501   0.106 -0.1385 -0.1042 -0.6904
 6188TIP3    H140055   1.764   3.573   0.088 -2.3254 -2.0213 -1.6654
 6188TIP3    H240056   1.910   3.534   0.080 -0.3875  3.2232  1.9889
 6189TIP3   OH240057   3.345   3.402  12.939  0.7545  0.1114 -0.4270
 6189TIP3    H140058   3.362   3.437  12.851  2.2681  1.8723  0.5171
 6189TIP3    H240059   3.250   3.410  12.949  0.6736  0.7865 -1.5539
 6190TIP3   OH240060   2.560   5.480   4.166  0.0886 -0.2155 -0.2720
 6190TIP3    H140061   2.587   5.392   4.193  1.5209  0.3715  0.3104
 6190TIP3    H240062   2.500   5.465   4.094 -2.6185 -1.8176  2.1131
 6191TIP3   OH240063   4.446   5.398   4.263 -0.3112 -0.2113  0.1585
 6191TIP3    H140064   4.520   5.362   4.312  0.6705  0.3704 -0.8521
 6191TIP3    H240065   4.440   5.343   4.185 -1.3995 -0.6782  0.5491
 6192TIP3   OH240066   2.799   0.503  16.259 -0.3250  1.4156  0.0062
 6192TIP3    H140067   2.893   0.510  16.240 -0.0235  4.1699  2.0243
 6192TIP3    H240068   2.757   0.517  16.175  0.9847 -0.8788 -1.1545
 6193TIP3   OH240069   0.664   0.564  11.194  0.2177 -0.0918 -0.1649
 6193TIP3    H140070   0.736   0.515  11.155 -0.4472 -1.8404  0.7011
 6193TIP3    H240071   0.601   0.497  11.222 -1.1543  1.3099  0.2631
 6194TIP3   OH240072   1.177   4.215   4.036  0.2741  0.1386 -0.4469
 6194TIP3    H140073   1.255   4.212   3.981  1.2598  3.4765  0.5555
 6194TIP3    H240074   1.131   4.294   4.007 -0.4333  0.6354  1.8682
 6195TIP3   OH240075   6.077   0.376   0.758  0.6671  0.1268  0.0523
 6195TIP3    H140076   6.053   0.457   0.803  2.2639  1.5279 -1.4798
 6195TIP3    H240077   6.003   0.358   0.700 -0.3276 -0.3517  1.4232
 6196TIP3   OH240078   0.075   6.552   3.319  0.4228  0.5218  0.2479
 6196TIP3    H140079   0.050   6.574   3.408 -1.6473 -1.2469  0.1959
 6196TIP3    H240080   0.092   6.636   3.277 -0.4559  1.5084  1.7743
 6197TIP3   OH240081   1.389   4.600   4.100  0.1932 -0.3002 -0.2999
 6197TIP3    H140082   1.479   4.576   4.121  0.0684 -0.4704  0.0499
 6197TIP3    H240083   1.395   4.690   4.067  0.5258 -0.4166 -0.5526
 6198TIP3   OH240084   0.704   1.060   5.799  0.1020 -0.3076  0.0816
 6198TIP3    H140085   0.669   1.089   5.715 -1.6248  0.6210  1.0572
 6198TIP3    H240086   0.737   1.140   5.840 -0.1993 -0.5397  0.7880
 6199TIP3   OH240087   0.779   5.551   6.127 -0.3395 -0.0650 -0.5024
 6199TIP3    H140088   0.739   5.545   6.040 -0.9920  3.0900 -0.5289
 6199TIP3    H240089   0.708   5.525   6.187 -1.5030  2.3514 -0.7273
 6200TIP3   OH240090   4.991   4.604  14.554  0.3191 -0.1428 -0.9499
 6200TIP3    H140091   4.918   4.550  14.583  0.5498  0.3481  0.6600
 6200TIP3    H240092   4.951   4.687  14.529  0.4008  0.8194  1.7382
 6201TIP3   OH240093   6.807   0.006  15.007 -0.1536  0.2044 -0.1997
 6201TIP3    H140094   6.759  -0.027  14.931 -0.6492 -0.6750  0.4838
 6201TIP3    H240095   6.740   0.045  15.063 -0.0528 -0.8278  0.6514
 6202TIP3   OH240096   6.234   4.113  11.350  0.6561  0.1607  0.4130
 6202TIP3    H140097   6.273   4.092  11.266  0.3967 -0.3730  0.4158
 6202TIP3    H240098   6.184   4.193  11.335 -1.0202 -0.9904 -0.4703
 6203TIP3   OH240099   4.965   6.213  15.133 -0.6874 -0.3447  0.9634
 6203TIP3    H140100   4.910   6.135  15.135 -0.6348 -0.3731  1.5449
 6203TIP3    H240101   4.947   6.258  15.216  0.4007 -0.5313  1.3296
 6204TIP3   OH240102   6.087   3.629  14.812 -0.1567  0.0721  0.2470
 6204TIP3    H140103   6.044   3.713  14.797  1.2756  0.7280 -0.4081
 6204TIP3    H240104   6.168   3.635  14.761  1.6494 -0.3254  2.9076
 6205TIP3   OH240105   0.986   0.680  13.661  0.1125  0.2694 -0.0647
 6205TIP3    H140106   0.960   0.650  13.574  2.0089 -0.4127 -0.4358
 6205TIP3    H240107   1.028   0.764  13.646  0.8030 -0.0373  0.1351
 6206TIP3   OH240108   3.959   6.776   2.296  0.4960  0.0860 -0.4635
 6206TIP3    H140109   4.006   6.822   2.226  2.3517  0.5472  0.9899
 6206TIP3    H240110   4.029   6.739   2.350 -0.7747  1.3203  2.1762
 6207TIP3   OH240111   6.520   2.201  14.724  0.0945  0.5799  0.4977
 6207TIP3    H140112   6.563   2.251  14.793  0.4508 -0.4401  1.0344
 6207TIP3    H240113   6.448   2.256  14.695  1.3969  2.0831 -0.0155
 6208TIP3   OH240114   6.218   3.762  16.045 -0.0661  0.5860  0.0868
 6208TIP3    H140115   6.220   3.680  15.995  0.6912  0.1486  0.8192
 6208TIP3    H240116   6.146   3.812  16.005 -1.4786 -0.9933  0.5363
 6209TIP3   OH240117   2.436   2.800  12.750 -0.1376 -0.1262 -0.5027
 6209TIP3    H140118   2.356   2.803  12.698 -1.2733 -0.2846  1.1811
 6209TIP3    H240119   2.414   2.845  12.831  0.7400 -2.1701  0.9593
 6210TIP3   OH240120   3.179   5.713   2.388  0.9104 -0.1690 -0.7410
 6210TIP3    H140121   3.187   5.618   2.383  1.1861 -0.1271 -1.1202
 6210TIP3    H240122   3.096   5.728   2.434  2.4945 -0.5969  2.5111
 6211TIP3   OH240123   0.259   5.630  14.712  0.5539  0.4198  0.1076
 6211TIP3    H140124   0.285   5.604  14.624 -0.7497  0.9739 -0.4655
 6211TIP3    H240125   0.163   5.634  14.709  0.4296 -0.3948  1.7976
 6212TIP3   OH240126   4.537   3.693  13.607 -0.0829 -0.1093 -0.3026
 6212TIP3    H140127   4.490   3.623  13.562  2.4249 -1.3799 -1.1334
 6212TIP3    H240128   4.560   3.656  13.692 -1.8128  1.0499  0.7243
 6213TIP3   OH240129   4.490   2.702  13.503  0.6765 -0.2404  0.1429
 6213TIP3    H140130   4.569   2.669  13.546  0.0452  0.4489  1.9210
 6213TIP3    H240131   4.458   2.771  13.561 -0.8971 -0.0762 -0.8582
 6214TIP3   OH240132   1.878   6.825   3.597 -0.5532 -0.2394 -0.2167
 6214TIP3    H140133   1.960   6.844   3.642 -0.5877  0.7495 -0.5552
 6214TIP3    H240134   1.820   6.791   3.665 -0.3152  0.3940  0.3150
 6215TIP3   OH240135   1.375   5.571  10.848  0.3937  0.2410 -0.4228
 6215TIP3    H140136   1.369   5.493  10.793  0.2650  0.2375 -0.4052
 6215TIP3    H240137   1.295   5.620  10.828  0.4209  0.3135 -0.3518
 6216TIP3   OH240138   4.002   5.894   1.300 -0.3353  0.2323 -0.8473
 6216TIP3    H140139   3.980   5.829   1.367  1.9332  0.4258  0.1681
 6216TIP3    H240140   3.921   5.945   1.289 -0.5835  0.7174  2.3627
 6217TIP3   OH240141   0.049   3.106  14.911 -0.7984 -0.2868 -0.7843
 6217TIP3    H140142   0.108   3.145  14.976  0.0098  0.2959 -1.8310
 6217TIP3    H240143   0.010   3.031  14.957 -0.7598  0.4859  0.5784
 6218TIP3   OH240144   0.638   3.782  14.239  0.1997  0.0378 -0.1593
 6218TIP3    H140145   0.565   3.787  14.301 -0.4593 -0.3936 -0.8903
 6218TIP3    H240146   0.598   3.754  14.157  0.9568  1.2941 -0.9822
 6219TIP3   OH240147   1.142   4.387   3.262 -0.0857 -0.6190  0.2932
 6219TIP3    H140148   1.113   4.298   3.277 -0.0670 -0.6065  0.4048
 6219TIP3    H240149   1.075   4.442   3.304 -1.7325 -0.4611 -2.2869
 6220TIP3   OH240150   4.037   2.295  12.113  0.1827  0.5210 -0.2794
 6220TIP3    H140151   4.102   2.276  12.181 -0.0268  1.9690  0.3715
 6220TIP3    H240152   4.012   2.386  12.129  0.1344  0.9176 -2.3276
 6221TIP3   OH240153   1.733   6.795   1.531 -0.0369  0.3383 -0.1311
 6221TIP3    H140154   1.764   6.882   1.554 -0.8923  0.5255  0.3873
 6221TIP3    H240155   1.812   6.742   1.523  0.4110  0.4319  2.5496
 6222TIP3   OH240156   2.560   1.344  14.653  0.5084  0.2628 -0.2443
 6222TIP3    H140157   2.654   1.328  14.662  0.4641 -0.3640 -0.8337
 6222TIP3    H240158   2.554   1.438  14.633  0.9957  0.3418 -0.0360
 6223TIP3   OH240159   6.194   4.281   5.307  0.7308  0.0044 -0.5523
 6223TIP3    H140160   6.272   4.295   5.360  0.7636 -0.0551 -0.5840
 6223TIP3    H240161   6.170   4.368   5.275 -0.3269  0.3200  0.9873
 6224TIP3   OH240162   2.274   0.060  12.175 -0.1219  0.2213  0.3366
 6224TIP3    H140163   2.283   0.125  12.106  2.3019 -0.3816 -0.0117
 6224TIP3    H240164   2.324   0.096  12.249  1.5259 -1.3199  0.0288
 6225TIP3   OH240165   6.164   2.920   5.350  0.4210  0.5600  0.1789
 6225TIP3    H140166   6.146   2.956   5.264 -1.0686  1.1559  0.7123
 6225TIP3    H240167   6.207   2.836   5.333 -1.0867  0.0118 -1.1616
 6226TIP3   OH240168   4.852   6.020  16.586 -0.1815 -0.1940  0.4034
 6226TIP3    H140169   4.842   6.036  16.493 -0.5874  0.6146  0.5820
 6226TIP3    H240170   4.802   5.940  16.602 -1.0123  0.2556  0.1165
 6227TIP3   OH240171   3.715   1.958   5.673 -0.5106  0.2814  0.1018
 6227TIP3    H140172   3.716   1.897   5.600  0.7010 -0.7631  0.9409
 6227TIP3    H240173   3.623   1.968   5.695 -0.8387  0.1157 -1.1585
 6228TIP3   OH240174   5.725   5.670   0.142 -0.2523 -0.4395  0.2654
 6228TIP3    H140175   5.641   5.627   0.129 -0.1077 -0.6788  0.1021
 6228TIP3    H240176   5.749   5.651   0.233  0.6474 -2.2391 -0.2941
 6229TIP3   OH240177   5.821   0.351   5.978 -0.2294 -0.1859 -0.0655
 6229TIP3    H140178   5.732   0.354   5.944 -0.2177 -0.6980 -0.1415
 6229TIP3    H240179   5.874   0.322   5.904  0.3105  2.0931 -0.6378
 6230TIP3   OH240180   6.345   6.762   5.600 -0.1652  0.1266  0.2197
 6230TIP3    H140181   6.415   6.699   5.620  0.6144  1.4653  1.9283
 6230TIP3    H240182   6.269   6.730   5.650  0.3439  0.7128  1.4109
 6231TIP3   OH240183   1.916   0.716  13.299  0.1272  0.1646  0.1791
 6231TIP3    H140184   1.972   0.666  13.239 -0.1406 -0.7024  0.6184
 6231TIP3    H240185   1.970   0.726  13.378 -0.4232 -0.9560  0.7245
 6232TIP3   OH240186   2.182   1.105  13.402  0.4496 -0.0584  0.1886
 6232TIP3    H140187   2.164   1.015  13.375  0.8462 -0.3983  1.0453
 6232TIP3    H240188   2.208   1.099  13.493 -1.1132  1.0993  0.7719
 6233TIP3   OH240189   2.159   2.343  13.513 -0.7065  0.0099  0.2246
 6233TIP3    H140190   2.094   2.319  13.580 -2.1022  1.0704 -0.6725
 6233TIP3    H240191   2.132   2.431  13.485  0.3532 -0.0655 -1.1207
 6234TIP3   OH240192   6.500   6.476  16.601 -0.0026 -0.5515 -0.2804
 6234TIP3    H140193   6.423   6.478  16.658  0.5631 -0.4347  0.4865
 6234TIP3    H240194   6.545   6.558  16.618  0.2968 -0.6190 -0.7292
 6235TIP3   OH240195   0.916   0.422  15.628  0.2221 -0.1129  0.0834
 6235TIP3    H140196   0.823   0.420  15.648 -0.0707 -1.2215 -1.2184
 6235TIP3    H240197   0.952   0.345  15.672  0.1536 -0.7561 -0.9473
 6236TIP3   OH240198   5.252   5.960   2.048  0.5810 -1.0682 -0.5957
 6236TIP3    H140199   5.165   5.976   2.084  1.7387  0.9139  1.5914
 6236TIP3    H240200   5.244   5.979   1.954 -0.7943  1.6202  0.0005
 6237TIP3   OH240201   0.998   2.250  13.527  0.0954 -0.4165 -0.1484
 6237TIP3    H140202   1.070   2.260  13.589  0.0247 -2.1986  0.2498
 6237TIP3    H240203   0.919   2.256  13.580 -0.0088 -0.4811 -0.2965
 6238TIP3   OH240204   5.366   5.654  11.843 -0.3458 -0.4281 -0.9614
 6238TIP3    H140205   5.378   5.725  11.906 -0.7034 -0.0126 -1.3536
 6238TIP3    H240206   5.383   5.694  11.758 -1.7939 -0.4777 -1.3030
 6239TIP3   OH240207   4.241   5.991   5.832  0.0487  0.1587 -0.8439
 6239TIP3    H140208   4.302   6.045   5.783 -2.5745  2.0520 -2.3160
 6239TIP3    H240209   4.223   6.042   5.912  2.0182 -1.4961  0.7700
 6240TIP3   OH240210   0.247   2.157   2.625 -0.2598  0.0727  0.1051
 6240TIP3    H140211   0.279   2.239   2.664  0.1331  0.0313 -0.1314
 6240TIP3    H240212   0.234   2.099   2.700  0.7051 -0.0783  0.1664
 6241TIP3   OH240213   4.075   3.329   3.172 -0.0552 -0.0752  0.4050
 6241TIP3    H140214   4.151   3.355   3.120 -1.4726  0.3232 -1.6278
 6241TIP3    H240215   4.042   3.411   3.209 -0.4216  0.0227 -0.1132
 6242TIP3   OH240216   2.355   2.711  14.896  0.0152 -0.6574  0.3143
 6242TIP3    H140217   2.278   2.680  14.848  0.8025 -1.1220 -0.6910
 6242TIP3    H240218   2.327   2.714  14.988 -0.6201 -2.7328  0.2371
 6243TIP3   OH240219   4.221   1.531   3.596 -0.3532  0.2691 -0.3243
 6243TIP3    H140220   4.154   1.535   3.528  0.0085 -0.1168 -0.7087
 6243TIP3    H240221   4.179   1.567   3.674 -1.2660 -0.7044 -0.3481
 6244TIP3   OH240222   0.782   2.825  17.007  0.2033  0.5172 -0.1907
 6244TIP3    H140223   0.686   2.835  17.010  0.2328  0.6673  0.4536
 6244TIP3    H240224   0.812   2.858  17.092  0.7450 -0.4759  0.0111
 6245TIP3   OH240225   1.443   4.354   1.814 -0.3255 -0.2618 -0.3095
 6245TIP3    H140226   1.373   4.295   1.841  0.5068 -1.1879 -0.1057
 6245TIP3    H240227   1.441   4.351   1.718 -2.1204  1.6402 -0.4161
 6246TIP3   OH240228   6.638   0.868   2.907 -0.9276 -0.4763 -0.4609
 6246TIP3    H140229   6.584   0.947   2.913  0.7327  0.8313 -1.7064
 6246TIP3    H240230   6.615   0.818   2.985 -1.3526  1.7031  0.9238
 6247TIP3   OH240231   4.412   1.578  12.502 -0.4348  0.0167  0.3291
 6247TIP3    H140232   4.360   1.539  12.431 -0.1071 -0.6851  0.4575
 6247TIP3    H240233   4.369   1.549  12.582  0.2555 -0.7643  0.4436
 6248TIP3   OH240234   4.106   5.070  11.809  0.7264  0.0473  0.3449
 6248TIP3    H140235   4.037   5.008  11.787  1.2356 -0.1125 -0.9094
 6248TIP3    H240236   4.144   5.036  11.890 -0.0571 -0.3659  0.5501
 6249TIP3   OH240237   6.646   4.039  16.329  0.5957 -0.3807  0.2126
 6249TIP3    H140238   6.559   4.012  16.357  0.2447 -0.8462 -1.2548
 6249TIP3    H240239   6.670   3.977  16.260  1.7460  0.2226  0.0391
 6250TIP3   OH240240   6.814   4.025  12.603 -0.4524  0.2027 -0.4147
 6250TIP3    H140241   6.890   4.082  12.597 -0.4201  0.0412 -1.8052
 6250TIP3    H240242   6.814   3.995  12.694  0.0137  1.7239  0.1205
 6251TIP3   OH240243   0.738   2.719   2.205  0.0544 -0.6689  0.3866
 6251TIP3    H140244   0.759   2.801   2.250  0.4283 -0.6780  0.2308
 6251TIP3    H240245   0.766   2.734   2.114 -3.2524  0.4137 -0.6024
 6252TIP3   OH240246   2.903   5.721  16.377  0.3832 -0.2032  0.4420
 6252TIP3    H140247   2.918   5.694  16.467  0.6527  0.8431  0.7261
 6252TIP3    H240248   2.926   5.644  16.324 -0.4895 -1.0753  1.2908
 6253TIP3   OH240249   5.719   6.528  13.622  0.0812  0.4673 -0.4783
 6253TIP3    H140250   5.643   6.573  13.661 -0.0095  0.3798 -0.5549
 6253TIP3    H240251   5.781   6.519  13.695 -1.0734 -1.9452  0.3258
 6254TIP3   OH240252   0.639   5.599   5.896 -0.1811  0.4557 -0.4355
 6254TIP3    H140253   0.662   5.526   5.839 -1.5909 -0.1087 -0.3082
 6254TIP3    H240254   0.690   5.672   5.863  0.0286 -0.1919 -1.5852
 6255TIP3   OH240255   1.218   3.369  12.583  0.2623 -0.2001 -0.4040
 6255TIP3    H140256   1.153   3.411  12.527  1.4122  0.0720 -1.5792
 6255TIP3    H240257   1.178   3.369  12.670 -1.4185 -0.2865 -1.1230
 6256TIP3   OH240258   4.613   1.688   1.279 -0.0508  0.2471 -0.3808
 6256TIP3    H140259   4.549   1.616   1.287  0.0682  0.2151  0.3560
 6256TIP3    H240260   4.676   1.672   1.349  0.6331  0.4236 -0.9453
 6257TIP3   OH240261   4.737   3.246  15.672 -0.5405  0.7265  0.4611
 6257TIP3    H140262   4.810   3.184  15.675 -0.6263  0.6126  0.2303
 6257TIP3    H240263   4.738   3.280  15.582 -0.9288  0.5302  0.3794
 6258TIP3   OH240264   0.560   6.512  16.339  0.9294 -0.1371 -0.0004
 6258TIP3    H140265   0.614   6.553  16.271 -0.1682 -1.2956 -1.6399
 6258TIP3    H240266   0.492   6.577  16.358  1.7714  0.5632  0.7029
 6259TIP3   OH240267   5.533   5.932   2.007 -0.0355  0.0289  0.3299
 6259TIP3    H140268   5.537   6.003   1.943  1.5403  1.2518  1.7109
 6259TIP3    H240269   5.442   5.933   2.038 -1.2545 -1.5009 -2.7538
 6260TIP3   OH240270   1.859   2.341   1.040  0.5168  0.0152  0.2500
 6260TIP3    H140271   1.885   2.391   1.117  1.9568 -1.8154  1.0173
 6260TIP3    H240272   1.788   2.285   1.070 -0.7419  1.1502 -0.4779
 6261TIP3   OH240273   6.448   4.550  16.807 -0.2002  0.4266 -0.2067
 6261TIP3    H140274   6.386   4.483  16.778 -0.0259 -0.1661  0.7127
 6261TIP3    H240275   6.519   4.548  16.743  0.6461 -1.5181  0.7028
 6262TIP3   OH240276   6.426   4.443  16.081 -0.4781 -0.8038  0.1727
 6262TIP3    H140277   6.459   4.423  16.168  0.4809 -1.8777 -0.3945
 6262TIP3    H240278   6.375   4.365  16.056 -2.4332  0.2939  0.5123
 6263TIP3   OH240279   2.117   3.666  13.659  0.2699  0.2945  0.1804
 6263TIP3    H140280   2.022   3.682  13.657  0.3211  0.5778 -0.7804
 6263TIP3    H240281   2.152   3.738  13.710  0.1010  1.0127 -0.7000
 6264TIP3   OH240282   2.388   0.871  12.506 -0.0078  0.3420 -0.3092
 6264TIP3    H140283   2.390   0.857  12.600 -1.6483 -1.8477 -0.5144
 6264TIP3    H240284   2.320   0.937  12.493 -0.7394 -0.3341 -0.0061
 6265TIP3   OH240285   2.098   2.958  14.396 -0.0562  0.3671  0.1652
 6265TIP3    H140286   2.101   2.975  14.490 -1.7822  0.0378  0.3107
 6265TIP3    H240287   2.012   2.990  14.368  0.9252  1.6479 -1.5766
 6266TIP3   OH240288   6.577   6.368  11.935 -0.7133  0.0414 -0.2200
 6266TIP3    H140289   6.609   6.360  12.025  1.1498  0.6952 -0.7725
 6266TIP3    H240290   6.563   6.462  11.924 -2.8750 -0.2063 -0.0339
 6267TIP3   OH240291   5.859   6.544  14.199 -0.0830  0.4721  0.4859
 6267TIP3    H140292   5.904   6.598  14.264 -0.9531  1.7945  0.0241
 6267TIP3    H240293   5.899   6.567  14.116 -0.0313 -0.0885  0.3475
 6268TIP3   OH240294   5.368   4.109   0.663  0.1001 -0.9201  0.6113
 6268TIP3    H140295   5.324   4.027   0.639  0.2740 -1.0568  0.7514
 6268TIP3    H240296   5.411   4.137   0.583  0.4035 -1.1995  0.6713
 6269TIP3   OH240297   2.398   4.466  11.015  0.1624 -0.6989 -0.2683
 6269TIP3    H140298   2.423   4.535  10.953  0.8217 -0.7508 -0.0704
 6269TIP3    H240299   2.308   4.488  11.040  0.8687  0.9757  0.9682
 6270TIP3   OH240300   2.124   2.248  16.943  0.3226  0.4913  0.5416
 6270TIP3    H140301   2.112   2.208  16.857  0.4619  1.5458  0.0113
 6270TIP3    H240302   2.219   2.255  16.953  0.3048  0.4376  0.7485
 6271TIP3   OH240303   4.347   2.343   0.738  0.4337  0.2268 -0.0442
 6271TIP3    H140304   4.320   2.269   0.793  2.5405  0.2879  1.2196
 6271TIP3    H240305   4.305   2.419   0.777 -0.6654 -0.1295 -0.5186
 6272TIP3   OH240306   6.071   3.051   2.111  0.4519  0.0366 -0.3692
 6272TIP3    H140307   5.982   3.017   2.104 -0.3802  2.0210 -0.0421
 6272TIP3    H240308   6.081   3.107   2.034  0.7912  1.1412  0.4581
 6273TIP3   OH240309   2.144   0.525   0.368 -0.0605 -0.0459  0.5646
 6273TIP3    H140310   2.202   0.571   0.308 -0.2874 -0.4045  0.0629
 6273TIP3    H240311   2.069   0.583   0.379 -0.5498 -0.4858 -0.4155
 6274TIP3   OH240312   4.134   0.159  14.157 -0.0186  0.1934 -0.0115
 6274TIP3    H140313   4.116   0.118  14.242  0.4566  1.0646  0.5154
 6274TIP3    H240314   4.226   0.183  14.160 -0.2954  1.3691 -0.2721
 6275TIP3   OH240315   4.168   4.463   2.180  0.5205 -0.0229  0.3411
 6275TIP3    H140316   4.179   4.391   2.119 -0.0484 -0.9518  1.2943
 6275TIP3    H240317   4.248   4.462   2.233  1.2343  1.0934 -0.6753
 6276TIP3   OH240318   6.843   2.488  12.586  0.0844 -0.4324  0.2148
 6276TIP3    H140319   6.914   2.425  12.580 -0.5030 -1.3459  2.0747
 6276TIP3    H240320   6.772   2.441  12.630 -1.3614  0.7266 -0.7488
 6277TIP3   OH240321   3.512   3.454  10.892  0.4221 -0.6224  0.1094
 6277TIP3    H140322   3.579   3.510  10.853 -1.0130  1.5207  0.5505
 6277TIP3    H240323   3.429   3.497  10.871 -0.6226 -1.4497  2.2346
 6278TIP3   OH240324   4.927   4.358  11.087 -0.0290 -0.0971  0.3685
 6278TIP3    H140325   4.930   4.263  11.097  0.4458 -0.3587 -1.7132
 6278TIP3    H240326   4.849   4.385  11.136 -1.4197 -1.8600 -0.7396
 6279TIP3   OH240327   1.131   0.747  14.982  0.1166 -0.1685  0.0591
 6279TIP3    H140328   1.107   0.714  15.068  0.4488 -0.6126 -0.0122
 6279TIP3    H240329   1.096   0.682  14.921 -0.2901  0.2456 -0.1500
 6280TIP3   OH240330   0.143   6.495   1.865  0.1605  0.1520 -0.5798
 6280TIP3    H140331   0.155   6.575   1.813  1.6281  0.3113 -0.0488
 6280TIP3    H240332   0.193   6.511   1.945 -2.0525 -0.0720  0.9436
 6281TIP3   OH240333   1.429   1.415   4.052  0.2066 -0.0162  0.3280
 6281TIP3    H140334   1.399   1.371   4.132  0.0416 -0.2837  0.1204
 6281TIP3    H240335   1.380   1.373   3.982  0.6156 -0.0308  0.0484
 6282TIP3   OH240336   3.359   5.931   1.599 -0.3325  0.0668  0.2996
 6282TIP3    H140337   3.309   5.977   1.531 -0.9458 -2.8382 -1.3778
 6282TIP3    H240338   3.446   5.919   1.561  0.8570  2.4331  2.0041
 6283TIP3   OH240339   2.754   4.625  15.940 -0.3219  0.8442  0.1473
 6283TIP3    H140340   2.727   4.697  15.997 -1.1780  0.0228  0.8306
 6283TIP3    H240341   2.674   4.601  15.892  0.4352  1.6678 -1.6027
 6284TIP3   OH240342   5.687   0.082  15.162  0.4023 -0.1170 -0.6326
 6284TIP3    H140343   5.781   0.091  15.175  0.1138  1.2267  0.8868
 6284TIP3    H240344   5.674   0.088  15.068  1.9382 -1.6261 -0.9794
 6285TIP3   OH240345   0.386   5.919   4.025 -0.2163  0.7324  0.4505
 6285TIP3    H140346   0.389   5.970   3.943 -0.5254  1.0407  0.6285
 6285TIP3    H240347   0.359   5.832   3.998  0.4862  0.6107  0.1175
 6286TIP3   OH240348   3.857   1.010  16.917  0.5959  0.0800  0.2846
 6286TIP3    H140349   3.889   0.956  16.990  0.8213  1.3103  1.1383
 6286TIP3    H240350   3.768   1.036  16.943  0.4085 -0.0469 -0.2130
 6287TIP3   OH240351   0.726   2.015  14.110 -0.3609  0.2157 -0.0679
 6287TIP3    H140352   0.737   2.095  14.059  1.0507 -1.7071 -3.0185
 6287TIP3    H240353   0.812   1.997  14.147 -0.2455 -0.7619 -0.7796
 6288TIP3   OH240354   5.721   2.435   6.106 -0.0683  0.8317 -0.0354
 6288TIP3    H140355   5.712   2.522   6.145 -0.2318  1.2989 -1.0674
 6288TIP3    H240356   5.633   2.397   6.111 -0.4484  1.4821 -1.2429
 6289TIP3   OH240357   5.192   2.941  16.160 -0.0649 -0.1736  0.0688
 6289TIP3    H140358   5.117   2.902  16.115  0.4942 -0.6885 -0.4363
 6289TIP3    H240359   5.204   2.887  16.238 -0.7022  0.3941  0.5736
 6290TIP3   OH240360   3.130   0.962  14.689 -0.0901  0.0194 -0.0102
 6290TIP3    H140361   3.100   0.930  14.604  0.2186 -0.8856  0.2028
 6290TIP3    H240362   3.060   1.019  14.720  0.0311  0.7888 -1.1023
 6291TIP3   OH240363   3.730   6.547  12.071 -0.0958 -0.2664  0.1505
 6291TIP3    H140364   3.667   6.481  12.102  0.4851  0.2991  2.7916
 6291TIP3    H240365   3.815   6.512  12.096  0.3825  0.4999 -0.3854
 6292TIP3   OH240366   4.492   4.890  14.746  0.0559 -0.2641 -0.6982
 6292TIP3    H140367   4.491   4.795  14.753  1.5611 -0.2515  0.3401
 6292TIP3    H240368   4.402   4.917  14.765 -0.6348 -1.5052 -2.0559
 6293TIP3   OH240369   6.488   2.471  14.412 -0.2479  0.1151 -0.6976
 6293TIP3    H140370   6.491   2.523  14.332 -1.3053  0.7589 -0.3485
 6293TIP3    H240371   6.463   2.534  14.480  1.4520 -0.2321  0.3154
 6294TIP3   OH240372   6.772   0.824   1.122 -0.2532  0.3161 -0.3085
 6294TIP3    H140373   6.825   0.833   1.202 -1.2995 -3.3012  0.9970
 6294TIP3    H240374   6.701   0.888   1.133  1.6135  2.5299 -0.2787
 6295TIP3   OH240375   1.212   0.729  16.878  0.1628 -0.0982  0.3984
 6295TIP3    H140376   1.126   0.713  16.841  0.2065  0.0166  0.2454
 6295TIP3    H240377   1.215   0.675  16.957  1.0522 -2.3736 -1.1217
 6296TIP3   OH240378   3.916   5.463  15.021  0.3311 -0.2474  0.5922
 6296TIP3    H140379   3.840   5.511  14.988  0.2922  0.1336  1.2283
 6296TIP3    H240380   3.988   5.525  15.013  0.1671  0.1580  1.9964
 6297TIP3   OH240381   2.533   0.291  15.750  0.6706  0.4884 -0.2731
 6297TIP3    H140382   2.513   0.213  15.699  0.2718  1.3145 -1.4439
 6297TIP3    H240383   2.563   0.355  15.685  1.6304  1.1120  0.7293
 6298TIP3   OH240384   3.024   6.732  11.357  0.1076 -0.0764  0.5889
 6298TIP3    H140385   3.031   6.648  11.402  0.7192 -0.3870 -0.0646
 6298TIP3    H240386   2.943   6.726  11.307  1.2298 -1.1827 -1.2168
 6299TIP3   OH240387   3.382   4.697  11.332  0.1471 -0.0772  0.1808
 6299TIP3    H140388   3.427   4.618  11.361  1.6772  0.8559  0.4786
 6299TIP3    H240389   3.289   4.676  11.338  0.5074 -2.4704 -1.5126
 6300TIP3   OH240390   5.606   2.602   4.978 -0.0693 -0.1580 -0.2947
 6300TIP3    H140391   5.618   2.507   4.965 -2.2306 -0.2649 -2.0879
 6300TIP3    H240392   5.651   2.642   4.903 -0.8275  0.0943 -0.6225
 6301TIP3   OH240393   0.545   3.603   1.827  0.6180  0.0751 -0.0016
 6301TIP3    H140394   0.462   3.576   1.864  1.3015 -0.4248  1.2176
 6301TIP3    H240395   0.541   3.574   1.735 -0.1696 -0.7756  0.2848
 6302TIP3   OH240396   4.864   3.966  16.118  0.3897  0.4286 -0.3781
 6302TIP3    H140397   4.925   3.894  16.103  0.1673  0.3885 -1.1524
 6302TIP3    H240398   4.799   3.956  16.049  0.3550  1.3737 -0.4904
 6303TIP3   OH240399   0.635   6.751   2.659  0.0365 -0.2039 -0.4047
 6303TIP3    H140400   0.626   6.661   2.626 -0.6074 -0.2073 -0.2382
 6303TIP3    H240401   0.635   6.805   2.580 -3.9556 -0.0078 -0.4650
 6304TIP3   OH240402   1.614   1.473   2.969  0.6839 -0.8332  0.0178
 6304TIP3    H140403   1.673   1.439   3.036 -0.4807 -0.7742  1.0962
 6304TIP3    H240404   1.617   1.568   2.980 -0.2213 -0.8684  0.6139
 6305TIP3   OH240405   2.372   6.398  17.050 -0.3632 -0.2840  0.0703
 6305TIP3    H140406   2.321   6.473  17.078 -1.0270 -1.1671  1.3597
 6305TIP3    H240407   2.415   6.425  16.969 -1.1728  1.2037  0.1259
 6306TIP3   OH240408   3.499   2.705   3.589  0.3907  0.2895  0.5512
 6306TIP3    H140409   3.456   2.735   3.509 -1.8343 -0.3936  1.3969
 6306TIP3    H240410   3.591   2.723   3.576  0.6734 -2.7512 -3.5649
 6307TIP3   OH240411   0.949   4.332   0.087 -0.0352  0.2824  0.6164
 6307TIP3    H140412   0.871   4.277   0.095  1.0191 -1.6378 -1.2153
 6307TIP3    H240413   0.958   4.347  -0.007  1.8011  0.3932  0.7695
 6308TIP3   OH240414   5.478   1.948   2.578  0.2932 -0.6881  0.0969
 6308TIP3    H140415   5.530   1.980   2.651 -0.2037  0.5788 -0.0797
 6308TIP3    H240416   5.436   1.868   2.610  1.3188 -1.0062  0.6568
 6309TIP3   OH240417   6.338   4.517   2.584  0.1978 -0.3124  0.5726
 6309TIP3    H140418   6.330   4.512   2.680  0.3321 -0.7160  0.5666
 6309TIP3    H240419   6.324   4.427   2.555 -1.7434  0.0980  0.0645
 6310TIP3   OH240420   4.012   0.949   6.445 -0.0646 -0.2107 -0.0292
 6310TIP3    H140421   4.053   0.871   6.407 -0.4063 -0.6334  0.4463
 6310TIP3    H240422   4.070   1.021   6.420 -0.5089 -0.3987 -1.6957
 6311TIP3   OH240423   6.292   3.327  14.129 -0.3461 -0.2061  0.1923
 6311TIP3    H140424   6.208   3.340  14.085 -0.3044 -1.5665 -0.3306
 6311TIP3    H240425   6.358   3.352  14.064 -0.3070 -1.2549 -0.1813
 6312TIP3   OH240426   3.242   4.641   2.959 -0.3976  0.3729 -0.2616
 6312TIP3    H140427   3.324   4.605   2.993 -1.2345 -0.6910  0.7431
 6312TIP3    H240428   3.188   4.564   2.940 -1.0481  1.0433 -1.2441
 6313TIP3   OH240429   6.021   2.355   4.357 -0.2263 -0.0601  0.2535
 6313TIP3    H140430   5.974   2.279   4.322  0.7584  0.0392 -1.3847
 6313TIP3    H240431   6.071   2.320   4.430 -1.3043 -0.5635  0.7704
 6314TIP3   OH240432   0.517   1.320   2.962  0.0892  0.3496 -0.1981
 6314TIP3    H140433   0.526   1.277   3.047 -0.0488  0.1187 -0.2995
 6314TIP3    H240434   0.450   1.387   2.975  1.6133  1.8267  0.4654
 6315TIP3   OH240435   0.585   2.510  16.961  0.2338  0.0913  0.0576
 6315TIP3    H140436   0.672   2.544  16.981  0.0442  1.7947 -1.7025
 6315TIP3    H240437   0.599   2.444  16.893  0.2066 -0.1197  0.2562
 6316TIP3   OH240438   5.392   5.553   1.144 -0.0441 -0.1758  0.0840
 6316TIP3    H140439   5.365   5.603   1.067  1.1412  1.2137  0.5152
 6316TIP3    H240440   5.327   5.576   1.211 -0.5742 -0.6933 -0.2515
 6317TIP3   OH240441   2.442   2.308   1.733  0.2566 -0.2225  0.3310
 6317TIP3    H140442   2.416   2.238   1.672  0.0255 -2.6213  2.9892
 6317TIP3    H240443   2.519   2.347   1.692 -1.4787  0.2925 -2.8474
 6318TIP3   OH240444   1.751   0.547  14.146 -0.1298  0.0734  0.0720
 6318TIP3    H140445   1.800   0.467  14.126 -0.2042 -0.2818  1.2173
 6318TIP3    H240446   1.697   0.523  14.221 -0.9386  0.9049 -0.2326
 6319TIP3   OH240447   0.994   1.841   5.836  0.0780 -0.5690  0.9922
 6319TIP3    H140448   1.012   1.748   5.839 -1.0209 -0.8087  0.5642
 6319TIP3    H240449   1.046   1.878   5.908  2.4704 -1.1341 -0.3366
 6320TIP3   OH240450   0.569   3.446   0.267  0.3676  0.6534 -0.3116
 6320TIP3    H140451   0.578   3.488   0.352  1.8776  1.8987 -1.0370
 6320TIP3    H240452   0.482   3.472   0.236 -0.5935 -0.5674  1.1878
 6321TIP3   OH240453   4.367   6.759  11.323  0.2834  0.2966 -0.9997
 6321TIP3    H140454   4.423   6.836  11.335  0.3802 -0.0488  1.2724
 6321TIP3    H240455   4.300   6.767  11.391 -0.4868 -0.9564 -1.5744
 6322TIP3   OH240456   1.533   2.652  12.591  0.2614 -0.3996  0.3427
 6322TIP3    H140457   1.608   2.659  12.532  0.7411 -1.6329  0.7771
 6322TIP3    H240458   1.492   2.568  12.568 -0.9041  0.1777  0.2225
 6323TIP3   OH240459   5.996   1.559   0.685 -0.3544  0.0753  0.7328
 6323TIP3    H140460   6.015   1.532   0.775  0.0584  0.2468  0.6988
 6323TIP3    H240461   6.082   1.564   0.643 -0.5845 -0.4795  0.1910
 6324TIP3   OH240462   0.940   1.390   1.987 -0.0918 -0.2422 -0.2051
 6324TIP3    H140463   1.002   1.424   2.053  1.3139 -2.0388 -0.5082
 6324TIP3    H240464   0.960   1.440   1.908 -1.3445  1.4787  0.5115
 6325TIP3   OH240465   1.124   3.737   1.683  0.0418 -0.1653 -0.3231
 6325TIP3    H140466   1.170   3.662   1.722  1.4033  1.0355  0.4754
 6325TIP3    H240467   1.083   3.781   1.757 -0.4631  0.0947 -0.7469
 6326TIP3   OH240468   1.473   5.648  11.463 -0.1161  0.0435 -0.0704
 6326TIP3    H140469   1.462   5.617  11.373  0.0214 -0.9981  0.2624
 6326TIP3    H240470   1.568   5.655  11.475 -0.1484  0.6560 -0.1609
 6327TIP3   OH240471   2.214   3.489  10.941 -0.1169  0.1169 -0.0641
 6327TIP3    H140472   2.213   3.436  11.021 -1.3638 -0.3262 -0.3646
 6327TIP3    H240473   2.194   3.427  10.871 -1.1301  0.8816 -0.4743
 6328TIP3   OH240474   4.829   6.344  14.304  0.4057  0.1112  0.2829
 6328TIP3    H140475   4.766   6.372  14.236  0.8019  1.9151  0.5927
 6328TIP3    H240476   4.831   6.417  14.366  2.2201 -0.2348  0.6967
 6329TIP3   OH240477   5.275   4.441  15.990 -0.0861  0.3018 -0.9119
 6329TIP3    H140478   5.238   4.393  15.916 -0.4609 -0.4789 -0.2385
 6329TIP3    H240479   5.199   4.480  16.034 -0.0011 -0.1900 -0.2981
 6330TIP3   OH240480   5.386   2.573   2.719 -0.2957  0.3618  0.4112
 6330TIP3    H140481   5.467   2.618   2.741  0.3828  0.0895 -1.3955
 6330TIP3    H240482   5.334   2.639   2.672  1.0015 -0.8041 -2.9021
 6331TIP3   OH240483   0.190   4.377   1.851 -0.3670  0.4425 -0.4482
 6331TIP3    H140484   0.218   4.287   1.871 -1.6715  0.3231  1.0235
 6331TIP3    H240485   0.229   4.395   1.765 -1.5606 -2.1911 -1.6608
 6332TIP3   OH240486   0.322   4.345   0.961  0.0035 -0.0617 -0.1003
 6332TIP3    H140487   0.246   4.296   0.991  0.5580 -0.2674  1.0091
 6332TIP3    H240488   0.382   4.279   0.929 -0.5340  0.1477 -1.6298
 6333TIP3   OH240489   2.512   3.547  13.867  0.5058  0.0624 -0.5180
 6333TIP3    H140490   2.529   3.583  13.780  1.3082 -0.3938 -0.5539
 6333TIP3    H240491   2.420   3.518  13.863  0.4180  0.4017 -1.0822
 6334TIP3   OH240492   0.350   2.519  11.036 -0.3733  0.0534  0.0178
 6334TIP3    H140493   0.297   2.470  10.973  0.0618  0.7721 -0.9155
 6334TIP3    H240494   0.440   2.507  11.006 -0.0021 -0.8611  1.3899
 6335TIP3   OH240495   1.641   4.194  17.081 -0.3680 -0.2022  0.1467
 6335TIP3    H140496   1.645   4.188  17.176 -2.1692 -0.6631  0.2192
 6335TIP3    H240497   1.638   4.289  17.064 -0.1202 -0.1189  0.5479
 6336TIP3   OH240498   0.302   4.531  16.608  0.1690 -0.1073  0.5951
 6336TIP3    H140499   0.385   4.485  16.605 -0.0932 -0.5429 -1.0829
 6336TIP3    H240500   0.292   4.568  16.521 -0.9404  0.7710  1.0697
 6337TIP3   OH240501   4.025   3.551   1.733  0.1495 -0.1351  0.0456
 6337TIP3    H140502   4.063   3.633   1.764 -2.1914  0.4038  1.8075
 6337TIP3    H240503   3.972   3.576   1.658 -0.6229  0.0144  0.6274
 6338TIP3   OH240504   4.430   5.151  14.058  0.3315 -0.2400 -0.0365
 6338TIP3    H140505   4.424   5.090  13.985 -0.1448  1.5591 -1.5777
 6338TIP3    H240506   4.503   5.208  14.036  0.4288  0.1105  1.1031
 6339TIP3   OH240507   1.895   1.109   3.232  0.5531 -0.1539 -0.5979
 6339TIP3    H140508   1.968   1.052   3.210  0.8630 -0.4832  1.1335
 6339TIP3    H240509   1.817   1.055   3.215  0.7560 -0.3336 -0.9799
 6340TIP3   OH240510   0.850   4.946  11.686 -0.0382  0.0716 -0.7043
 6340TIP3    H140511   0.781   4.939  11.620 -0.8974  0.6244  0.0980
 6340TIP3    H240512   0.889   5.032  11.670  2.0109 -1.1105 -2.5644
 6341TIP3   OH240513   4.370   1.692   4.204  0.0248 -0.3714 -0.0045
 6341TIP3    H140514   4.356   1.717   4.112  1.9892 -0.1437 -0.2990
 6341TIP3    H240515   4.335   1.604   4.211 -2.7600  0.6336 -0.1839
 6342TIP3   OH240516   2.716   6.535  12.880  0.1675 -0.2433  0.3437
 6342TIP3    H140517   2.792   6.567  12.928  0.8063 -2.3728  0.8322
 6342TIP3    H240518   2.643   6.544  12.942  0.4031 -0.1086  0.6039
 6343TIP3   OH240519   2.118   3.997  13.076  0.7671 -0.3315  0.5319
 6343TIP3    H140520   2.044   4.047  13.110 -0.0216 -1.0822 -0.0558
 6343TIP3    H240521   2.174   4.063  13.035 -0.3035  0.0842 -0.3191
 6344TIP3   OH240522   0.006   0.977   5.158  0.6467 -0.1393  0.4036
 6344TIP3    H140523   0.070   0.923   5.205 -0.7603 -1.3269  1.0415
 6344TIP3    H240524   0.040   0.983   5.069  1.0326 -1.7955  0.4136
 6345TIP3   OH240525   3.084   1.646  14.475 -0.3510  0.3115  0.2589
 6345TIP3    H140526   3.021   1.573  14.480  0.6416 -0.5146  1.0597
 6345TIP3    H240527   3.074   1.679  14.385 -0.8883 -0.7471 -0.0933
 6346TIP3   OH240528   0.477   4.728  11.393 -0.7877  0.1457 -0.3971
 6346TIP3    H140529   0.534   4.655  11.369 -0.5397  0.8348 -2.0465
 6346TIP3    H240530   0.439   4.756  11.310 -3.4334 -0.1842  0.6082
 6347TIP3   OH240531   4.067   4.229  11.536 -0.4078 -0.3000 -0.8647
 6347TIP3    H140532   3.977   4.258  11.550 -0.2508  0.1948 -0.8800
 6347TIP3    H240533   4.071   4.143  11.577 -0.2910  0.5830  1.0474
 6348TIP3   OH240534   3.185   4.161  10.521  0.0162 -0.0873 -0.2349
 6348TIP3    H140535   3.246   4.197  10.456  0.0647  1.1915  0.4982
 6348TIP3    H240536   3.104   4.147  10.472 -0.0702  1.2315 -0.5016
 6349TIP3   OH240537   0.963   5.657   1.123 -0.2437  0.5771 -0.2952
 6349TIP3    H140538   0.986   5.720   1.191  0.8005  0.2605 -0.3501
 6349TIP3    H240539   0.994   5.697   1.042 -0.7563  0.5798 -0.4967
 6350TIP3   OH240540   4.966   4.295   5.538  0.1824 -0.7987 -0.1329
 6350TIP3    H140541   5.004   4.266   5.455  0.0786  1.4940 -1.0544
 6350TIP3    H240542   5.025   4.259   5.605  1.6774 -0.6793 -1.3163
 6351TIP3   OH240543   6.492   1.510  12.241  0.3523 -0.1531  0.0580
 6351TIP3    H140544   6.498   1.600  12.272  0.6195 -0.7523  1.8612
 6351TIP3    H240545   6.420   1.472  12.291 -1.5530 -0.2529 -2.5872
 6352TIP3   OH240546   1.389   3.276   1.744 -0.6775  0.1719  0.4262
 6352TIP3    H140547   1.447   3.327   1.688  0.4724 -1.7007 -0.1987
 6352TIP3    H240548   1.304   3.282   1.702  0.2035 -1.3497 -1.7340
 6353TIP3   OH240549   4.810   1.006  15.213 -0.6566  0.4677 -0.3779
 6353TIP3    H140550   4.829   0.912  15.217  0.4276  0.6633 -0.4565
 6353TIP3    H240551   4.759   1.023  15.292 -0.7819 -0.1678 -0.3129
 6354TIP3   OH240552   4.566   2.216  13.146 -0.2382 -0.5755 -0.1128
 6354TIP3    H140553   4.583   2.305  13.178  0.2473  0.2356 -2.4623
 6354TIP3    H240554   4.485   2.225  13.096  0.2021 -1.3011 -0.9666
 6355TIP3   OH240555   2.652   3.159  12.406  0.0722  0.1840 -0.1638
 6355TIP3    H140556   2.643   3.237  12.461 -2.2986 -0.0105 -0.1682
 6355TIP3    H240557   2.710   3.101  12.456  0.8694  1.4251  0.4123
 6356TIP3   OH240558   1.932   3.703   4.681 -0.4924  0.1206 -0.1801
 6356TIP3    H140559   2.003   3.746   4.633  0.0839 -1.5305 -0.9052
 6356TIP3    H240560   1.903   3.768   4.744 -0.6627  2.0855 -2.1457
 6357TIP3   OH240561   6.472   1.770   0.556 -0.7409 -0.2441  0.3950
 6357TIP3    H140562   6.407   1.734   0.496  0.1198  0.3911 -0.9654
 6357TIP3    H240563   6.508   1.845   0.509  2.7219 -1.9662  0.0256
 6358TIP3   OH240564   2.946   4.169  16.931 -0.5831  0.0468  0.0191
 6358TIP3    H140565   2.980   4.085  16.899  0.3433  0.2803  0.3527
 6358TIP3    H240566   2.946   4.160  17.026 -0.4996  0.4084  0.0543
 6359TIP3   OH240567   2.602   1.843   4.221  0.3986 -0.1092 -1.1172
 6359TIP3    H140568   2.636   1.899   4.290 -0.4116  0.5308 -1.2214
 6359TIP3    H240569   2.616   1.754   4.253  1.4231  0.1452 -0.8206
 6360TIP3   OH240570   6.244   6.208   2.542 -0.0725  0.1114  0.8739
 6360TIP3    H140571   6.272   6.132   2.593 -0.4723 -0.1665  0.6818
 6360TIP3    H240572   6.248   6.179   2.451 -1.6317 -0.1670  0.8680
 6361TIP3   OH240573   4.608   2.460   4.627 -0.3577  0.3238  0.0192
 6361TIP3    H140574   4.681   2.473   4.566 -0.4220 -1.8564 -0.6190
 6361TIP3    H240575   4.570   2.547   4.638  3.1780  1.8773  1.5281
 6362TIP3   OH240576   4.683   6.329  11.608  0.3198 -0.5887  0.2628
 6362TIP3    H140577   4.605   6.359  11.655 -0.5099 -0.8476 -0.9250
 6362TIP3    H240578   4.756   6.361  11.662 -0.5372  1.8569  0.0959
 6363TIP3   OH240579   3.032   2.562   2.450 -0.7315 -0.0806 -0.1680
 6363TIP3    H140580   3.002   2.487   2.500 -0.5626 -0.0458 -0.0148
 6363TIP3    H240581   2.953   2.616   2.438 -0.5309  0.5305  1.1385
 6364TIP3   OH240582   0.193   2.731  15.499 -0.2181 -0.5427  0.4918
 6364TIP3    H140583   0.279   2.739  15.457 -1.2410 -0.8229 -1.8333
 6364TIP3    H240584   0.185   2.809  15.554 -0.0182  1.6215 -2.3203
 6365TIP3   OH240585   4.072   2.394  14.933  0.6166  0.1659  0.1006
 6365TIP3    H140586   3.983   2.364  14.918 -0.8730  2.9319  2.3337
 6365TIP3    H240587   4.120   2.316  14.959 -1.1725 -1.3567 -0.8967
 6366TIP3   OH240588   1.267   5.753  16.852 -0.1871 -0.4264  1.0637
 6366TIP3    H140589   1.270   5.798  16.767  0.1404  0.3603  1.4736
 6366TIP3    H240590   1.358   5.730  16.869 -0.2956 -0.8501  1.0644
 6367TIP3   OH240591   4.989   4.128  14.445  0.0660 -0.1426  0.0174
 6367TIP3    H140592   4.992   4.058  14.381  0.2113 -1.3966  1.3529
 6367TIP3    H240593   5.081   4.152  14.459 -0.0372  2.8824 -3.0303
 6368TIP3   OH240594   1.782   6.306  11.453  0.4798  0.5296  0.5128
 6368TIP3    H140595   1.741   6.385  11.420  2.3118  1.1887 -0.3222
 6368TIP3    H240596   1.717   6.237  11.439 -0.9264  1.7653  0.7534
 6369TIP3   OH240597   6.313   4.535  11.409 -0.3148 -0.1220  0.8476
 6369TIP3    H140598   6.251   4.486  11.462 -2.1150  0.5711 -0.5103
 6369TIP3    H240599   6.321   4.485  11.328  0.2865  0.2256  0.6830
 6370TIP3   OH240600   1.685   1.047   5.100 -0.3559  0.6943 -0.4389
 6370TIP3    H140601   1.747   1.089   5.160  0.3634 -1.1443  0.1855
 6370TIP3    H240602   1.729   1.050   5.015  0.5482 -0.3944 -0.0433
 6371TIP3   OH240603   0.683   3.576  13.009  0.2669  0.1566  0.3013
 6371TIP3    H140604   0.756   3.537  12.961  0.8546 -0.2448  1.4810
 6371TIP3    H240605   0.711   3.666  13.027 -0.2584  0.5405 -0.6982
 6372TIP3   OH240606   4.697   2.707  10.893 -0.0178  0.1727 -0.5115
 6372TIP3    H140607   4.734   2.750  10.969  1.4722 -1.2653 -0.3646
 6372TIP3    H240608   4.643   2.637  10.929 -0.2398  0.2048 -0.7776
 6373TIP3   OH240609   1.014   5.684  12.779  0.3893 -0.0126 -0.5565
 6373TIP3    H140610   1.028   5.594  12.749  0.2947  0.0598 -0.8221
 6373TIP3    H240611   1.088   5.733  12.743  1.1045 -0.2126  0.6106
 6374TIP3   OH240612   5.517   0.930   5.055 -0.1804 -0.1619  0.2519
 6374TIP3    H140613   5.488   0.962   5.140 -0.8882 -1.6219  0.6025
 6374TIP3    H240614   5.609   0.906   5.068  0.2498  1.2728  0.0811
 6375TIP3   OH240615   3.556   6.428  13.871  0.1543 -0.6373  0.4226
 6375TIP3    H140616   3.607   6.501  13.834 -0.1160  0.0049  1.2726
 6375TIP3    H240617   3.621   6.360  13.888  0.2339 -1.0964 -1.5218
 6376TIP3   OH240618   5.834   3.521  13.419  0.2407 -0.0434 -0.2850
 6376TIP3    H140619   5.829   3.529  13.514  3.2011  0.1079 -0.0480
 6376TIP3    H240620   5.862   3.431  13.404 -0.1264 -0.0421 -0.9928
 6377TIP3   OH240621   6.695   6.494   0.315 -0.4878 -0.5353 -0.1430
 6377TIP3    H140622   6.720   6.469   0.404  1.5725  1.3284 -0.1060
 6377TIP3    H240623   6.771   6.470   0.262  0.5759  3.0565 -0.4681
 6378TIP3   OH240624   2.568   6.076  14.568 -0.5001  0.5668  0.5992
 6378TIP3    H140625   2.547   6.167  14.545 -0.0959  0.2591 -1.1853
 6378TIP3    H240626   2.490   6.026  14.544 -0.4189  0.3384  0.8053
 6379TIP3   OH240627   6.378   2.546   6.245  0.0815 -0.1356  0.5233
 6379TIP3    H140628   6.284   2.542   6.226  0.0778  1.9367 -0.2102
 6379TIP3    H240629   6.417   2.480   6.187 -0.7598  0.3046 -0.5896
 6380TIP3   OH240630   6.651   3.534  13.434 -0.2495 -0.3542 -0.1176
 6380TIP3    H140631   6.574   3.582  13.403 -0.8352 -0.8151  0.5776
 6380TIP3    H240632   6.712   3.535  13.361 -0.4237  1.0749 -0.2595
 6381TIP3   OH240633   3.670   6.089  12.288  0.3172  1.4210 -0.1888
 6381TIP3    H140634   3.682   6.184  12.292 -1.8095  1.6799  1.3096
 6381TIP3    H240635   3.585   6.077  12.246  1.4839  0.0459 -2.3372
 6382TIP3   OH240636   5.966   6.357  13.998  0.3397  0.3273  0.1376
 6382TIP3    H140637   6.001   6.268  13.990  2.0601  0.7281  2.0733
 6382TIP3    H240638   5.888   6.347  14.053  0.8611  0.0390  0.8504
 6383TIP3   OH240639   6.122   6.031   1.443  0.2834 -0.0643 -0.1285
 6383TIP3    H140640   6.032   6.000   1.429 -0.5005  1.5923  0.8769
 6383TIP3    H240641   6.152   6.056   1.356 -0.6428  0.3934 -0.3329
 6384TIP3   OH240642   5.808   1.740   0.597 -0.1741 -0.0334 -0.2193
 6384TIP3    H140643   5.781   1.702   0.513 -1.1284  0.4918 -0.1660
 6384TIP3    H240644   5.874   1.680   0.630 -2.4330 -2.3276  0.3976
 6385TIP3   OH240645   2.204   3.242   2.504 -0.3172  0.2533 -0.1597
 6385TIP3    H140646   2.295   3.222   2.522 -0.4737 -0.1890  0.1398
 6385TIP3    H240647   2.202   3.338   2.494 -0.2922  0.6476  2.7044
 6386TIP3   OH240648   3.786   6.050  14.549  0.0552  0.4372 -0.2743
 6386TIP3    H140649   3.841   6.116  14.591 -0.1012  0.1218  0.4559
 6386TIP3    H240650   3.828   6.031  14.466  1.4738 -0.3385  0.5815
 6387TIP3   OH240651   5.362   4.998   2.875  0.5441 -0.5546 -0.0210
 6387TIP3    H140652   5.456   4.983   2.886  0.4984 -0.7760  0.0915
 6387TIP3    H240653   5.325   4.982   2.962  0.2917 -1.3883 -0.2712
 6388TIP3   OH240654   3.127   0.775   4.490 -0.6371  0.5082  0.0933
 6388TIP3    H140655   3.193   0.794   4.424 -1.1046 -2.1254 -1.2505
 6388TIP3    H240656   3.061   0.723   4.444 -2.0936  0.4216  2.1321
 6389TIP3   OH240657   1.626   3.713   5.741  0.2060 -0.3934 -0.5290
 6389TIP3    H140658   1.699   3.707   5.804 -1.2012  0.6111  1.3200
 6389TIP3    H240659   1.630   3.803   5.709 -0.3363 -0.2502 -0.2172
 6390TIP3   OH240660   0.748   4.780   5.718 -0.6772  0.2407  0.4237
 6390TIP3    H140661   0.695   4.851   5.683 -1.3642  0.0989  1.1395
 6390TIP3    H240662   0.818   4.825   5.766 -0.8444  0.4344  0.4904
 6391TIP3   OH240663   2.525   4.631   1.198  0.3782  0.0329 -0.1682
 6391TIP3    H140664   2.476   4.712   1.185  0.5682  0.1811  0.0408
 6391TIP3    H240665   2.597   4.655   1.255  1.1372 -0.0083 -1.0719
 6392TIP3   OH240666   0.343   6.275  11.137  0.5377 -0.1648  0.0648
 6392TIP3    H140667   0.253   6.297  11.112  0.7405  0.1232 -0.4369
 6392TIP3    H240668   0.344   6.283  11.232  0.3321  1.0085 -0.0093
 6393TIP3   OH240669   2.778   6.718   5.239  0.0792 -0.6151  0.3220
 6393TIP3    H140670   2.813   6.635   5.271 -0.1074 -1.2392 -1.0213
 6393TIP3    H240671   2.847   6.781   5.255  0.9002 -1.3669 -0.1678
 6394TIP3   OH240672   0.459   2.715   4.535 -0.1312  0.3314 -0.1590
 6394TIP3    H140673   0.503   2.743   4.615 -0.2502  1.7253 -0.5436
 6394TIP3    H240674   0.531   2.692   4.475 -0.0590 -1.8657  0.6841
 6395TIP3   OH240675   2.892   5.412   4.952  0.0327 -0.4321 -0.6528
 6395TIP3    H140676   2.925   5.338   4.901  1.0397 -0.0137 -0.6294
 6395TIP3    H240677   2.815   5.442   4.904 -0.0015 -1.0953 -1.0146
 6396TIP3   OH240678   2.143   3.880   4.621 -0.3729  0.2438 -0.0515
 6396TIP3    H140679   2.171   3.906   4.533  1.7399 -1.8808 -0.1277
 6396TIP3    H240680   2.224   3.878   4.672 -0.8694 -2.5374  0.7963
 6397TIP3   OH240681   1.346   5.677   6.260 -0.1204  0.0889 -0.1456
 6397TIP3    H140682   1.373   5.598   6.213 -0.0751 -1.0426  1.6746
 6397TIP3    H240683   1.411   5.743   6.235  1.7686 -1.3567  0.6875
 6398TIP3   OH240684   4.904   4.151  13.941  0.5102 -0.6650  0.4704
 6398TIP3    H140685   4.821   4.183  13.904 -0.5824 -2.0318  1.6143
 6398TIP3    H240686   4.932   4.221  14.000 -0.8083 -0.9127  1.4435
 6399TIP3   OH240687   6.346   0.336  11.613  0.0781 -0.0794 -0.4035
 6399TIP3    H140688   6.290   0.333  11.690  1.7475 -0.7437  0.8428
 6399TIP3    H240689   6.386   0.423  11.615  0.0511 -0.0631 -0.5612
 6400TIP3   OH240690   4.643   5.037   2.976 -0.0159  0.3479  0.3450
 6400TIP3    H140691   4.725   5.087   2.969  0.4092 -0.4226 -0.4452
 6400TIP3    H240692   4.580   5.086   2.925  0.0932  0.6829  0.5312
 6401TIP3   OH240693   4.066   6.339  15.242  0.1792  0.4558  0.1410
 6401TIP3    H140694   4.096   6.391  15.316  0.4136  0.2056  0.2229
 6401TIP3    H240695   4.066   6.249  15.274  1.6735  0.1663 -0.5842
 6402TIP3   OH240696   6.170   4.924   0.051 -0.1980  0.4523 -0.3181
 6402TIP3    H140697   6.154   4.836   0.086  2.8827 -0.3329 -0.5776
 6402TIP3    H240698   6.135   4.983   0.117  0.5186 -1.0122  1.4565
 6403TIP3   OH240699   5.298   2.338  11.193  0.0858 -0.0555 -0.5104
 6403TIP3    H140700   5.271   2.394  11.119  1.6622  0.5328 -0.6780
 6403TIP3    H240701   5.260   2.252  11.172  0.8891 -0.0300 -2.2716
 6404TIP3   OH240702   2.504   5.099  12.380 -0.3021 -1.0726 -0.2924
 6404TIP3    H140703   2.424   5.060  12.344 -1.0726  1.4663 -1.5642
 6404TIP3    H240704   2.529   5.166  12.317 -0.1869  1.8211  2.5566
 6405TIP3   OH240705   5.920   1.945  16.112  0.2875 -0.8279 -0.4490
 6405TIP3    H140706   5.983   1.928  16.042 -1.1838 -2.1747 -1.5305
 6405TIP3    H240707   5.854   2.001  16.071 -0.4463 -1.4006 -0.0684
 6406TIP3   OH240708   5.298   1.258   3.348 -0.0198 -0.5618  0.5370
 6406TIP3    H140709   5.302   1.166   3.321 -0.3556 -0.2375 -0.7224
 6406TIP3    H240710   5.384   1.294   3.325 -0.3547 -0.2493 -0.3033
 6407TIP3   OH240711   3.264   5.948   0.184 -0.0482 -0.0529 -0.6979
 6407TIP3    H140712   3.343   5.988   0.149 -0.4468 -0.3487 -1.9761
 6407TIP3    H240713   3.289   5.856   0.199  0.0725  0.0327 -0.3726
 6408TIP3   OH240714   5.590   0.732   1.170 -0.1700 -0.7004  0.2245
 6408TIP3    H140715   5.596   0.637   1.183  1.8485 -0.5266  1.0347
 6408TIP3    H240716   5.679   0.758   1.146 -0.5371  1.0682  0.6234
 6409TIP3   OH240717   4.350   1.422  16.180  0.4706 -0.0274 -0.1259
 6409TIP3    H140718   4.289   1.476  16.129  2.3266 -0.4200 -2.9147
 6409TIP3    H240719   4.294   1.376  16.242 -1.8852  0.7911 -1.5161
 6410TIP3   OH240720   4.293   0.062  14.810 -0.0898 -0.6169  0.0696
 6410TIP3    H140721   4.228   0.132  14.821  0.9429  0.1461  1.6888
 6410TIP3    H240722   4.243  -0.019  14.820 -0.5374 -0.0730  3.8297
 6411TIP3   OH240723   5.090   1.199  14.083 -0.1853 -0.2747  0.2632
 6411TIP3    H140724   5.050   1.260  14.145 -1.0385  0.8541 -1.3193
 6411TIP3    H240725   5.121   1.126  14.137 -0.2004  1.0051  2.0797
 6412TIP3   OH240726   0.022   2.503  13.232 -0.7954  0.5837 -0.1758
 6412TIP3    H140727   0.081   2.573  13.204 -1.0721  1.2126  0.7404
 6412TIP3    H240728  -0.056   2.515  13.177 -0.0644 -0.3055 -1.4471
 6413TIP3   OH240729   0.514   4.593  15.367  0.0665  0.1512  0.0585
 6413TIP3    H140730   0.540   4.679  15.335  0.8252  0.5602  1.6381
 6413TIP3    H240731   0.517   4.601  15.463 -0.5522 -1.4222  0.2487
 6414TIP3   OH240732   0.025   2.004   4.056  0.2050  0.0034 -0.0524
 6414TIP3    H140733  -0.005   1.927   4.009 -0.9155  1.1903 -1.3967
 6414TIP3    H240734  -0.010   1.994   4.145 -0.4559 -0.7403 -0.3891
 6415TIP3   OH240735   6.501   5.141   0.899 -0.0202 -0.4493  0.4858
 6415TIP3    H140736   6.443   5.097   0.837 -0.5008 -3.6222  2.9429
 6415TIP3    H240737   6.442   5.178   0.965  0.4811  2.8470 -0.6934
 6416TIP3   OH240738   6.261   3.773   4.490 -0.1950 -0.2117 -0.1574
 6416TIP3    H140739   6.324   3.846   4.488 -1.3087  0.8755  1.9246
 6416TIP3    H240740   6.312   3.698   4.522  0.5534  0.0703 -0.6568
 6417TIP3   OH240741   5.659   3.247   1.390  0.2553  0.0061  0.1227
 6417TIP3    H140742   5.691   3.332   1.358  1.6382 -0.7261 -0.5127
 6417TIP3    H240743   5.738   3.193   1.396 -0.2074 -0.4794  3.0017
 6418TIP3   OH240744   3.439   5.243  12.610 -0.0874 -0.1414  0.0882
 6418TIP3    H140745   3.351   5.281  12.616 -0.6450 -1.3927  0.2583
 6418TIP3    H240746   3.440   5.200  12.524  0.9765  1.2674 -0.6509
 6419TIP3   OH240747   1.042   6.691   4.123 -0.3438  0.7884  0.1792
 6419TIP3    H140748   0.963   6.675   4.072 -0.0830  1.4346 -0.4429
 6419TIP3    H240749   1.013   6.686   4.214 -0.2577 -3.4722  0.1495
 6420TIP3   OH240750   2.110   6.152   1.402 -0.1755  0.1792  0.1267
 6420TIP3    H140751   2.114   6.065   1.441  1.4701 -0.1216 -0.6221
 6420TIP3    H240752   2.021   6.182   1.419 -0.7868 -1.6531  0.3736
 6421TIP3   OH240753   4.921   4.036  11.767 -0.2891  0.1710 -0.0602
 6421TIP3    H140754   4.872   4.031  11.849 -0.8704  1.7683 -0.2766
 6421TIP3    H240755   4.939   3.945  11.744 -1.1729 -0.3498  1.2029
 6422TIP3   OH240756   0.870   4.255  13.019  0.4883 -0.5176 -0.0674
 6422TIP3    H140757   0.782   4.285  12.997  0.4854 -0.7168 -0.3329
 6422TIP3    H240758   0.863   4.159  13.021  0.6770 -0.5311  0.0045
 6423TIP3   OH240759   4.384   2.143   2.668  0.0808 -0.3137  0.2701
 6423TIP3    H140760   4.361   2.213   2.729  1.4779  0.9229 -0.5506
 6423TIP3    H240761   4.346   2.171   2.585 -0.9510 -1.4927  0.3099
 6424TIP3   OH240762   0.625   3.563   4.217  0.2163 -0.7691 -0.4381
 6424TIP3    H140763   0.636   3.568   4.122 -0.6401 -1.5709 -0.5993
 6424TIP3    H240764   0.622   3.469   4.235 -2.5276 -0.6559  0.0077
 6425TIP3   OH240765   0.747   3.436  16.472  0.3086 -0.0820  0.8988
 6425TIP3    H140766   0.794   3.446  16.555  0.5540 -0.2217  0.7798
 6425TIP3    H240767   0.762   3.344  16.448 -0.4820 -0.2793  1.1322
 6426TIP3   OH240768   2.017   2.767  14.816 -0.7012  0.0464 -0.1847
 6426TIP3    H140769   1.955   2.781  14.886  0.3279 -0.1439  0.7971
 6426TIP3    H240770   2.051   2.854  14.795 -1.4038  0.1711 -0.8371
 6427TIP3   OH240771   4.777   1.177  14.025 -0.1020  0.0177 -0.3987
 6427TIP3    H140772   4.806   1.163  14.115 -0.4557  0.4034 -0.2187
 6427TIP3    H240773   4.856   1.167  13.972 -0.1987 -1.9364 -0.2332
 6428TIP3   OH240774   5.873   4.154  16.968  0.3168 -0.2807  0.4249
 6428TIP3    H140775   5.793   4.189  16.931  0.7694  1.6957  1.2188
 6428TIP3    H240776   5.851   4.134  17.059  0.5102 -0.5352  0.4196
 6429TIP3   OH240777   0.500   5.138   5.846  0.5024  0.8286  0.1813
 6429TIP3    H140778   0.499   5.119   5.940 -0.7937 -1.5356 -0.2370
 6429TIP3    H240779   0.590   5.117   5.819  0.1516 -1.2708  0.4583
 6430TIP3   OH240780   5.403   2.017  13.261  0.4073  0.0811 -0.4973
 6430TIP3    H140781   5.428   1.927  13.284 -0.2160 -0.1351 -0.6511
 6430TIP3    H240782   5.405   2.018  13.166  0.1637  0.1557 -0.5023
 6431TIP3   OH240783   1.350   0.124   4.876  0.5924 -0.3865 -0.0472
 6431TIP3    H140784   1.439   0.123   4.910  0.5990  0.6578 -0.0036
 6431TIP3    H240785   1.337   0.036   4.841  0.8803 -1.2333  1.8515
 6432TIP3   OH240786   1.918   2.247   0.021  0.1815  0.0361  0.2911
 6432TIP3    H140787   2.001   2.256  -0.026 -1.4265 -1.8894 -3.3518
 6432TIP3    H240788   1.853   2.284  -0.039 -2.2074 -3.8061  0.1806
 6433TIP3   OH240789   6.432   1.587   5.312  0.4511  0.3921  0.5442
 6433TIP3    H140790   6.359   1.630   5.357 -1.9633 -2.9234  0.2763
 6433TIP3    H240791   6.459   1.518   5.373  0.4535 -1.0681 -1.0354
 6434TIP3   OH240792   0.443   1.983   2.483  0.1109 -0.3285  0.0925
 6434TIP3    H140793   0.477   2.072   2.471 -0.9226 -0.1907 -2.3116
 6434TIP3    H240794   0.349   1.996   2.500  0.0484 -0.9534  0.2355
 6435TIP3   OH240795   0.919   3.483  12.866  0.4063  0.3007 -0.6749
 6435TIP3    H140796   0.940   3.394  12.837 -1.5632 -1.6462  3.0790
 6435TIP3    H240797   1.004   3.525  12.876  1.5265 -1.7640 -0.9174
 6436TIP3   OH240798   2.328   1.923   0.394 -0.0772  0.2235  0.1680
 6436TIP3    H140799   2.273   1.893   0.322 -1.7928 -0.2998  1.6036
 6436TIP3    H240800   2.371   1.843   0.425 -0.4939  0.1587  0.6109
 6437TIP3   OH240801   6.420   0.900   3.571 -0.2398  0.1612 -0.0511
 6437TIP3    H140802   6.330   0.923   3.593 -0.3305  0.5448 -0.7976
 6437TIP3    H240803   6.419   0.887   3.476  0.2651 -0.8676  0.0669
 6438TIP3   OH240804   0.769   2.529  12.579 -0.7648 -0.0328 -0.1703
 6438TIP3    H140805   0.855   2.485  12.580 -0.8009 -0.1885 -1.8323
 6438TIP3    H240806   0.706   2.457  12.577 -0.9725  0.0773  1.3448
 6439TIP3   OH240807   5.999   2.915  16.541 -0.0527  0.1349  0.4101
 6439TIP3    H140808   6.072   2.855  16.559  0.0087  0.8152  2.8059
 6439TIP3    H240809   6.036   3.002  16.554 -1.1107  0.5200  0.9345
 6440TIP3   OH240810   0.382   4.835   5.887 -0.1172  0.0254 -0.0649
 6440TIP3    H140811   0.454   4.772   5.885 -1.4798 -1.6700  1.0437
 6440TIP3    H240812   0.405   4.894   5.958 -0.6184 -1.6212  1.5496
 6441TIP3   OH240813   5.213   1.168  11.648 -0.2534  0.1061  0.6379
 6441TIP3    H140814   5.120   1.171  11.627 -0.1711  0.7202  0.3438
 6441TIP3    H240815   5.257   1.204  11.571  0.2237 -0.0997  0.8054
 6442TIP3   OH240816   0.415   3.770   0.488 -0.5295  0.0132  0.1509
 6442TIP3    H140817   0.477   3.705   0.521  0.4538  0.4269 -0.7995
 6442TIP3    H240818   0.374   3.807   0.567  0.0018 -0.6857  0.7690
 6443TIP3   OH240819   2.006   1.716   2.302 -0.1506 -0.1748  0.1164
 6443TIP3    H140820   1.945   1.668   2.358 -0.9395 -0.8733 -1.2786
 6443TIP3    H240821   1.950   1.764   2.241  0.6618  1.6946  0.7929
 6444TIP3   OH240822   6.441   5.493  11.267 -0.2554 -0.5253  0.4696
 6444TIP3    H140823   6.450   5.413  11.216  1.7107  0.2979 -0.5811
 6444TIP3    H240824   6.531   5.516  11.292 -0.7454  1.3977  0.6331
 6445TIP3   OH240825   4.134   5.361  16.116  0.1347 -0.7994 -0.0979
 6445TIP3    H140826   4.059   5.378  16.059  0.3044 -1.1184 -0.4214
 6445TIP3    H240827   4.097   5.311  16.189 -0.4912  1.3954  1.1853
 6446TIP3   OH240828   1.680   3.759   0.153  0.4797 -0.0973  0.3483
 6446TIP3    H140829   1.631   3.781   0.232  0.2166 -1.5701  0.6081
 6446TIP3    H240830   1.767   3.796   0.168 -0.3747  2.2287  0.0346
 6447TIP3   OH240831   1.675   4.866  15.689 -0.2891 -0.3065 -0.6433
 6447TIP3    H140832   1.679   4.861  15.594 -0.1821  0.3761 -0.6782
 6447TIP3    H240833   1.766   4.875  15.717 -0.4419  1.6750 -0.6243
 6448TIP3   OH240834   2.890   3.523  16.619  0.2630 -0.2675  0.5646
 6448TIP3    H140835   2.928   3.513  16.531  1.1289 -1.7414  1.0709
 6448TIP3    H240836   2.934   3.600  16.655  0.9838 -0.5136  0.2404
 6449TIP3   OH240837   6.781   2.802  14.079 -0.3526 -0.4398  0.4242
 6449TIP3    H140838   6.844   2.746  14.033 -0.7143  0.8025 -1.6942
 6449TIP3    H240839   6.835   2.858  14.135  0.3186 -0.4300 -0.2099
 6450TIP3   OH240840   3.610   5.700   3.146  0.5121  0.1827  0.6528
 6450TIP3    H140841   3.601   5.605   3.138  0.8132  0.1825  0.3038
 6450TIP3    H240842   3.682   5.723   3.088 -1.0783  0.9293 -1.1575
 6451TIP3   OH240843   0.599   3.166  11.727  0.2543 -0.0928  0.4138
 6451TIP3    H140844   0.538   3.139  11.658 -0.7186 -0.6695  1.4513
 6451TIP3    H240845   0.667   3.099  11.726 -0.3599 -0.7410  0.7436
 6452TIP3   OH240846   6.752   3.819  11.399  0.3412 -0.1788  0.2004
 6452TIP3    H140847   6.724   3.797  11.310 -0.1081 -1.3646  0.6137
 6452TIP3    H240848   6.842   3.786  11.405  0.8294  1.0272 -0.1969
 6453TIP3   OH240849   4.325   1.244   4.126  0.3211 -0.0282 -0.2500
 6453TIP3    H140850   4.237   1.238   4.163 -0.6096  0.5653 -2.2481
 6453TIP3    H240851   4.372   1.303   4.185 -0.0532 -1.6412  1.7751
 6454TIP3   OH240852   5.093   3.821  13.565  0.4072 -0.6750 -0.3570
 6454TIP3    H140853   5.176   3.838  13.522 -0.1082 -0.0264 -1.1162
 6454TIP3    H240854   5.071   3.904  13.608 -0.2248 -0.5980 -0.8182
 6455TIP3   OH240855   4.868   4.687  14.271  0.1678 -0.1907 -0.1092
 6455TIP3    H140856   4.807   4.724  14.336  2.0279  0.7496  1.1959
 6455TIP3    H240857   4.874   4.594  14.294 -1.2104 -0.4525 -0.6703
 6456TIP3   OH240858   2.853   5.106   3.996 -0.0692  0.7611  0.2886
 6456TIP3    H140859   2.757   5.114   3.994 -0.0148  1.6296  0.4640
 6456TIP3    H240860   2.872   5.026   3.947 -0.9536 -0.1409  1.3655
 6457TIP3   OH240861   3.522   0.201  12.614  0.3254 -0.0236  0.1527
 6457TIP3    H140862   3.548   0.112  12.637  1.9767  0.7963  1.8092
 6457TIP3    H240863   3.473   0.232  12.690 -1.4272  0.0893 -0.9639
 6458TIP3   OH240864   4.875   3.390   0.834 -0.1774 -0.1911 -0.5081
 6458TIP3    H140865   4.786   3.413   0.807 -0.0476  1.6217  0.4575
 6458TIP3    H240866   4.872   3.393   0.930  0.6749 -1.1599 -0.4467
 6459TIP3   OH240867   0.341   1.325   5.854 -0.0003 -0.4953 -0.2694
 6459TIP3    H140868   0.330   1.350   5.945 -1.4564  0.8732 -0.7867
 6459TIP3    H240869   0.360   1.231   5.857  0.8739 -0.3016  1.4616
 6460TIP3   OH240870   1.869   2.602   0.560 -0.3431 -0.2507  0.0905
 6460TIP3    H140871   1.821   2.680   0.532 -0.4694  0.0531  1.1375
 6460TIP3    H240872   1.884   2.614   0.653  2.0028 -0.2314 -0.2421
 6461TIP3   OH240873   1.857   0.924  14.020 -0.1243  0.7896 -0.0215
 6461TIP3    H140874   1.827   0.833  14.017 -2.3466  1.4455  0.3835
 6461TIP3    H240875   1.944   0.919  14.061 -0.0248 -1.1583 -0.3588
 6462TIP3   OH240876   4.628   5.043   0.115  0.1067  0.1864 -0.1013
 6462TIP3    H140877   4.688   5.096   0.167  0.0224 -1.3548  1.6961
 6462TIP3    H240878   4.584   4.987   0.179 -1.9940  0.0488 -1.5668
 6463TIP3   OH240879   5.222   1.723  13.671  0.0088  0.2776  0.2323
 6463TIP3    H140880   5.242   1.669  13.595  0.5068  0.0377  0.5261
 6463TIP3    H240881   5.288   1.698  13.736 -0.7402  0.0728  0.9328
 6464TIP3   OH240882   5.581   1.343   4.235 -0.1473 -0.3890  0.0388
 6464TIP3    H140883   5.658   1.291   4.259 -0.4286 -0.3973  0.9497
 6464TIP3    H240884   5.607   1.434   4.251 -0.3391 -0.3950  0.3936
 6465TIP3   OH240885   0.507   4.061   4.715 -0.1921 -0.1051 -0.5334
 6465TIP3    H140886   0.501   4.047   4.810  2.0449 -2.4102 -0.6193
 6465TIP3    H240887   0.430   4.017   4.679  0.4435 -1.7933  0.0789
 6466TIP3   OH240888   3.285   0.626  11.796  0.1003 -0.5373 -0.1529
 6466TIP3    H140889   3.298   0.606  11.703  0.9120 -2.8588  0.3854
 6466TIP3    H240890   3.246   0.546  11.832  0.8559 -0.1048  1.7095
 6467TIP3   OH240891   6.254   0.149   2.677 -0.1274  0.9015  0.4484
 6467TIP3    H140892   6.234   0.162   2.584 -1.4334 -0.5750  0.4840
 6467TIP3    H240893   6.172   0.168   2.722  0.0622  0.0857  1.1507
 6468TIP3   OH240894   1.356   1.063   2.418 -0.0573 -0.3499  0.6820
 6468TIP3    H140895   1.282   1.012   2.451  0.8869 -1.7857  0.6258
 6468TIP3    H240896   1.423   1.056   2.486  0.4203  0.0599  0.2627
 6469TIP3   OH240897   6.707   4.853  14.760  0.3500 -0.0829  0.4496
 6469TIP3    H140898   6.753   4.785  14.710 -0.7906  0.5119 -1.4978
 6469TIP3    H240899   6.620   4.816  14.776  0.3733  0.1454  1.1561
 6470TIP3   OH240900   2.105   5.782  14.343  0.3794 -0.2097  0.4077
 6470TIP3    H140901   2.038   5.754  14.280 -0.1083 -0.2822  0.9415
 6470TIP3    H240902   2.095   5.877  14.347  0.5317 -0.1871  0.2407
 6471TIP3   OH240903   3.453   3.040  10.540  0.4828 -0.1835  0.1430
 6471TIP3    H140904   3.396   2.992  10.600  0.4662 -0.6249 -0.2194
 6471TIP3    H240905   3.522   2.977  10.518 -0.9803 -1.0143 -2.4652
 6472TIP3   OH240906   3.725   5.252   4.177 -0.4012 -0.2280  0.1937
 6472TIP3    H140907   3.744   5.282   4.266 -0.6686  0.8528 -0.1032
 6472TIP3    H240908   3.647   5.301   4.152  0.0425 -0.0536 -0.8714
 6473TIP3   OH240909   3.188   5.293  15.657 -0.3186  0.3632  0.2467
 6473TIP3    H140910   3.182   5.251  15.742  0.5984  1.6458  0.9809
 6473TIP3    H240911   3.280   5.280  15.631  0.1004  2.2318  0.6944
 6474TIP3   OH240912   1.890   0.483   1.516  0.3256 -0.5177  0.1154
 6474TIP3    H140913   1.897   0.524   1.429 -0.7241  0.1016  0.3189
 6474TIP3    H240914   1.980   0.484   1.549  0.8136 -1.1199 -1.1189
 6475TIP3   OH240915   5.035   4.686   1.488 -0.4635  0.1424 -0.2901
 6475TIP3    H140916   5.071   4.685   1.577 -0.5161  0.9163 -0.2525
 6475TIP3    H240917   5.071   4.765   1.448 -0.0341 -0.4678 -1.1414
 6476TIP3   OH240918   4.377   4.048  12.386 -0.4751  0.2147  0.5292
 6476TIP3    H140919   4.395   3.960  12.420 -3.2978 -0.6723 -0.0461
 6476TIP3    H240920   4.450   4.066  12.326  0.3715 -1.5280  0.9646
 6477TIP3   OH240921   1.177   1.320   0.184  0.2345  0.2530  0.8968
 6477TIP3    H140922   1.182   1.246   0.244 -1.5951  1.1739  2.2847
 6477TIP3    H240923   1.162   1.281   0.098 -1.6165 -1.0049  1.7297
 6478TIP3   OH240924   1.232   1.194   3.542 -0.3270 -0.3667  0.0715
 6478TIP3    H140925   1.248   1.199   3.448 -0.2894 -1.4543  0.0119
 6478TIP3    H240926   1.214   1.102   3.559 -0.5022 -0.1584  1.1078
 6479TIP3   OH240927   1.290   2.472  16.395 -0.2454 -0.0633 -0.0549
 6479TIP3    H140928   1.323   2.434  16.313  0.5017 -0.1249  0.2656
 6479TIP3    H240929   1.265   2.396  16.448 -1.3145 -0.0066 -0.4495
 6480TIP3   OH240930   0.062   6.590  16.446  0.3886  0.0826  0.1894
 6480TIP3    H140931   0.034   6.499  16.454  0.4278  0.0286 -0.2782
 6480TIP3    H240932   0.044   6.628  16.532  1.2772 -0.6165  0.7019
 6481TIP3   OH240933   4.029   0.175   0.099  0.3637 -0.1141 -0.0748
 6481TIP3    H140934   3.976   0.196   0.022 -2.4921 -0.8982  1.5499
 6481TIP3    H240935   4.057   0.261   0.132 -0.4395  0.3693 -0.6142
 6482TIP3   OH240936   2.784   2.529   0.311  0.0897 -0.1225  0.5588
 6482TIP3    H140937   2.835   2.447   0.308 -0.0044 -0.1759  0.3830
 6482TIP3    H240938   2.817   2.579   0.236  1.0128  0.5198  1.3721
 6483TIP3   OH240939   2.431   1.725  15.446 -0.5982 -0.0678 -0.6197
 6483TIP3    H140940   2.403   1.811  15.477 -1.4510 -0.3633 -0.5241
 6483TIP3    H240941   2.520   1.738  15.414  0.0546  0.4294  1.2437
 6484TIP3   OH240942   4.036   4.798   0.287  0.0198  0.2686 -0.3020
 6484TIP3    H140943   3.947   4.810   0.321 -0.3658  0.2057 -1.2649
 6484TIP3    H240944   4.066   4.716   0.326 -0.0223  0.6823  0.6578
 6485TIP3   OH240945   4.371   5.235  14.778 -0.3505  0.1354  0.0001
 6485TIP3    H140946   4.360   5.245  14.683  0.5037 -0.9674 -0.2333
 6485TIP3    H240947   4.282   5.239  14.812 -0.5650  2.4735 -0.6065
 6486TIP3   OH240948   4.747   4.670  16.228 -0.4109  0.1894 -0.3763
 6486TIP3    H140949   4.706   4.588  16.198 -0.5407 -0.2011  0.8285
 6486TIP3    H240950   4.832   4.672  16.184 -0.6143 -0.3421 -0.8055
 6487TIP3   OH240951   1.083   1.637  12.261 -0.7684 -0.1800  0.1487
 6487TIP3    H140952   1.022   1.603  12.328 -1.4823 -1.0117 -0.8828
 6487TIP3    H240953   1.077   1.732  12.270 -1.2043 -0.2663  0.9589
 6488TIP3   OH240954   2.087   0.870   5.040  0.2576 -0.5684 -0.5318
 6488TIP3    H140955   2.129   0.954   5.020 -0.7148 -0.0413 -0.4043
 6488TIP3    H240956   2.155   0.820   5.086  1.3428 -0.4435 -1.9307
 6489TIP3   OH240957   6.148   0.708   1.388  1.0917 -0.0408  0.1754
 6489TIP3    H140958   6.156   0.782   1.447  1.8369  0.0360 -0.0099
 6489TIP3    H240959   6.069   0.662   1.417 -1.1004  2.3828 -1.4672
 6490TIP3   OH240960   4.662   1.695   0.512 -0.3328  0.1413 -0.2353
 6490TIP3    H140961   4.671   1.600   0.517  2.2285  0.3073 -0.4543
 6490TIP3    H240962   4.648   1.712   0.418  0.3602  0.0230 -0.3690
 6491TIP3   OH240963   1.334   0.389   4.048  0.3578  0.2161  0.3834
 6491TIP3    H140964   1.413   0.334   4.050 -0.7876 -1.5437  0.0436
 6491TIP3    H240965   1.308   0.388   3.955 -0.7742 -0.3497  0.6897
 6492TIP3   OH240966   5.611   6.787  12.589 -0.4105 -0.0781 -0.0810
 6492TIP3    H140967   5.584   6.836  12.667 -0.0995  0.3164 -0.2177
 6492TIP3    H240968   5.682   6.731  12.620 -0.6112 -0.2760  0.0245
 6493TIP3   OH240969   1.690   4.521   2.209  0.1768  0.2133  0.2175
 6493TIP3    H140970   1.710   4.572   2.287 -0.2646  2.2300 -0.9080
 6493TIP3    H240971   1.774   4.484   2.181 -0.0041 -2.7554  2.9804
 6494TIP3   OH240972   1.217   2.764   1.441  0.1078  0.5288  0.2545
 6494TIP3    H140973   1.200   2.704   1.513 -0.6502  0.3193 -0.0879
 6494TIP3    H240974   1.204   2.711   1.362 -0.4294  1.1047 -0.0504
 6495TIP3   OH240975   0.543   0.499  12.393  0.1517 -0.0370  0.9535
 6495TIP3    H140976   0.615   0.556  12.418  0.0582  0.6857 -0.3680
 6495TIP3    H240977   0.510   0.535  12.310 -0.8219 -1.1718  0.8120
 6496TIP3   OH240978   6.840   0.670   4.201  0.1779  0.3661 -0.3502
 6496TIP3    H140979   6.843   0.765   4.202  0.4703  0.3570 -0.0877
 6496TIP3    H240980   6.779   0.648   4.130  1.9129  0.7090 -2.0182
 6497TIP3   OH240981   3.989   4.042  14.270 -0.0263 -0.2658 -0.2788
 6497TIP3    H140982   3.900   4.014  14.289  0.5128 -1.6614  0.2804
 6497TIP3    H240983   3.998   4.126  14.316 -1.1144  0.0382 -0.5753
 6498TIP3   OH240984   1.587   5.755  10.957  0.1629  0.0361  0.5377
 6498TIP3    H140985   1.593   5.843  10.921 -1.9264 -0.6770 -1.8983
 6498TIP3    H240986   1.528   5.709  10.898 -0.8042 -2.3207  3.0855
 6499TIP3   OH240987   6.498   6.605  15.767  0.4380 -0.0181 -1.1714
 6499TIP3    H140988   6.404   6.620  15.758  0.4732  0.3231 -1.0037
 6499TIP3    H240989   6.505   6.527  15.821  0.2392  1.3402  0.9491
 6500TIP3   OH240990   1.628   3.256  15.250  0.1455 -0.3500  0.4714
 6500TIP3    H140991   1.710   3.217  15.220 -0.4942 -0.9324 -0.6042
 6500TIP3    H240992   1.591   3.192  15.310 -0.2200 -0.7861 -0.1988
 6501TIP3   OH240993   4.151   3.637   5.875  0.4342  0.7676  0.6122
 6501TIP3    H140994   4.101   3.556   5.890 -0.0022  0.9708  0.2804
 6501TIP3    H240995   4.098   3.686   5.812  1.0477  1.0021  0.2723
 6502TIP3   OH240996   6.440   2.763   4.578  0.3694 -0.0991  1.1741
 6502TIP3    H140997   6.451   2.746   4.672 -0.1980 -0.1840  1.2294
 6502TIP3    H240998   6.410   2.680   4.542 -0.8440  0.3128  1.1716
 6503TIP3   OH240999   0.176   1.240  14.793  0.8454  0.1279 -0.0698
 6503TIP3    H141000   0.087   1.215  14.767  1.2959 -1.3842 -0.2740
 6503TIP3    H241001   0.229   1.163  14.773  2.4097  1.3836 -0.9616
 6504TIP3   OH241002   6.373   1.522   2.260 -0.5856  0.2589 -0.0036
 6504TIP3    H141003   6.444   1.462   2.282 -0.1510  1.2985  1.6019
 6504TIP3    H241004   6.390   1.546   2.169  0.7405 -0.0307  0.1407
 6505TIP3   OH241005   6.625   6.241   4.476  0.4476 -0.4268  0.3214
 6505TIP3    H141006   6.535   6.247   4.506  0.2567 -0.5277 -0.2304
 6505TIP3    H241007   6.675   6.292   4.540 -0.5202  3.1629 -1.5001
 6506TIP3   OH241008   2.486   1.393   5.339  0.0357 -0.2391  0.3155
 6506TIP3    H141009   2.392   1.407   5.329 -0.1545 -2.3361 -1.7640
 6506TIP3    H241010   2.512   1.452   5.410 -2.3784  2.1806 -0.6565
 6507TIP3   OH241011   5.932   4.823   3.997  0.2526  0.1736 -0.1912
 6507TIP3    H141012   5.921   4.841   3.904  0.8999 -0.8350 -0.4756
 6507TIP3    H241013   5.934   4.910   4.038 -0.6623  0.6052 -1.0327
 6508TIP3   OH241014   6.757   3.294   3.220 -0.1828 -0.1457 -0.1251
 6508TIP3    H141015   6.740   3.337   3.304 -0.8063 -0.8368  0.1075
 6508TIP3    H241016   6.801   3.212   3.243  0.2089 -0.0485 -0.5160
 6509TIP3   OH241017   5.096   3.711   5.565  0.5220 -0.4674 -0.7370
 6509TIP3    H141018   5.132   3.636   5.611  0.3233 -0.8336 -1.1778
 6509TIP3    H241019   5.056   3.765   5.634  0.5956 -0.8051 -0.4322
 6510TIP3   OH241020   6.048   3.327   0.722  0.2123 -0.3027 -0.3835
 6510TIP3    H141021   6.036   3.303   0.630 -1.9675 -0.1532 -0.1939
 6510TIP3    H241022   5.988   3.401   0.735  0.9126  0.0537  1.0263
 6511TIP3   OH241023   5.556   0.811  13.195 -0.2276 -0.8539 -0.0981
 6511TIP3    H141024   5.520   0.725  13.218 -0.4103 -0.8723 -0.4422
 6511TIP3    H241025   5.489   0.873  13.224  0.5342 -0.7324  1.4379
 6512TIP3   OH241026   3.603   0.168   2.547 -0.1751  0.1793 -0.4363
 6512TIP3    H141027   3.519   0.122   2.541  0.5856 -1.6944  1.6695
 6512TIP3    H241028   3.635   0.171   2.457 -2.2204  0.4614 -1.2165
 6513TIP3   OH241029   0.893   4.752  12.152 -0.4523 -0.1069 -0.0936
 6513TIP3    H141030   0.822   4.698  12.186 -0.7390 -0.7174 -1.5798
 6513TIP3    H241031   0.958   4.690  12.119  1.5785  0.3910  2.6313
 6514TIP3   OH241032   5.258   2.546   2.945 -0.6262 -0.3218  0.0222
 6514TIP3    H141033   5.269   2.638   2.968  2.6186 -0.2110 -1.3252
 6514TIP3    H241034   5.302   2.537   2.860  0.4796 -3.3460  0.7647
 6515TIP3   OH241035   1.826   0.940   5.357  0.4499 -0.3472  0.4491
 6515TIP3    H141036   1.842   0.885   5.280  0.2346  0.3262 -0.0881
 6515TIP3    H241037   1.831   1.030   5.324  1.0676 -0.0318  1.3667
 6516TIP3   OH241038   2.067   5.840  15.245  0.0627  0.0086  0.2387
 6516TIP3    H141039   2.094   5.931  15.234  3.0266 -0.8322 -0.4226
 6516TIP3    H241040   2.059   5.829  15.340  0.9807  0.6590  0.4033
 6517TIP3   OH241041   2.981   0.480   2.479  0.2011 -0.4111  0.2369
 6517TIP3    H141042   3.030   0.560   2.460  3.9775 -1.8407  2.8054
 6517TIP3    H241043   2.926   0.502   2.554  1.3976 -0.2135  1.0785
 6518TIP3   OH241044   5.901   3.105   4.813 -0.1955  0.1969 -0.1099
 6518TIP3    H141045   5.923   3.115   4.720 -1.1177 -0.2927 -0.4026
 6518TIP3    H241046   5.922   3.014   4.833  1.5826  0.7353  0.6352
 6519TIP3   OH241047   1.106   1.125  12.815  0.3964  0.1947  0.5731
 6519TIP3    H141048   1.060   1.194  12.863  0.1420 -0.1486  0.8293
 6519TIP3    H241049   1.036   1.075  12.773  0.5082 -0.4873  1.1779
 6520TIP3   OH241050   3.377   3.576   3.821  0.0249  0.3688  0.4364
 6520TIP3    H141051   3.332   3.494   3.839 -1.6483  0.5864 -2.1579
 6520TIP3    H241052   3.448   3.551   3.761  0.5551  0.6209  0.9496
 6521TIP3   OH241053   1.259   6.837  16.206  0.2180  0.2638  0.0957
 6521TIP3    H141054   1.243   6.746  16.232 -0.0116  0.0590 -0.7036
 6521TIP3    H241055   1.304   6.830  16.122  1.7031  0.8887  0.8112
 6522TIP3   OH241056   1.956   2.634  15.241 -0.3439  0.3518  0.0118
 6522TIP3    H141057   1.949   2.558  15.298  0.4816  0.3261  0.0958
 6522TIP3    H241058   1.963   2.708  15.301  1.9168  0.2058  0.0154
 6523TIP3   OH241059   5.843   1.440   5.123  0.8956  0.7632  0.8379
 6523TIP3    H141060   5.814   1.349   5.120 -0.5092  1.1947 -0.5482
 6523TIP3    H241061   5.862   1.456   5.215  4.0948 -1.7306  0.7736
 6524TIP3   OH241062   4.834   2.550  16.987 -0.4972 -0.4933 -0.2290
 6524TIP3    H141063   4.753   2.595  17.012  0.6473  0.2850  2.4366
 6524TIP3    H241064   4.822   2.460  17.019 -0.5582 -0.5400 -0.3849
 6525TIP3   OH241065   5.952   0.201   2.549 -0.3070 -0.1795 -0.1673
 6525TIP3    H141066   5.947   0.229   2.457  2.1183  0.7516 -0.1041
 6525TIP3    H241067   5.926   0.278   2.599  2.8889  0.9769 -0.0675
 6526TIP3   OH241068   5.433   4.118  11.874  0.2014  0.2543  0.6815
 6526TIP3    H141069   5.354   4.071  11.847  0.7670 -0.3372  0.0326
 6526TIP3    H241070   5.405   4.209  11.883 -0.6344 -0.0055  0.8103
 6527TIP3   OH241071   1.836   1.441   0.807  0.1564  0.1596  0.0790
 6527TIP3    H141072   1.863   1.514   0.752  1.7594 -0.1131  0.4702
 6527TIP3    H241073   1.791   1.481   0.881 -0.6357  0.6156 -0.6334
 6528TIP3   OH241074   0.912   6.249  16.531 -0.0956  0.1552  0.7473
 6528TIP3    H141075   0.864   6.179  16.487  1.9170 -0.1733 -1.0617
 6528TIP3    H241076   0.941   6.210  16.613  0.9451 -1.1697 -0.2138
 6529TIP3   OH241077   4.954   6.191  13.945 -0.3655  0.5139  0.2990
 6529TIP3    H141078   4.900   6.251  13.894  0.2117  1.2961  0.5882
 6529TIP3    H241079   5.010   6.248  13.998  0.1257 -0.2805  0.6568
 6530TIP3   OH241080   6.557   3.078   3.540  0.1124 -0.0235  0.2877
 6530TIP3    H141081   6.551   3.127   3.458 -0.2338 -1.8526 -0.8205
 6530TIP3    H241082   6.635   3.024   3.530 -1.8034 -2.8592 -0.3789
 6531TIP3   OH241083   4.250   3.499   6.436 -0.1397  0.4522 -0.1579
 6531TIP3    H141084   4.197   3.556   6.379  0.3645 -0.5441 -1.6914
 6531TIP3    H241085   4.340   3.520   6.413  0.1122  1.0336  1.3211
 6532TIP3   OH241086   0.436   3.028  13.793 -0.2753 -0.4719 -0.2112
 6532TIP3    H141087   0.358   3.085  13.796 -0.5824 -0.8170 -1.1407
 6532TIP3    H241088   0.402   2.943  13.767  0.5934 -0.1960 -2.5417
 6533TIP3   OH241089   6.263   0.182  13.626  0.0297 -0.6222  0.2460
 6533TIP3    H141090   6.294   0.245  13.691 -1.7266  2.0161 -1.2688
 6533TIP3    H241091   6.293   0.218  13.542 -2.1467 -1.0468 -0.7792
 6534TIP3   OH241092   3.203   2.475  14.990 -0.3284 -0.0662  0.1819
 6534TIP3    H141093   3.263   2.549  15.003  1.5712 -1.6564  0.9558
 6534TIP3    H241094   3.214   2.421  15.068 -1.8545 -1.0845 -0.2565
 6535TIP3   OH241095   2.689   0.455   0.664 -0.6157 -0.6294 -0.3012
 6535TIP3    H141096   2.758   0.448   0.598 -0.7708  0.8305 -0.6488
 6535TIP3    H241097   2.690   0.547   0.690  0.5986 -1.4100  3.0000
 6536TIP3   OH241098   3.161   5.419   3.038 -0.3586 -0.2508  0.9531
 6536TIP3    H141099   3.208   5.395   2.958 -1.0310  0.6617  0.2660
 6536TIP3    H241100   3.229   5.429   3.104  0.3489  0.3455  0.1536
 6537TIP3   OH241101   3.878   3.943  12.367 -0.0147 -0.1600  0.2361
 6537TIP3    H141102   3.838   3.925  12.282 -0.6166 -1.5336  0.7848
 6537TIP3    H241103   3.972   3.937  12.351 -0.1318 -0.6141 -0.2892
 6538TIP3   OH241104   1.595   0.610   3.990  0.1700  0.1690 -0.0548
 6538TIP3    H141105   1.502   0.612   3.966  0.3457 -2.1803 -1.1725
 6538TIP3    H241106   1.597   0.641   4.080 -1.3099  3.0415 -0.8758
 6539TIP3   OH241107   1.731   3.225   3.901 -0.2942  0.9204 -0.4202
 6539TIP3    H141108   1.769   3.190   3.820  0.4207 -1.2139  0.7530
 6539TIP3    H241109   1.807   3.248   3.955 -0.6948  0.1374  0.5059
 6540TIP3   OH241110   4.211   2.148   4.933 -0.6968  0.2590  1.0928
 6540TIP3    H141111   4.304   2.128   4.945 -0.6936 -0.0276  0.6328
 6540TIP3    H241112   4.166   2.091   4.996 -0.6362 -0.6284  0.3545
 6541TIP3   OH241113   1.959   4.990  11.098  0.1578 -0.5844 -0.1154
 6541TIP3    H141114   1.942   4.914  11.043 -2.0072 -0.7433  0.6494
 6541TIP3    H241115   1.891   5.053  11.073 -0.2451 -0.2795  1.6298
 6542TIP3   OH241116   5.220   1.658  16.641 -0.0247  0.1410 -0.5748
 6542TIP3    H141117   5.161   1.612  16.701 -0.4031  0.5014 -0.6709
 6542TIP3    H241118   5.217   1.749  16.670  0.7175  0.1112 -0.3908
 6543TIP3   OH241119   0.401   5.480  13.471 -0.0995 -0.1723 -0.2815
 6543TIP3    H141120   0.422   5.548  13.536  2.2390 -0.4106 -0.6865
 6543TIP3    H241121   0.484   5.464  13.426 -1.1262 -1.6898 -1.7590
 6544TIP3   OH241122   5.744   6.017  17.009 -0.7128  0.1949 -0.0721
 6544TIP3    H141123   5.795   6.050  16.935 -0.4482 -0.8658 -0.3774
 6544TIP3    H241124   5.679   6.085  17.025  0.0608  1.0411 -0.4285
 6545TIP3   OH241125   4.846   4.685  11.082 -0.3884 -0.6032  0.0507
 6545TIP3    H141126   4.819   4.776  11.076  0.1630 -0.3081  1.6772
 6545TIP3    H241127   4.773   4.636  11.043 -1.0237  0.4707 -0.1511
 6546TIP3   OH241128   2.487   5.939  11.844 -0.6516 -0.1108  0.2028
 6546TIP3    H141129   2.451   5.886  11.773 -1.1314  1.1358 -0.5032
 6546TIP3    H241130   2.582   5.926  11.839 -0.4904  1.5106 -1.9612
 6547TIP3   OH241131   1.164   2.956   5.117 -0.6658  0.0609  0.0006
 6547TIP3    H141132   1.193   2.998   5.198  0.7838 -0.0539 -0.4251
 6547TIP3    H241133   1.169   3.026   5.051 -2.5690  0.3583  0.1196
 6548TIP3   OH241134   0.307   6.633   2.964  0.0017  0.4601  0.5320
 6548TIP3    H141135   0.291   6.618   3.057  0.8969 -0.8931  0.4989
 6548TIP3    H241136   0.399   6.612   2.952 -0.0442  0.8513 -0.6207
 6549TIP3   OH241137   2.151   0.168  14.218 -0.1824 -0.1421 -0.2884
 6549TIP3    H141138   2.092   0.110  14.171 -0.5517 -1.1701  1.3582
 6549TIP3    H241139   2.156   0.247  14.163 -0.0190 -1.5197 -2.3423
 6550TIP3   OH241140   3.651   1.202  12.468  0.6794  0.4574  0.1025
 6550TIP3    H141141   3.661   1.297  12.456  0.1601  0.8845  2.4759
 6550TIP3    H241142   3.722   1.178  12.528  0.7976 -0.6686 -0.4616
 6551TIP3   OH241143   3.281   5.070  14.895 -0.1304 -0.5800  0.7048
 6551TIP3    H141144   3.310   5.140  14.837  1.1064  0.2269  2.2266
 6551TIP3    H241145   3.274   4.993  14.838 -0.6893  0.5522 -0.8302
 6552TIP3   OH241146   2.399   1.333   2.558 -0.3317  0.4204  0.3125
 6552TIP3    H141147   2.484   1.357   2.597  0.1725  1.8879 -1.5457
 6552TIP3    H241148   2.361   1.416   2.531 -3.5154  0.0750  3.1104
 6553TIP3   OH241149   1.911   0.249   1.956  0.1194  0.2569 -0.2917
 6553TIP3    H141150   1.995   0.258   2.000 -1.1021 -0.1059  2.3275
 6553TIP3    H241151   1.890   0.156   1.964 -0.6579  0.3901 -0.6989
 6554TIP3   OH241152   4.879   4.730   0.345  0.6993  0.2014 -0.1510
 6554TIP3    H141153   4.968   4.708   0.320  0.5060 -0.3757 -0.3434
 6554TIP3    H241154   4.829   4.727   0.264  0.2310 -0.8675  0.1593
 6555TIP3   OH241155   0.269   6.103   1.854 -0.4284  0.2441  0.8077
 6555TIP3    H141156   0.351   6.144   1.826 -1.1124  0.8348 -0.4150
 6555TIP3    H241157   0.247   6.147   1.936 -0.1024  0.8838  0.5592
 6556TIP3   OH241158   1.422   2.154   3.685 -0.3508  0.8402 -0.2785
 6556TIP3    H141159   1.479   2.078   3.671 -0.8432  0.1525  1.1905
 6556TIP3    H241160   1.450   2.190   3.769 -0.0606  2.3706 -1.0033
 6557TIP3   OH241161   3.560   2.961  13.977 -0.3909 -0.4509 -0.8748
 6557TIP3    H141162   3.508   3.012  14.038  0.9933 -1.2631  1.0713
 6557TIP3    H241163   3.636   2.932  14.027  0.1396 -2.3150 -2.5817
 6558TIP3   OH241164   2.399   2.685   5.175  0.8524  0.4790 -0.5497
 6558TIP3    H141165   2.340   2.743   5.126 -0.2000  2.3204  2.5401
 6558TIP3    H241166   2.360   2.598   5.166  0.4982  0.8001 -2.5377
 6559TIP3   OH241167   3.916   4.348   6.337 -0.3532  0.2361  0.3642
 6559TIP3    H141168   3.967   4.375   6.261  0.6953  0.2585  1.0533
 6559TIP3    H241169   3.955   4.397   6.410 -1.6368  0.5712  0.8444
 6560TIP3   OH241170   1.242   2.550  12.457 -0.1175 -0.8970  0.4829
 6560TIP3    H141171   1.254   2.549  12.362 -0.9799 -0.8348  0.3641
 6560TIP3    H241172   1.310   2.490  12.490  0.9169 -0.0583 -0.0644
 6561TIP3   OH241173   5.915   1.452  16.124  0.3334 -0.1449  0.0623
 6561TIP3    H141174   5.981   1.452  16.193 -0.5052 -1.5886  0.9099
 6561TIP3    H241175   5.948   1.390  16.059 -0.2926 -1.0756  0.6163
 6562TIP3   OH241176   0.745   1.073  14.794 -0.0048  0.5413  0.0879
 6562TIP3    H141177   0.814   1.011  14.770  0.0204  1.2533 -1.9400
 6562TIP3    H241178   0.730   1.059  14.887 -0.6111 -3.0833 -0.4360
 6563TIP3   OH241179   3.518   6.813   6.633  0.1076 -0.0304 -0.1735
 6563TIP3    H141180   3.424   6.814   6.651  0.3468 -0.0191  1.1826
 6563TIP3    H241181   3.540   6.720   6.629  0.1910 -0.0376  0.4005
 6564TIP3   OH241182   4.527   2.297  16.830 -0.2038  0.6947 -0.0118
 6564TIP3    H141183   4.485   2.212  16.843  0.4204  0.2151 -0.9694
 6564TIP3    H241184   4.618   2.283  16.857  0.3368  0.5386 -1.7839
 6565TIP3   OH241185   5.303   0.624   1.128 -0.4768  0.3260  0.0808
 6565TIP3    H141186   5.392   0.658   1.115 -0.0053 -0.7364  0.4549
 6565TIP3    H241187   5.261   0.688   1.185 -0.2121  1.2368 -0.7139
 6566TIP3   OH241188   6.534   4.085  12.701 -0.4311 -0.4275  0.0508
 6566TIP3    H141189   6.575   4.169  12.684  1.5149 -1.2672  0.2575
 6566TIP3    H241190   6.586   4.022  12.650 -0.9034 -1.6614  1.0260
 6567TIP3   OH241191   5.116   3.279   2.103  0.3129 -0.4779 -0.5351
 6567TIP3    H141192   5.090   3.323   2.023  1.0012 -0.0968 -0.5582
 6567TIP3    H241193   5.097   3.342   2.173  2.2919  0.3445 -0.6603
 6568TIP3   OH241194   2.582   0.435  10.582  0.2233  0.5818  0.1905
 6568TIP3    H141195   2.661   0.487  10.567 -0.0809  0.8869 -0.3801
 6568TIP3    H241196   2.591   0.360  10.522  0.3578  0.3023  0.5533
 6569TIP3   OH241197   6.404   6.633   4.111  0.3861  0.2055  0.0666
 6569TIP3    H141198   6.429   6.631   4.203 -0.8599  0.7823  0.4354
 6569TIP3    H241199   6.393   6.540   4.087  0.1238  0.0773  0.6683
 6570TIP3   OH241200   6.854   6.442  10.530 -0.2500  0.2125  0.2920
 6570TIP3    H141201   6.787   6.440  10.599 -0.4945 -0.3922  0.0461
 6570TIP3    H241202   6.860   6.352  10.500 -0.8605  0.6143 -1.1588
 6571TIP3   OH241203   6.250   0.480  13.177  0.1986 -0.1136  0.1577
 6571TIP3    H141204   6.180   0.446  13.233 -0.7922  0.4779 -0.6887
 6571TIP3    H241205   6.279   0.560  13.222 -0.3131  0.1433  0.0320
 6572TIP3   OH241206   3.191   2.120   2.090 -0.1812  0.1694  0.6500
 6572TIP3    H141207   3.174   2.065   2.167  2.0878  0.2032  1.2566
 6572TIP3    H241208   3.160   2.207   2.115  0.4921  0.1682  1.5332
 6573TIP3   OH241209   4.031   1.781  12.168  0.2199  0.9761 -0.1211
 6573TIP3    H141210   3.991   1.713  12.114  2.5272 -1.0779  0.5726
 6573TIP3    H241211   3.971   1.790  12.242  0.9196 -2.0868  0.9663
 6574TIP3   OH241212   0.373   3.498  15.691 -0.4746  0.4906 -0.2688
 6574TIP3    H141213   0.423   3.573  15.724 -0.8066  0.5397  0.1235
 6574TIP3    H241214   0.434   3.425  15.693 -0.3130  0.6293 -0.1381
 6575TIP3   OH241215   4.002   0.684   0.544 -0.0642  0.4990  0.0179
 6575TIP3    H141216   4.029   0.773   0.563 -0.0761  0.7646 -1.1635
 6575TIP3    H241217   3.917   0.692   0.502  0.0848 -0.0487 -0.4040
 6576TIP3   OH241218   2.581   3.534  15.351  0.7413  0.3696 -0.2311
 6576TIP3    H141219   2.588   3.555  15.444 -4.3682 -2.5747  1.2275
 6576TIP3    H241220   2.553   3.616  15.310 -1.1608  0.8384  1.7834
 6577TIP3   OH241221   0.652   4.758  10.174  0.0968 -0.2601 -0.5578
 6577TIP3    H141222   0.691   4.771  10.260 -1.0919  0.1096 -0.0618
 6577TIP3    H241223   0.621   4.845  10.148 -1.6544 -0.7726 -0.3057
 6578TIP3   OH241224   5.558   4.312  13.314 -0.5277 -0.4736  0.3479
 6578TIP3    H141225   5.521   4.398  13.294 -1.3180 -0.9044 -0.0927
 6578TIP3    H241226   5.640   4.308  13.265 -0.4151  0.0871  0.4938
 6579TIP3   OH241227   3.644   2.096   1.987 -0.3830  0.6643  0.4357
 6579TIP3    H141228   3.661   2.186   1.962  3.1132 -0.0262 -0.2527
 6579TIP3    H241229   3.657   2.045   1.907  2.8612 -0.8036  1.6773
 6580TIP3   OH241230   5.050   4.902   6.438 -0.7007 -0.3577  0.4028
 6580TIP3    H141231   5.105   4.944   6.372 -1.0029  0.6682  0.7861
 6580TIP3    H241232   4.980   4.861   6.388 -1.1939  0.8122  0.1029
 6581TIP3   OH241233   1.625   6.685   2.549  0.0465  0.1125 -0.5382
 6581TIP3    H141234   1.622   6.654   2.458 -2.0650 -1.3183 -0.0645
 6581TIP3    H241235   1.639   6.605   2.600  0.8752  0.8565  0.4169
 6582TIP3   OH241236   0.963   2.734  16.438 -0.5922 -0.0976 -0.7660
 6582TIP3    H141237   0.918   2.805  16.484  2.1332  0.6590  0.9601
 6582TIP3    H241238   0.961   2.661  16.499 -0.3871 -0.3809 -1.0952
 6583TIP3   OH241239   0.627   4.037   0.595 -0.1527 -0.1272  0.5112
 6583TIP3    H141240   0.534   4.028   0.572 -0.4873  1.6915  0.9434
 6583TIP3    H241241   0.674   3.986   0.528 -1.3456  0.9040 -1.2000
 6584TIP3   OH241242   5.941   1.259   5.743 -0.7339 -0.0151 -0.3689
 6584TIP3    H141243   5.853   1.274   5.709 -0.6752 -0.9933 -1.0291
 6584TIP3    H241244   5.984   1.344   5.737 -1.3586  0.2784 -0.8776
 6585TIP3   OH241245   2.922   1.632  16.659  0.6215 -0.4068 -0.5687
 6585TIP3    H141246   2.910   1.560  16.720  2.4689 -0.3112 -0.0380
 6585TIP3    H241247   2.864   1.612  16.586 -0.8637 -1.0416  0.7466
 6586TIP3   OH241248   0.208   5.616  16.802 -0.5968  0.6126  0.1820
 6586TIP3    H141249   0.169   5.532  16.777 -1.6274  1.0135  0.3984
 6586TIP3    H241250   0.176   5.678  16.737 -0.2314  0.9383  0.3077
 6587TIP3   OH241251   1.804   4.411  14.955  0.2812 -0.2849  0.1601
 6587TIP3    H141252   1.872   4.431  15.021  0.8334 -0.2261 -0.4143
 6587TIP3    H241253   1.852   4.369  14.884 -0.3999 -0.8504  0.0241
 6588TIP3   OH241254   5.683   1.669  15.940  0.0157  0.0297 -0.2844
 6588TIP3    H141255   5.757   1.633  15.989 -0.9104 -0.1354  1.0548
 6588TIP3    H241256   5.718   1.747  15.898  0.7245  0.5066  1.1244
 6589TIP3   OH241257   6.409   2.801   1.597 -0.2129  0.1845  0.2894
 6589TIP3    H141258   6.409   2.802   1.693  0.7280 -2.3221  0.3745
 6589TIP3    H241259   6.318   2.785   1.573 -0.3531  0.2559  0.7722
 6590TIP3   OH241260   1.840   0.760   4.943 -0.1795 -0.1374  0.0641
 6590TIP3    H141261   1.869   0.768   5.034  0.3782  2.1892 -0.2739
 6590TIP3    H241262   1.881   0.679   4.912  0.8821 -0.1419  1.4136
 6591TIP3   OH241263   2.556   3.022   2.199  0.5229  0.8107 -0.5913
 6591TIP3    H141264   2.474   3.047   2.157 -1.1222 -1.1867  1.2361
 6591TIP3    H241265   2.592   2.954   2.141 -0.1506  0.2629 -0.3764
 6592TIP3   OH241266   1.671   4.659  11.155  0.0301 -0.4465  0.4923
 6592TIP3    H141267   1.628   4.602  11.091  0.1775 -0.6825  0.6000
 6592TIP3    H241268   1.742   4.701  11.106  0.7168 -1.3162  0.7148
 6593TIP3   OH241269   6.833   1.804  12.890  0.1054  0.1686  0.3163
 6593TIP3    H141270   6.900   1.864  12.923  1.4888 -1.3470  0.3984
 6593TIP3    H241271   6.875   1.719  12.890 -1.3268 -0.6022 -1.1726
 6594TIP3   OH241272   1.573   5.806  15.611 -0.2628  0.0043 -0.1885
 6594TIP3    H141273   1.520   5.886  15.608  1.7653  1.5626  1.7615
 6594TIP3    H241274   1.647   5.829  15.668  0.5496 -3.2049  0.2269
 6595TIP3   OH241275   2.193   5.503  16.042  0.2630  0.1547 -0.9598
 6595TIP3    H141276   2.234   5.422  16.072 -1.7975 -2.6932 -4.8674
 6595TIP3    H241277   2.256   5.539  15.980 -0.4833 -0.8670 -2.3664
 6596TIP3   OH241278   4.367   1.826   3.352 -0.4748 -0.7951  0.6898
 6596TIP3    H141279   4.315   1.864   3.281  0.0584 -2.1759 -0.5067
 6596TIP3    H241280   4.434   1.774   3.307  1.6683  0.5150  2.1708
 6597TIP3   OH241281   4.395   5.408  16.179  0.1357  0.4303  0.4516
 6597TIP3    H141282   4.417   5.316  16.167  1.5994  0.8250 -0.1373
 6597TIP3    H241283   4.302   5.414  16.157  0.5624 -0.5123 -1.9137
 6598TIP3   OH241284   2.879   0.434   0.004  0.6498 -0.0674 -0.4259
 6598TIP3    H141285   2.872   0.494  -0.070 -1.7705 -0.4002 -0.5387
 6598TIP3    H241286   2.862   0.488   0.081 -1.2993 -0.4899 -0.5101
 6599TIP3   OH241287   4.183   1.255   3.407 -0.1745  0.1028  0.0871
 6599TIP3    H141288   4.142   1.341   3.396 -1.2066 -0.3021  0.6472
 6599TIP3    H241289   4.208   1.252   3.499  2.5365  0.9216 -0.5109
 6600TIP3   OH241290   1.929   6.612   1.415 -0.3927 -0.4050 -0.5722
 6600TIP3    H141291   1.949   6.596   1.507 -0.5108  0.3009 -0.4175
 6600TIP3    H241292   2.015   6.620   1.373 -0.2912 -2.4068 -0.8595
 6601TIP3   OH241293   5.035   1.638  15.616 -1.1746  0.2757  0.0145
 6601TIP3    H141294   5.123   1.602  15.623 -1.0432  0.9136  3.1993
 6601TIP3    H241295   4.995   1.620  15.700 -2.6252  3.5907  0.2055
 6602TIP3   OH241296   5.566   3.041  13.482  0.6800 -0.1452 -0.3014
 6602TIP3    H141297   5.611   3.088  13.553 -0.5697  1.8450 -0.7606
 6602TIP3    H241298   5.473   3.056  13.498  0.3768  0.7848 -2.6141
 6603TIP3   OH241299   6.688   2.095   5.860 -0.5110 -0.1342  0.1242
 6603TIP3    H141300   6.659   2.099   5.769  0.3041  1.2447 -0.1033
 6603TIP3    H241301   6.783   2.081   5.853 -0.1673  1.6581  0.6861
 6604TIP3   OH241302   2.594   6.769   0.698 -0.0438 -0.1733  0.4650
 6604TIP3    H141303   2.654   6.843   0.699  1.4220 -1.2882  2.5824
 6604TIP3    H241304   2.647   6.694   0.726 -2.2561 -1.3189  1.8972
 6605TIP3   OH241305   6.497   0.073   4.503 -0.2107  0.4174  0.1744
 6605TIP3    H141306   6.439   0.149   4.507 -0.0629  0.4986  1.0067
 6605TIP3    H241307   6.542   0.081   4.419 -1.7091  0.1119 -0.6824
 6606TIP3   OH241308   0.045   4.061  11.996 -0.5781  0.5192  0.4105
 6606TIP3    H141309   0.061   4.155  11.985 -1.4283  0.6751  0.4282
 6606TIP3    H241310   0.129   4.020  11.976 -0.5835  1.1797 -1.1463
 6607TIP3   OH241311   4.463   1.176  16.332  0.1017  0.3576 -0.1404
 6607TIP3    H141312   4.424   1.120  16.399 -0.0502 -1.4488 -1.6536
 6607TIP3    H241313   4.389   1.209  16.282  0.3131 -0.0334 -0.7171
 6608TIP3   OH241314   3.600   3.198   3.824  0.3842 -0.2216 -0.2917
 6608TIP3    H141315   3.520   3.241   3.855 -0.4051 -0.1509 -2.3107
 6608TIP3    H241316   3.587   3.106   3.847  1.4178  0.2517  2.6849
 6609TIP3   OH241317   6.746   5.182  14.281  0.8278 -0.2598  0.4967
 6609TIP3    H141318   6.778   5.094  14.260  0.8646  0.1824 -1.5235
 6609TIP3    H241319   6.653   5.170  14.298  0.5688 -0.5468 -1.0136
 6610TIP3   OH241320   4.244   1.266   2.115 -0.0825  0.0807 -0.7279
 6610TIP3    H141321   4.154   1.297   2.114 -0.3673 -0.7537 -1.2307
 6610TIP3    H241322   4.262   1.250   2.208 -0.2210  0.8732 -0.5547
 6611TIP3   OH241323   4.991   3.130  15.668 -0.3246 -0.1380 -0.7116
 6611TIP3    H141324   4.993   3.197  15.735 -0.7471 -0.2385 -0.5955
 6611TIP3    H241325   4.989   3.178  15.585 -0.5449 -0.0083 -0.6309
 6612TIP3   OH241326   2.456   2.374  15.629  0.7175 -0.5279  0.3818
 6612TIP3    H141327   2.423   2.340  15.712  0.2313  0.4319  0.6011
 6612TIP3    H241328   2.517   2.308  15.598 -1.1014 -2.2000  0.1817
 6613TIP3   OH241329   2.870   2.693   2.639 -0.1014 -0.1131 -0.4690
 6613TIP3    H141330   2.916   2.717   2.719 -0.2284 -0.3115 -0.3353
 6613TIP3    H241331   2.887   2.599   2.629 -0.8103 -0.2756 -0.1988
 6614TIP3   OH241332   3.891   3.579  11.128  0.3593  0.2854  0.2017
 6614TIP3    H141333   3.861   3.669  11.116  0.2498  0.2386  0.1270
 6614TIP3    H241334   3.956   3.566  11.060 -0.7375 -0.1992 -0.7777
 6615TIP3   OH241335   6.627   1.419   3.048  0.9517  0.3503 -0.0348
 6615TIP3    H141336   6.534   1.441   3.041  1.0545  0.8745  0.2653
 6615TIP3    H241337   6.661   1.429   2.959  0.5067 -0.8351 -0.3582
 6616TIP3   OH241338   6.391   0.237   4.906 -0.1348  0.8662 -0.0093
 6616TIP3    H141339   6.477   0.202   4.883 -0.0415  0.2848  1.1651
 6616TIP3    H241340   6.337   0.218   4.829  0.2979 -0.5213 -0.0013
 6617TIP3   OH241341   2.013   1.507   2.582 -0.2115 -0.6771 -0.3163
 6617TIP3    H141342   2.109   1.506   2.584 -0.1872 -1.1756 -1.2466
 6617TIP3    H241343   1.987   1.442   2.646  0.0870 -1.0421 -0.5620
 6618TIP3   OH241344   4.073   3.539  12.097  0.5319 -0.3230 -0.4361
 6618TIP3    H141345   4.038   3.564  12.183  1.0795 -0.8894 -0.0458
 6618TIP3    H241346   4.162   3.575  12.097  0.3606  0.1160 -0.9757
 6619TIP3   OH241347   1.019   1.859  12.647 -0.1196  0.3240  0.2791
 6619TIP3    H141348   1.088   1.793  12.647  0.9563  1.3248  2.3725
 6619TIP3    H241349   1.049   1.925  12.711 -2.6846  1.1514  0.7658
 6620TIP3   OH241350   0.365   1.008  16.296 -0.4118  0.5945 -0.5021
 6620TIP3    H141351   0.391   1.084  16.242  1.7550  0.5358  0.3744
 6620TIP3    H241352   0.438   0.995  16.356  0.3149 -3.4784 -1.9489
 6621TIP3   OH241353   3.871   4.133  16.229  0.1966 -0.4243  0.0389
 6621TIP3    H141354   3.952   4.128  16.279  0.5535  0.1840 -0.4586
 6621TIP3    H241355   3.803   4.100  16.288  0.6086  0.2674  0.9083
 6622TIP3   OH241356   0.380   4.374  12.233 -0.7983  0.5327  0.2143
 6622TIP3    H141357   0.397   4.323  12.154 -0.1740  1.3212 -0.1756
 6622TIP3    H241358   0.285   4.369  12.245 -0.6609 -1.4267  0.6938
 6623TIP3   OH241359   3.901   2.850   0.677 -0.4694 -0.1826 -0.5213
 6623TIP3    H141360   3.962   2.820   0.610 -0.5442 -0.6198 -0.3971
 6623TIP3    H241361   3.885   2.942   0.656 -0.2791 -0.2452 -0.9415
 6624TIP3   OH241362   0.160   6.117  14.277 -0.2063 -0.4112  0.8060
 6624TIP3    H141363   0.073   6.155  14.288  0.2631  0.3766  2.0303
 6624TIP3    H241364   0.157   6.034  14.324 -0.2466 -0.2917  1.0153
 6625TIP3   OH241365   2.138   1.687  11.288  0.3422 -0.1613 -0.0415
 6625TIP3    H141366   2.156   1.614  11.228 -1.2400 -1.0690  0.5174
 6625TIP3    H241367   2.154   1.650  11.375 -2.0174 -0.4239  0.3605
 6626TIP3   OH241368   1.095   0.726  13.022  0.4079 -0.1349  0.2095
 6626TIP3    H141369   1.102   0.740  12.928 -1.8805  2.6135  0.3102
 6626TIP3    H241370   1.001   0.722  13.039  0.7815 -1.3884  2.3183
 6627TIP3   OH241371   3.724   5.819   0.220 -0.0836  0.5436 -0.7577
 6627TIP3    H141372   3.805   5.785   0.259  0.4379  1.9609 -0.5429
 6627TIP3    H241373   3.751   5.900   0.177 -0.9853 -0.0498 -2.5503
 6628TIP3   OH241374   4.838   0.682  13.717  0.3651  0.0629  0.4008
 6628TIP3    H141375   4.781   0.742  13.669 -0.0623 -0.5989  0.0597
 6628TIP3    H241376   4.808   0.688  13.808  0.1452  0.1636  0.3217
 6629TIP3   OH241377   2.330   6.302   3.498 -0.1897  0.2804  0.2215
 6629TIP3    H141378   2.276   6.335   3.426 -0.4723 -0.7830 -0.0769
 6629TIP3    H241379   2.420   6.321   3.471 -0.2168 -1.0968 -0.9630
 6630TIP3   OH241380   6.150   2.734  14.769  1.1607 -0.6105 -0.2103
 6630TIP3    H141381   6.235   2.694  14.790  1.7773  0.7184 -0.0676
 6630TIP3    H241382   6.088   2.689  14.826  2.4397  1.2571  2.9213
 6631TIP3   OH241383   3.507   5.023   6.227 -0.4804 -0.2225  0.1264
 6631TIP3    H141384   3.546   5.109   6.214 -2.9362  0.7403 -1.7090
 6631TIP3    H241385   3.529   5.000   6.317  0.2962  2.2832  0.6497
 6632TIP3   OH241386   0.734   0.986   1.893  0.1781  0.3190 -0.1342
 6632TIP3    H141387   0.827   0.971   1.908  0.2909  1.1251  0.0469
 6632TIP3    H241388   0.694   0.983   1.980  0.2491  1.2894 -0.0582
 6633TIP3   OH241389   5.284   1.764  14.613  0.4829  0.0254 -0.0449
 6633TIP3    H141390   5.213   1.769  14.678  0.3503  0.0890 -0.1935
 6633TIP3    H241391   5.346   1.832  14.640 -1.4462  2.8812 -2.2251
 6634TIP3   OH241392   4.300   4.471  13.003 -0.2464 -0.2138 -0.0370
 6634TIP3    H141393   4.313   4.495  13.094 -0.8910  2.5741 -0.5969
 6634TIP3    H241394   4.381   4.497  12.959 -0.7095  0.3647 -0.5746
 6635TIP3   OH241395   2.537   1.112   5.393  0.3366 -0.0658 -0.5868
 6635TIP3    H141396   2.463   1.112   5.453  0.3741  2.3865 -0.4209
 6635TIP3    H241397   2.562   1.204   5.385  3.1767 -0.7410 -0.8991
 6636TIP3   OH241398   5.904   1.405   3.231 -0.7689 -0.3664 -0.4689
 6636TIP3    H141399   5.943   1.486   3.198 -1.1213 -0.5206 -1.2947
 6636TIP3    H241400   5.979   1.352   3.257 -0.5151  0.0600 -0.3290
 6637TIP3   OH241401   1.071   2.210  14.070 -0.0033 -0.1321  0.3603
 6637TIP3    H141402   1.073   2.147  14.142  2.2665  0.7444  1.1426
 6637TIP3    H241403   1.151   2.262  14.081 -0.4273  1.1060 -1.8432
 6638TIP3   OH241404   4.652   4.190  14.422  0.4976  0.6216  0.0034
 6638TIP3    H141405   4.618   4.107  14.389  0.7344 -0.0960  1.5053
 6638TIP3    H241406   4.740   4.169  14.454  0.2630  1.2819  1.1176
 6639TIP3   OH241407   4.179   5.934   3.272 -0.2134  0.4477  0.5179
 6639TIP3    H141408   4.234   5.929   3.350 -1.6637  0.7797  1.6156
 6639TIP3    H241409   4.108   5.993   3.297 -0.6276  0.6850 -1.1233
 6640TIP3   OH241410   1.188   2.602   1.635 -0.3534 -0.1671 -0.1212
 6640TIP3    H141411   1.176   2.507   1.624 -3.6106  0.1812 -0.6688
 6640TIP3    H241412   1.187   2.615   1.730 -0.1710 -0.6640 -0.0468
 6641TIP3   OH241413   4.815   5.174  13.024 -0.1970 -0.1122  0.0001
 6641TIP3    H141414   4.733   5.221  13.007  0.0374  0.3877  0.2353
 6641TIP3    H241415   4.884   5.237  13.003  0.1716 -0.9630 -1.4843
 6642TIP3   OH241416   3.616   0.724   0.113 -0.2868  0.0078 -0.5027
 6642TIP3    H141417   3.680   0.794   0.100 -1.6416  1.3760 -0.0831
 6642TIP3    H241418   3.621   0.704   0.206  1.6532 -2.0741 -0.9727
 6643TIP3   OH241419   1.653   4.327   5.249  0.0180 -0.0145  0.7965
 6643TIP3    H141420   1.698   4.380   5.315 -1.1856 -0.3459  1.9296
 6643TIP3    H241421   1.680   4.365   5.166  0.0239  1.7122  1.5362
 6644TIP3   OH241422   4.281   4.719   4.428 -0.0355 -0.0023 -0.7005
 6644TIP3    H141423   4.283   4.807   4.391  1.2211 -0.6920 -2.3927
 6644TIP3    H241424   4.356   4.715   4.487 -1.1876  0.6171  0.8909
 6645TIP3   OH241425   6.474   2.045  15.696 -0.3271 -0.2528  0.4474
 6645TIP3    H141426   6.434   2.082  15.618 -0.7603 -0.8528  0.3739
 6645TIP3    H241427   6.522   1.969  15.664 -0.6838 -0.6252  0.7861
 6646TIP3   OH241428   2.628   1.261   3.048  0.8039  0.0529  0.1679
 6646TIP3    H141429   2.618   1.166   3.045  0.4422  0.0985 -0.1164
 6646TIP3    H241430   2.700   1.276   3.109  0.1530 -0.3614  1.0583
 6647TIP3   OH241431   2.589   0.987   3.108  0.1471 -0.8377  0.1985
 6647TIP3    H141432   2.581   0.990   3.204  0.5623  0.0173  0.2195
 6647TIP3    H241433   2.672   0.943   3.093 -0.4485 -1.9987  0.1903
 6648TIP3   OH241434   4.500   4.986  11.838  0.4379 -0.8069  0.2614
 6648TIP3    H141435   4.455   4.905  11.861 -1.1682  0.1278  0.5866
 6648TIP3    H241436   4.447   5.025  11.769  1.5250 -0.3201 -0.3329
 6649TIP3   OH241437   0.394   1.185  12.736  0.0347  0.4856  0.0887
 6649TIP3    H141438   0.435   1.099  12.727 -0.2494  0.3439  0.1410
 6649TIP3    H241439   0.411   1.209  12.827 -1.5104 -0.3618  0.6419
 6650TIP3   OH241440   0.471   4.045  16.707 -0.1861  0.4117 -0.2126
 6650TIP3    H141441   0.411   4.061  16.633  0.8121  1.0766 -0.9067
 6650TIP3    H241442   0.509   4.130  16.725  0.7515 -0.0531  0.0365
 6651TIP3   OH241443   5.223   3.255   2.688 -0.1492 -0.1193  0.0424
 6651TIP3    H141444   5.159   3.187   2.710  0.8547 -1.2761 -0.4875
 6651TIP3    H241445   5.306   3.208   2.678  0.8989  1.4101  1.1695
 6652TIP3   OH241446   1.382   4.473   5.391  0.2155  0.0028 -0.1490
 6652TIP3    H141447   1.429   4.420   5.326 -1.3671 -0.4141 -1.0058
 6652TIP3    H241448   1.448   4.495   5.456  1.5179 -0.8186 -1.1433
 6653TIP3   OH241449   2.751   0.236  16.352  0.2039 -0.2269 -0.1329
 6653TIP3    H141450   2.746   0.330  16.334  2.2638 -0.0401 -0.0475
 6653TIP3    H241451   2.789   0.198  16.273  0.6388 -0.7742  0.3243
 6654TIP3   OH241452   1.226   5.685  11.617 -0.3661  0.2218 -0.3190
 6654TIP3    H141453   1.216   5.595  11.646  0.4076  0.3266  0.3202
 6654TIP3    H241454   1.307   5.685  11.564  0.0128  0.6577  0.2441
 6655TIP3   OH241455   4.264   4.650  14.140  0.7211  0.8876 -0.2822
 6655TIP3    H141456   4.179   4.654  14.096  1.0936 -0.5516 -1.2038
 6655TIP3    H241457   4.266   4.728  14.196 -2.1444 -0.1902  1.5336
 6656TIP3   OH241458   5.823   2.196   2.974  0.2077  0.2032 -0.1922
 6656TIP3    H141459   5.740   2.242   2.983  0.2014  0.0862  0.3900
 6656TIP3    H241460   5.855   2.187   3.064  0.5217 -0.3594 -0.3589
 6657TIP3   OH241461   3.385   4.590   1.263  0.0219 -0.2767 -0.3520
 6657TIP3    H141462   3.374   4.584   1.168 -1.4249  2.0026 -0.4181
 6657TIP3    H241463   3.333   4.518   1.298  2.2885 -2.4819 -1.2614
 6658TIP3   OH241464   5.790   4.671  12.927  0.5248  0.2781  0.3781
 6658TIP3    H141465   5.746   4.721  12.996 -0.7330 -0.3543  0.0705
 6658TIP3    H241466   5.733   4.681  12.850  1.3509  0.1011 -0.2766
 6659TIP3   OH241467   6.271   0.163   5.158  0.0543  0.4013 -0.7259
 6659TIP3    H141468   6.264   0.071   5.134  2.1766  0.5003 -2.0293
 6659TIP3    H241469   6.321   0.203   5.086  1.0549  2.1142  0.8181
 6660TIP3   OH241470   4.943   6.038   1.898 -0.4427  0.0609  0.0333
 6660TIP3    H141471   4.926   5.996   1.982  0.4597  0.0881  0.2476
 6660TIP3    H241472   4.893   5.987   1.835 -1.6422  0.4283  0.6580
 6661TIP3   OH241473   2.765   2.489  11.158 -0.4791  0.1334  0.2909
 6661TIP3    H141474   2.692   2.469  11.100 -0.7046  0.2569  0.5328
 6661TIP3    H241475   2.805   2.403  11.176 -0.4075  0.0953 -0.0430
 6662TIP3   OH241476   5.599   2.411   3.010 -0.4754  0.3907 -0.2557
 6662TIP3    H141477   5.642   2.497   3.005 -1.1898  0.8638  1.2059
 6662TIP3    H241478   5.526   2.418   2.948 -0.1972  0.6205 -0.5681
 6663TIP3   OH241479   2.380   1.839   4.586  0.2076 -0.3333  0.0553
 6663TIP3    H141480   2.420   1.919   4.550 -1.8940  1.5201  1.5365
 6663TIP3    H241481   2.404   1.840   4.679 -1.1805 -0.5018  0.4367
 6664TIP3   OH241482   4.532   3.382   2.028  0.5814  0.3162  0.0893
 6664TIP3    H141483   4.462   3.385   1.962  1.5661  0.8758 -0.9596
 6664TIP3    H241484   4.488   3.406   2.110 -0.9221 -1.5865 -0.0992
 6665TIP3   OH241485   2.812   0.367   0.377  0.4928 -0.0457  0.6173
 6665TIP3    H141486   2.903   0.384   0.350  0.2842 -0.0379 -0.1064
 6665TIP3    H241487   2.759   0.415   0.314 -0.1088 -3.0738 -1.3977
 6666TIP3   OH241488   4.438   4.121  13.479 -0.0753 -0.1541 -0.4419
 6666TIP3    H141489   4.409   4.092  13.392 -0.8373  0.7866 -0.5219
 6666TIP3    H241490   4.425   4.216  13.478  0.5061 -0.0542  0.4870
 6667TIP3   OH241491   6.009   4.224   0.644 -0.2018  0.5017  0.0147
 6667TIP3    H141492   5.973   4.143   0.608 -0.5316  0.7841 -0.2887
 6667TIP3    H241493   5.968   4.294   0.593 -0.3751  0.8867  0.6690
 6668TIP3   OH241494   2.872   6.531  14.394  0.6962  0.8903  0.1492
 6668TIP3    H141495   2.801   6.562  14.339 -0.0403 -0.4366  0.2930
 6668TIP3    H241496   2.854   6.569  14.480 -0.3884 -0.1416  0.4110
 6669TIP3   OH241497   4.112   2.894  13.057  0.8964  0.2123 -0.2521
 6669TIP3    H141498   4.169   2.928  12.988  2.1563 -1.3304 -0.0223
 6669TIP3    H241499   4.172   2.866  13.126 -0.3223  1.7860  1.5611
 6670TIP3   OH241500   4.310   4.306   2.931 -0.1595 -0.4153 -0.4043
 6670TIP3    H141501   4.270   4.314   2.844 -0.0866  1.3818 -0.2894
 6670TIP3    H241502   4.236   4.316   2.992 -0.0545 -0.6630 -0.2334
 6671TIP3   OH241503   3.870   3.588   2.200 -0.0445 -0.0685  0.4468
 6671TIP3    H141504   3.788   3.631   2.176 -0.7999 -1.0715  1.1564
 6671TIP3    H241505   3.893   3.535   2.124 -0.3020 -0.1616  0.4358
 6672TIP3   OH241506   6.626   6.210   2.465  0.5063 -0.4914 -0.3657
 6672TIP3    H141507   6.585   6.235   2.547  2.7750  0.7998  0.4655
 6672TIP3    H241508   6.677   6.287   2.439  2.8145 -2.1089 -0.9922
 6673TIP3   OH241509   4.404   4.937  13.482  0.8396  0.1725 -0.2302
 6673TIP3    H141510   4.344   4.971  13.416  1.6901 -1.1584 -1.7627
 6673TIP3    H241511   4.491   4.945  13.442  1.4490 -0.0654  0.9901
 6674TIP3   OH241512   2.963   3.302  12.185  0.2916  0.4057  0.2488
 6674TIP3    H141513   2.901   3.235  12.156  1.3291 -0.8708  0.8531
 6674TIP3    H241514   3.018   3.257  12.249  0.0720  2.2684  1.8152
 6675TIP3   OH241515   6.771   6.054  14.429  0.3551 -0.7389  0.5351
 6675TIP3    H141516   6.706   6.057  14.358  0.2954 -1.6693  0.5341
 6675TIP3    H241517   6.741   6.120  14.492  1.0470  0.9328 -0.8177
 6676TIP3   OH241518   0.392   5.114   1.035  0.2037  0.3158  0.4539
 6676TIP3    H141519   0.481   5.139   1.059 -0.0808  1.9789 -0.1259
 6676TIP3    H241520   0.353   5.193   0.998 -2.0762  0.1466  2.2356
 6677TIP3   OH241521   2.632   2.749  11.576 -0.1737 -0.1821 -0.1050
 6677TIP3    H141522   2.596   2.677  11.628 -0.4547 -1.8659 -2.4771
 6677TIP3    H241523   2.706   2.710  11.530 -0.8521  0.7775 -2.1065
 6678TIP3   OH241524   1.200   5.220  12.936 -0.3929  0.4701 -0.2505
 6678TIP3    H141525   1.166   5.139  12.898  3.0099 -0.8047 -0.9092
 6678TIP3    H241526   1.233   5.194  13.022 -1.1563  1.6732  0.4324
 6679TIP3   OH241527   6.153   0.024   3.999  0.3496  0.6099  0.9570
 6679TIP3    H141528   6.183  -0.064   3.976  0.0708  0.5752  0.7193
 6679TIP3    H241529   6.230   0.079   3.986  0.7776  0.2704  1.9741
 6680TIP3   OH241530   4.927   3.971  16.513  0.0584  0.3309  0.0100
 6680TIP3    H141531   4.940   3.876  16.513  2.6484  0.6037 -0.7640
 6680TIP3    H241532   4.845   3.984  16.466 -0.6981 -1.5286  0.7308
 6681TIP3   OH241533   1.835   6.086  16.271  0.0809 -0.2067 -0.1565
 6681TIP3    H141534   1.895   6.018  16.300 -1.3794 -0.5715  2.2360
 6681TIP3    H241535   1.849   6.159  16.331 -0.6551  0.3529 -0.6294
 6682TIP3   OH241536   5.730   2.773   0.026 -0.0246 -0.1178  0.1202
 6682TIP3    H141537   5.807   2.722   0.049 -0.9906 -0.9097  1.7673
 6682TIP3    H241538   5.656   2.716   0.046 -1.0793  0.8149 -0.9247
 6683TIP3   OH241539   0.662   5.586  11.674 -0.2366  0.2275  0.3512
 6683TIP3    H141540   0.648   5.492  11.661  0.7397 -0.2410  2.2606
 6683TIP3    H241541   0.705   5.615  11.594 -4.0333 -0.0065 -2.0452
 6684TIP3   OH241542   5.906   5.233   6.346  0.6336  0.0763 -0.5015
 6684TIP3    H141543   5.932   5.184   6.268 -0.6930  1.1503 -1.6761
 6684TIP3    H241544   5.946   5.319   6.334  0.0598  0.3882 -0.2166
 6685TIP3   OH241545   4.519   3.669   6.421  0.9151  0.0554  0.0594
 6685TIP3    H141546   4.554   3.756   6.439  0.5598  0.1897  0.1224
 6685TIP3    H241547   4.569   3.637   6.346  0.0523  0.9292 -0.9184
 6686TIP3   OH241548   2.231   1.263  17.076  0.1469 -0.1734  0.5869
 6686TIP3    H141549   2.200   1.212  17.151  2.2801 -1.6804  0.5461
 6686TIP3    H241550   2.278   1.199  17.022 -2.4471  0.5272 -2.8076
 6687TIP3   OH241551   5.396   1.888  14.165  0.1269 -0.3451  0.1393
 6687TIP3    H141552   5.342   1.811  14.181  0.2044 -0.6968 -1.1910
 6687TIP3    H241553   5.355   1.931  14.090 -0.1376  1.1345  1.0913
 6688TIP3   OH241554   3.898   0.045   5.477  0.2314 -0.3623  0.6393
 6688TIP3    H141555   3.857  -0.042   5.473  1.0421 -0.7444  0.2945
 6688TIP3    H241556   3.909   0.062   5.570 -0.5567 -0.3228  0.7326
 6689TIP3   OH241557   6.594   3.554   3.500  0.1501  0.1254  0.3683
 6689TIP3    H141558   6.684   3.527   3.484  0.4863  1.6637 -0.5783
 6689TIP3    H241559   6.561   3.580   3.414 -1.2856 -0.5965  0.6614
 6690TIP3   OH241560   2.389   5.494   3.925 -0.0314 -0.0585 -0.0549
 6690TIP3    H141561   2.362   5.529   3.840  0.1057 -0.5455 -0.3011
 6690TIP3    H241562   2.332   5.539   3.988  1.8205  2.5035 -0.0866
 6691TIP3   OH241563   2.698   5.056  15.133  0.4394 -0.0344  0.6139
 6691TIP3    H141564   2.615   5.009  15.142  0.7623 -0.6895  0.2029
 6691TIP3    H241565   2.689   5.132  15.191  0.2050 -1.0126  1.8954
 6692TIP3   OH241566   5.382   1.189  14.932  0.7423  0.8694  0.8545
 6692TIP3    H141567   5.375   1.257  14.999  1.1502  0.5923  1.1904
 6692TIP3    H241568   5.377   1.107  14.981  1.6179  0.6603  0.6176
 6693TIP3   OH241569   4.964   5.750   1.111  0.1326  0.1708 -0.4628
 6693TIP3    H141570   4.893   5.697   1.149 -1.0987  2.2773  0.3278
 6693TIP3    H241571   5.039   5.734   1.168 -1.0417  1.4638  1.5393
 6694TIP3   OH241572   1.259   4.261   2.593  0.2265  0.2388 -0.0411
 6694TIP3    H141573   1.208   4.222   2.522  0.7500  0.3704 -0.5024
 6694TIP3    H241574   1.211   4.239   2.672 -0.5232  0.3309 -0.4571
 6695TIP3   OH241575   6.083   5.144  12.869 -0.1485  0.5353 -0.1281
 6695TIP3    H141576   6.132   5.123  12.789  0.2636  0.4409  0.1477
 6695TIP3    H241577   6.042   5.061  12.895 -0.7989  0.7018 -0.5841
 6696TIP3   OH241578   4.014   3.286   6.070  0.0780  0.4527  0.7718
 6696TIP3    H141579   3.975   3.332   6.144  0.1159 -1.6604  2.2093
 6696TIP3    H241580   4.102   3.264   6.099  0.9910  1.6669 -0.8900
 6697TIP3   OH241581   0.632   4.551   0.815 -0.3637  0.3292 -0.1224
 6697TIP3    H141582   0.550   4.502   0.805 -0.0442 -0.1761 -0.2857
 6697TIP3    H241583   0.605   4.636   0.850 -0.9810  0.2497 -0.3988
 6698TIP3   OH241584   2.201   1.773   1.577 -0.3334  0.3635  0.2591
 6698TIP3    H141585   2.170   1.741   1.662 -1.5945 -0.4063 -0.4662
 6698TIP3    H241586   2.269   1.710   1.552 -2.5522 -1.6782 -0.9886
 6699TIP3   OH241587   4.259   5.743  14.299 -0.2069 -0.1079  0.2487
 6699TIP3    H141588   4.208   5.663  14.306 -0.0934 -0.1492  0.6085
 6699TIP3    H241589   4.202   5.805  14.252 -0.3598 -0.3395  0.1299
 6700TIP3   OH241590   0.454   5.387   5.026  0.2020 -0.1759 -0.0422
 6700TIP3    H141591   0.399   5.319   5.064  0.4719 -1.9455 -2.5667
 6700TIP3    H241592   0.513   5.414   5.097 -1.3775 -0.9482  1.6282
 6701TIP3   OH241593   1.164   5.017   4.259 -0.3042 -0.2970 -1.0033
 6701TIP3    H141594   1.089   5.005   4.318 -0.4099  0.7957 -0.8946
 6701TIP3    H241595   1.134   5.082   4.196  0.6650  0.4249 -0.7482
 6702TIP3   OH241596   0.128   5.937  15.111 -0.0564 -0.3377 -0.1094
 6702TIP3    H141597   0.033   5.941  15.097  0.0638  0.4255 -0.7709
 6702TIP3    H241598   0.165   5.975  15.032  0.7765  0.5821  0.6973
 6703TIP3   OH241599   0.178   2.778  16.702  0.7269 -0.6311 -0.3724
 6703TIP3    H141600   0.229   2.714  16.751 -0.5900 -1.8270 -0.5209
 6703TIP3    H241601   0.146   2.731  16.626 -0.0791  0.2564 -0.6081
 6704TIP3   OH241602   4.961   3.006  12.148 -0.1023  0.6929  0.2804
 6704TIP3    H141603   4.907   3.042  12.218 -0.5033 -0.2555  0.4656
 6704TIP3    H241604   4.911   3.023  12.068 -1.1246 -0.9638  0.5327
 6705TIP3   OH241605   3.924   2.706   1.949  0.3998  0.2033  0.8288
 6705TIP3    H141606   3.864   2.780   1.938  0.3003 -0.1603 -1.9236
 6705TIP3    H241607   3.877   2.644   2.004 -1.5065  0.2607 -0.6126
 6706TIP3   OH241608   1.255   0.004   2.135  0.2031 -0.2682  0.4589
 6706TIP3    H141609   1.200  -0.066   2.100  0.5322  0.0374 -0.7200
 6706TIP3    H241610   1.344  -0.022   2.111  0.3862  0.2250  0.6033
 6707TIP3   OH241611   1.041   3.928  16.388  0.1052 -0.2091 -0.1974
 6707TIP3    H141612   1.017   4.011  16.429  0.5981 -0.4437  0.5942
 6707TIP3    H241613   1.137   3.931  16.383  0.0494 -0.1086 -1.5313
 6708TIP3   OH241614   5.077   1.704   3.075 -0.1116  0.1668  0.4591
 6708TIP3    H141615   5.115   1.746   3.152 -1.9156 -0.9614  2.0420
 6708TIP3    H241616   5.031   1.628   3.109  1.9747 -2.5222 -2.1351
 6709TIP3   OH241617   5.522   6.739   3.677  0.2246 -0.1784 -0.0652
 6709TIP3    H141618   5.615   6.760   3.685  0.5734 -1.8044  0.4729
 6709TIP3    H241619   5.519   6.665   3.616 -0.5258 -1.2014  1.1469
 6710TIP3   OH241620   5.587   0.840   5.635 -0.2221  0.2456 -0.5197
 6710TIP3    H141621   5.630   0.846   5.549  0.8878  0.4810  0.0345
 6710TIP3    H241622   5.512   0.783   5.620 -0.4387  0.8191 -1.8052
 6711TIP3   OH241623   4.938   2.485  15.634 -0.3695 -0.6363  0.1495
 6711TIP3    H141624   4.906   2.407  15.679  2.7850 -0.8412  2.4413
 6711TIP3    H241625   5.031   2.466  15.618  0.5801  2.6715  0.9818
 6712TIP3   OH241626   4.513   5.389  10.459  0.0134  0.0956 -0.1461
 6712TIP3    H141627   4.571   5.445  10.407 -2.2704  0.6640 -2.3475
 6712TIP3    H241628   4.479   5.325  10.396 -1.0404 -0.7615  1.2322
 6713TIP3   OH241629   0.080   1.335  14.476 -0.1550 -0.9434  0.4764
 6713TIP3    H141630   0.151   1.399  14.471  1.7412 -2.9805  0.1256
 6713TIP3    H241631   0.017   1.374  14.537 -0.4563  2.4683 -1.6895
 6714TIP3   OH241632   3.051   0.437   1.787 -0.1740 -0.4669  0.0286
 6714TIP3    H141633   2.984   0.505   1.785 -0.6953 -0.9937 -0.7824
 6714TIP3    H241634   3.009   0.361   1.748  0.7283 -0.9647  0.0098
 6715TIP3   OH241635   5.140   1.733   3.544  0.2257 -0.1730  0.3116
 6715TIP3    H141636   5.223   1.694   3.570  0.9265 -1.5019 -3.3612
 6715TIP3    H241637   5.073   1.673   3.576  0.8927 -0.8587  0.4289
 6716TIP3   OH241638   2.866   5.744   1.958 -0.4823 -0.8539 -0.1809
 6716TIP3    H141639   2.958   5.720   1.968  0.0436  0.9059 -0.3974
 6716TIP3    H241640   2.860   5.777   1.869 -0.9565  0.4593  0.3159
 6717TIP3   OH241641   1.635   0.339  12.210 -0.2609 -0.4409  0.1586
 6717TIP3    H141642   1.680   0.307  12.289  0.8242 -0.0700 -0.2992
 6717TIP3    H241643   1.648   0.269  12.146 -1.2779 -0.8125  0.3287
 6718TIP3   OH241644   6.503   1.218   5.698  0.0444 -0.0528 -0.2194
 6718TIP3    H141645   6.471   1.130   5.682  3.0638 -1.0380 -1.4250
 6718TIP3    H241646   6.510   1.224   5.794 -1.4546 -0.5590 -0.0481
 6719TIP3   OH241647   4.019   4.078   0.141  0.8627  0.4178  0.6171
 6719TIP3    H141648   4.045   4.160   0.098  2.1805 -0.4187 -0.2418
 6719TIP3    H241649   3.952   4.040   0.083 -0.8296  1.5281  1.7415
 6720TIP3   OH241650   1.160   4.192   5.844  0.1250 -0.2086 -0.7606
 6720TIP3    H141651   1.243   4.173   5.799  0.8576 -2.6041  1.3482
 6720TIP3    H241652   1.183   4.197   5.936 -2.1508 -1.6386 -0.0249
 6721TIP3   OH241653   6.746   5.171   4.461 -0.2068 -0.3952 -0.2517
 6721TIP3    H141654   6.669   5.188   4.515  0.4367 -0.6218  0.7509
 6721TIP3    H241655   6.817   5.157   4.523  0.6789 -0.0819 -1.1614
 6722TIP3   OH241656   1.833   6.392  13.647 -0.3030  0.2505 -0.1846
 6722TIP3    H141657   1.829   6.433  13.733  0.8004  1.5733 -0.7358
 6722TIP3    H241658   1.745   6.357  13.634 -0.5164  0.1041  1.4311
 6723TIP3   OH241659   5.448   6.243   2.091 -0.0622 -0.4327  0.2526
 6723TIP3    H141660   5.435   6.270   2.182 -1.3753  1.0440 -0.3180
 6723TIP3    H241661   5.366   6.267   2.048  0.5706 -1.0342 -1.3386
 6724TIP3   OH241662   5.142   6.532  15.283  0.1467 -0.6471  0.5893
 6724TIP3    H141663   5.047   6.541  15.287  0.1604 -0.6650  1.1071
 6724TIP3    H241664   5.157   6.451  15.235  0.0188  1.7163 -4.0123
 6725TIP3   OH241665   4.122   2.566  14.339  0.6203  0.6609  0.2595
 6725TIP3    H141666   4.172   2.505  14.393 -1.1251 -0.5427  0.6098
 6725TIP3    H241667   4.187   2.625  14.301  2.2616 -0.8277  0.6834
 6726TIP3   OH241668   1.729   1.595  13.287  0.0143 -0.2803  0.0357
 6726TIP3    H141669   1.706   1.595  13.380  0.7759  1.7081  0.2668
 6726TIP3    H241670   1.677   1.666  13.249  0.2707 -0.5850 -0.9184
 6727TIP3   OH241671   2.491   6.205  10.987  0.2430 -0.1133 -0.0933
 6727TIP3    H141672   2.523   6.135  11.044 -0.8218 -0.5780 -0.0428
 6727TIP3    H241673   2.466   6.160  10.907 -2.5021 -0.1681  0.7088
 6728TIP3   OH241674   2.960   2.690   0.514 -0.1197 -0.2398 -0.2263
 6728TIP3    H141675   2.893   2.662   0.451  0.2074  0.7168 -1.0235
 6728TIP3    H241676   2.941   2.782   0.530 -0.4992 -0.5777  1.4940
 6729TIP3   OH241677   4.588   2.300   3.396  0.1156  0.1396  0.0110
 6729TIP3    H141678   4.563   2.211   3.422  0.5452 -0.4758 -1.5519
 6729TIP3    H241679   4.508   2.352   3.407 -0.6649 -0.8534 -0.7651
 6730TIP3   OH241680   3.560   2.673  15.463 -0.4851 -0.2428 -0.9706
 6730TIP3    H141681   3.485   2.647  15.517 -0.1060 -0.5981 -0.6068
 6730TIP3    H241682   3.545   2.765  15.444 -1.5582 -0.5654 -1.7831
 6731TIP3   OH241683   6.405   1.764  13.813  0.5004  0.3003 -0.1463
 6731TIP3    H141684   6.464   1.690  13.801 -0.1776  0.0546 -2.6027
 6731TIP3    H241685   6.360   1.747  13.895  1.5114 -1.1794  0.1336
 6732TIP3   OH241686   6.462   2.989   4.869  0.6821 -0.4180 -0.0315
 6732TIP3    H141687   6.500   3.072   4.897  0.2300 -0.4660  0.7586
 6732TIP3    H241688   6.436   3.004   4.778 -2.2349  1.3820  0.9341
 6733TIP3   OH241689   4.474   3.821   0.608 -0.7025  0.1045 -0.2197
 6733TIP3    H141690   4.469   3.732   0.571 -1.7463  1.2345 -3.0252
 6733TIP3    H241691   4.383   3.845   0.626 -0.3029  0.0280  2.2173
 6734TIP3   OH241692   0.363   3.297   3.619 -0.6209 -0.1547 -0.0502
 6734TIP3    H141693   0.290   3.240   3.596 -0.4196 -0.6901  0.5885
 6734TIP3    H241694   0.325   3.384   3.627 -1.2407 -0.4792  0.5517
 6735TIP3   OH241695   1.000   1.041  16.027  0.4519 -0.1298 -0.0314
 6735TIP3    H141696   1.050   0.963  16.050 -0.9658 -0.9900  0.2497
 6735TIP3    H241697   0.917   1.032  16.073 -0.7876  0.2347 -2.0311
 6736TIP3   OH241698   1.965   6.428   0.418  0.0443 -0.3400  0.3264
 6736TIP3    H141699   2.020   6.406   0.343  0.0176  0.0913  0.1750
 6736TIP3    H241700   1.878   6.397   0.394  0.0181 -0.1243  0.1404
 6737TIP3   OH241701   2.530   5.809  10.243 -0.2175  0.0055  0.0425
 6737TIP3    H141702   2.501   5.878  10.185 -0.8895 -0.0731  0.2800
 6737TIP3    H241703   2.453   5.753  10.255  0.0602 -0.2682  0.5848
 6738TIP3   OH241704   2.662   1.659   1.765  0.1722 -0.0690  0.3796
 6738TIP3    H141705   2.616   1.674   1.848 -1.4724  2.9611 -0.9240
 6738TIP3    H241706   2.593   1.664   1.698  1.8545  0.5790 -1.3806
 6739TIP3   OH241707   1.852   5.602   4.952 -0.7080 -0.2080  0.8385
 6739TIP3    H141708   1.924   5.590   5.015 -1.0928  0.7966  1.4957
 6739TIP3    H241709   1.847   5.519   4.905  2.2606  0.3443 -0.6936
 6740TIP3   OH241710   4.101   5.810   6.230  1.0362  0.3452  0.4335
 6740TIP3    H141711   4.178   5.753   6.223  0.4062 -0.5774  0.7380
 6740TIP3    H241712   4.083   5.839   6.141  0.5898 -1.0267  0.0468
 6741TIP3   OH241713   3.558   3.287  13.923 -0.0422  0.6651  0.2549
 6741TIP3    H141714   3.510   3.336  13.990  1.6658  0.9633  1.3247
 6741TIP3    H241715   3.651   3.302  13.943  0.5440  0.2220 -1.7937
 6742TIP3   OH241716   4.418   5.244   4.034 -0.0507 -0.0637  0.3135
 6742TIP3    H141717   4.350   5.181   4.009 -0.9311  1.0927 -0.3074
 6742TIP3    H241718   4.396   5.323   3.985  2.4446 -0.0063 -0.8125
 6743TIP3   OH241719   3.601   3.650   3.069  0.4958  0.2239  0.4312
 6743TIP3    H141720   3.636   3.582   3.011  1.5663  1.2725 -0.2079
 6743TIP3    H241721   3.509   3.629   3.078 -0.1292  0.8721 -2.9827
 6744TIP3   OH241722   6.839   6.018   0.515  0.2318 -0.7060  0.2657
 6744TIP3    H141723   6.754   5.974   0.515 -0.0510 -0.2308 -1.5294
 6744TIP3    H241724   6.892   5.968   0.453 -0.0186  1.2604 -1.6298
 6745TIP3   OH241725   2.533   0.550  16.544 -0.0214  0.2188  0.1510
 6745TIP3    H141726   2.488   0.466  16.535  1.1315 -0.3628 -0.4054
 6745TIP3    H241727   2.474   0.613  16.501  1.0290 -1.0327 -3.5191
 6746TIP3   OH241728   6.769   5.610  11.254  0.1688 -0.0038  0.4817
 6746TIP3    H141729   6.735   5.700  11.256 -0.1071 -0.0505 -1.2360
 6746TIP3    H241730   6.862   5.620  11.276  0.1514  0.7095  0.2569
 6747TIP3   OH241731   0.343   0.256   2.123  0.2762  0.0668 -0.5136
 6747TIP3    H141732   0.287   0.292   2.192 -1.1748  0.8786 -2.0437
 6747TIP3    H241733   0.340   0.161   2.137  0.4219  0.2383  0.8190
 6748TIP3   OH241734   1.934   3.271  13.727 -0.2798  0.3448 -0.3828
 6748TIP3    H141735   2.021   3.229  13.724  0.3409  1.5385  0.1266
 6748TIP3    H241736   1.911   3.284  13.635  0.9638  1.7065 -0.5446
 6749TIP3   OH241737   3.491   6.112   0.095  0.2494  0.2248  0.6010
 6749TIP3    H141738   3.557   6.066   0.043 -0.5631 -2.1895  1.5583
 6749TIP3    H241739   3.533   6.126   0.180 -0.2136 -0.6877  0.9881
 6750TIP3   OH241740   1.824   4.382   3.938 -0.4436 -0.5947 -0.4652
 6750TIP3    H141741   1.893   4.318   3.918  1.4477  0.6744  1.5232
 6750TIP3    H241742   1.746   4.348   3.896  0.6143 -3.8997  0.0080
 6751TIP3   OH241743   0.986   0.577  12.045 -0.1391  0.4431  0.1187
 6751TIP3    H141744   1.010   0.494  12.085  2.0379  0.7907 -0.3624
 6751TIP3    H241745   1.059   0.636  12.066 -1.0665  1.9050 -0.5649
 6752TIP3   OH241746   5.597   1.071  15.364  0.1717 -0.3655  0.3868
 6752TIP3    H141747   5.664   1.139  15.378  0.7493 -0.5656 -1.1961
 6752TIP3    H241748   5.640   0.990  15.391  0.2504 -0.3837  0.2045
 6753TIP3   OH241749   0.780   3.000   0.694  0.0744  0.0247 -0.7179
 6753TIP3    H141750   0.843   3.048   0.748  1.1573 -1.4218 -0.6301
 6753TIP3    H241751   0.705   2.985   0.751  0.4065  0.2036 -0.2325
 6754TIP3   OH241752   4.768   1.197  12.060 -0.1800 -0.4801  0.9964
 6754TIP3    H141753   4.724   1.132  12.006 -1.6767  1.8361 -0.7345
 6754TIP3    H241754   4.731   1.185  12.148 -1.3387 -1.1249  0.4343
 6755TIP3   OH241755   2.393   4.136   6.240 -0.1729  0.2095  0.3592
 6755TIP3    H141756   2.356   4.083   6.170 -0.1989  1.3081 -0.4950
 6755TIP3    H241757   2.317   4.166   6.290 -0.5975  2.7316 -1.5844
 6756TIP3   OH241758   4.586   2.957  10.986 -0.1311  0.2156 -0.1901
 6756TIP3    H141759   4.650   2.902  11.031 -0.6582 -0.1811  0.0894
 6756TIP3    H241760   4.598   3.044  11.025 -1.0136 -0.2500  1.2221
 6757TIP3   OH241761   5.613   1.810  10.916  0.1012  0.4910  0.4985
 6757TIP3    H141762   5.588   1.899  10.942 -1.2614  0.4410 -0.5558
 6757TIP3    H241763   5.628   1.816  10.822 -0.8009 -0.5521  0.2692
 6758TIP3   OH241764   4.675   5.027  13.366  0.0306  0.3991 -0.4537
 6758TIP3    H141765   4.726   4.969  13.309 -1.6259 -1.9981  0.3007
 6758TIP3    H241766   4.729   5.038  13.444  0.1429 -0.6536 -0.3693
 6759TIP3   OH241767   0.807   5.335   4.947 -0.6145  0.2242  0.3230
 6759TIP3    H141768   0.754   5.259   4.922  0.8067 -0.5170 -0.5411
 6759TIP3    H241769   0.897   5.303   4.945 -0.0413  1.7679  0.5854
 6760TIP3   OH241770   1.191   4.553  13.661  0.3772 -0.4590  0.2009
 6760TIP3    H141771   1.255   4.488  13.691  2.2432  1.7441  1.2342
 6760TIP3    H241772   1.126   4.557  13.732  0.5263 -0.7906  0.3605
 6761TIP3   OH241773   2.813   4.908   5.265 -0.3433 -0.1166 -0.1128
 6761TIP3    H141774   2.905   4.910   5.239  0.1521 -0.6048  1.4709
 6761TIP3    H241775   2.797   4.994   5.302 -0.3817 -0.1817  0.0231
 6762TIP3   OH241776   3.781   2.549   1.720 -0.4105 -0.0348 -0.2308
 6762TIP3    H141777   3.833   2.606   1.776  0.0662 -0.5718 -0.1216
 6762TIP3    H241778   3.830   2.546   1.638 -0.9978  0.5798 -0.6186
 6763TIP3   OH241779   1.119   5.394   1.046 -0.2584  0.3310 -0.1934
 6763TIP3    H141780   1.066   5.458   1.094 -0.2338  0.3371 -0.1742
 6763TIP3    H241781   1.204   5.438   1.033 -0.7315  0.9036 -1.5206
 6764TIP3   OH241782   1.511   1.332   5.017  0.3838  0.2719  0.3548
 6764TIP3    H141783   1.435   1.282   5.045  0.1249  0.1401 -0.5539
 6764TIP3    H241784   1.545   1.371   5.098 -0.4636  0.0855  0.8163
 6765TIP3   OH241785   2.960   4.256   1.792 -0.0514  0.0530 -0.0375
 6765TIP3    H141786   2.983   4.293   1.878  1.6443  0.3088 -0.5745
 6765TIP3    H241787   2.923   4.330   1.744 -1.7653 -0.2669  0.6875
 6766TIP3   OH241788   0.336   3.728   2.987  0.1190  0.1581  0.0206
 6766TIP3    H141789   0.262   3.675   2.960  0.8726 -0.6450 -0.5271
 6766TIP3    H241790   0.297   3.800   3.037 -0.9651 -0.5962  0.2985
 6767TIP3   OH241791   0.365   0.572  16.422 -0.0336  0.1380 -0.3002
 6767TIP3    H141792   0.436   0.536  16.369 -0.7038  0.9634 -1.8448
 6767TIP3    H241793   0.317   0.630  16.362 -1.4983  0.2707  0.9192
 6768TIP3   OH241794   0.381   0.300   4.223 -0.0261  0.1043 -0.0828
 6768TIP3    H141795   0.451   0.350   4.265  1.0032  0.5248 -2.1441
 6768TIP3    H241796   0.300   0.341   4.254  0.7245  1.2009  0.4862
 6769TIP3   OH241797   4.842   2.666   3.280  0.2857 -0.6772  0.2538
 6769TIP3    H141798   4.932   2.662   3.312  0.5826 -1.4872 -0.6408
 6769TIP3    H241799   4.793   2.608   3.339  0.0062  0.9523  1.7113
 6770TIP3   OH241800   5.362   1.459  14.996  0.4377 -0.4629  0.0500
 6770TIP3    H141801   5.388   1.506  15.075 -0.3530 -0.4527  0.3164
 6770TIP3    H241802   5.416   1.496  14.926  1.8815 -1.1769  0.7461
 6771TIP3   OH241803   1.212   1.499   2.578  0.5993  0.5138  0.1770
 6771TIP3    H141804   1.142   1.435   2.583  0.5573  0.6073  1.1158
 6771TIP3    H241805   1.226   1.526   2.669  2.6606 -0.3747  0.1843
 6772TIP3   OH241806   4.818   4.429   3.602  0.1463  0.5907 -0.1345
 6772TIP3    H141807   4.739   4.438   3.655  0.2254  1.5477 -0.1685
 6772TIP3    H241808   4.831   4.334   3.595  0.3197  0.4209  1.8323
 6773TIP3   OH241809   6.760   2.648   4.301 -0.2981  0.1132 -0.6260
 6773TIP3    H141810   6.792   2.691   4.380 -0.7698 -0.4907 -0.0924
 6773TIP3    H241811   6.780   2.709   4.230  1.8779 -0.1747 -0.3093
 6774TIP3   OH241812   2.290   4.139   2.171  0.4340  0.3055  0.6578
 6774TIP3    H141813   2.271   4.196   2.246 -1.1040 -0.5338  0.9524
 6774TIP3    H241814   2.302   4.052   2.210  0.1253 -0.0497 -0.0289
 6775TIP3   OH241815   6.778   6.468  11.086 -0.4038 -0.1948 -0.0790
 6775TIP3    H141816   6.823   6.456  11.169 -0.6267 -0.6510 -0.0213
 6775TIP3    H241817   6.762   6.562  11.081  1.3175  0.1103 -0.5145
 6776TIP3   OH241818   0.761   3.226  12.584  0.1454  0.1818  0.1213
 6776TIP3    H141819   0.785   3.155  12.643  0.7606  1.3166  1.3041
 6776TIP3    H241820   0.823   3.219  12.512 -0.1017 -0.7498 -0.0098
 6777TIP3   OH241821   2.360   2.021   6.012  0.2129 -0.7565  0.0828
 6777TIP3    H141822   2.451   1.992   6.021  0.0608 -0.7829  1.8573
 6777TIP3    H241823   2.360   2.111   6.043 -0.0027 -0.0001 -1.9725
 6778TIP3   OH241824   6.764   5.169   0.169 -0.0431  0.2579  0.4583
 6778TIP3    H141825   6.745   5.130   0.084 -1.5507  0.6724  0.5689
 6778TIP3    H241826   6.680   5.164   0.217 -0.0700  2.7770  0.7981
 6779TIP3   OH241827   1.995   0.347   0.072 -0.5003 -0.2435  0.3395
 6779TIP3    H141828   1.943   0.426   0.089  0.0639  0.0524  0.7516
 6779TIP3    H241829   2.072   0.379   0.024  0.0786 -0.4264  1.1207
 6780TIP3   OH241830   6.599   0.197  15.084  0.2004  0.2482 -0.2056
 6780TIP3    H141831   6.669   0.207  15.148  1.6143 -1.9674 -1.2860
 6780TIP3    H241832   6.641   0.212  14.999 -0.5596 -1.2953 -0.8946
 6781TIP3   OH241833   3.039   0.324  15.700 -0.2652 -0.3287  0.4538
 6781TIP3    H141834   3.095   0.287  15.768 -0.3117  0.0185  0.6853
 6781TIP3    H241835   3.084   0.404  15.673  0.4659 -1.1629 -0.9131
 6782TIP3   OH241836   5.269   5.131   3.479 -0.2657 -0.1420 -0.8914
 6782TIP3    H141837   5.213   5.072   3.428 -2.6550  1.0934  0.1558
 6782TIP3    H241838   5.228   5.217   3.472  1.5854  0.8744 -0.1293
 6783TIP3   OH241839   6.407   3.733   0.243 -0.1566 -0.0722  0.4084
 6783TIP3    H141840   6.465   3.699   0.175  0.6850  2.7614 -0.4150
 6783TIP3    H241841   6.328   3.679   0.236  0.8234 -1.4001 -1.1691
 6784TIP3   OH241842   4.792   6.588   3.283  0.2316  0.2417  0.0988
 6784TIP3    H141843   4.714   6.535   3.298 -0.0101  0.9590  1.6662
 6784TIP3    H241844   4.764   6.678   3.300  1.0398  0.6898 -0.8103
 6785TIP3   OH241845   1.953   1.658  11.701 -0.1085 -0.0725  0.2528
 6785TIP3    H141846   1.949   1.628  11.792 -2.4315  0.1961  0.3125
 6785TIP3    H241847   1.879   1.614  11.659 -0.2988  1.3627 -0.9915
 6786TIP3   OH241848   6.661   1.978   1.975  0.0605  0.1771 -0.2766
 6786TIP3    H141849   6.638   1.992   2.067 -1.0072 -0.5777 -0.4041
 6786TIP3    H241850   6.616   1.897   1.951 -1.9267  1.7046 -2.1972
 6787TIP3   OH241851   3.960   4.968   4.398 -0.4552  0.0592 -0.0336
 6787TIP3    H141852   3.945   5.022   4.320 -1.6463  1.1987  0.9289
 6787TIP3    H241853   4.044   4.925   4.383 -0.4752  0.5744 -1.7509
 6788TIP3   OH241854   2.946   5.915   1.155 -0.1338 -0.4012 -0.5227
 6788TIP3    H141855   2.905   5.904   1.069 -2.3531  1.1582  0.2433
 6788TIP3    H241856   3.024   5.967   1.138 -0.5250 -0.1475 -1.6129
 6789TIP3   OH241857   3.858   2.976  12.375 -0.0578  0.2644 -0.3165
 6789TIP3    H141858   3.889   3.055  12.421 -0.0064  0.6801 -1.0421
 6789TIP3    H241859   3.877   2.904  12.436  0.2529  0.7662  0.1985
 6790TIP3   OH241860   6.075   0.803  13.862  0.2032 -0.2269 -0.2138
 6790TIP3    H141861   6.020   0.774  13.790 -2.0935 -1.4003  1.8585
 6790TIP3    H241862   6.122   0.724  13.890  0.4256  0.0157  0.1140
 6791TIP3   OH241863   1.459   2.456   5.807 -0.6847 -0.0440 -0.0981
 6791TIP3    H141864   1.533   2.442   5.748 -0.0648 -0.4606  0.7542
 6791TIP3    H241865   1.475   2.542   5.846 -0.7915 -0.0160 -0.1157
 6792TIP3   OH241866   3.316   5.987   2.459  0.8167  0.4862  0.1171
 6792TIP3    H141867   3.289   6.046   2.529  0.5485  1.4796 -0.7826
 6792TIP3    H241868   3.267   5.907   2.474  0.0388  1.0279  0.5150
 6793TIP3   OH241869   1.085   0.279   5.307  0.0900 -0.8774  0.6348
 6793TIP3    H141870   1.082   0.216   5.234 -1.1327  1.0136 -1.0689
 6793TIP3    H241871   1.002   0.265   5.353 -1.0345  0.5568 -0.8136
 6794TIP3   OH241872   3.431   4.442  11.894  0.2762  0.0404 -0.9386
 6794TIP3    H141873   3.518   4.449  11.933  1.0163 -1.0069 -2.3415
 6794TIP3    H241874   3.407   4.350  11.904 -0.5370  0.2580 -0.8389
 6795TIP3   OH241875   5.075   5.621  11.498 -0.6474  0.1928 -0.2011
 6795TIP3    H141876   5.079   5.617  11.594 -2.6604 -1.0622 -0.1139
 6795TIP3    H241877   5.140   5.558  11.468 -0.4545  0.1209  0.3551
 6796TIP3   OH241878   4.543   4.308   1.296  0.3204  0.1656  0.1150
 6796TIP3    H141879   4.616   4.350   1.252  0.3486 -1.0501 -1.0785
 6796TIP3    H241880   4.583   4.236   1.345  0.0644  0.3392  0.5868
 6797TIP3   OH241881   4.497   4.406  13.420  0.1303  0.3852  0.3151
 6797TIP3    H141882   4.553   4.481  13.440  0.4813  0.2823 -0.2940
 6797TIP3    H241883   4.523   4.378  13.333  0.5085 -0.9111  0.8178
 6798TIP3   OH241884   2.039   1.589   4.889  0.6095 -0.3472 -0.1813
 6798TIP3    H141885   2.008   1.583   4.799  0.4796 -2.1991 -0.0545
 6798TIP3    H241886   1.963   1.566   4.942  0.4349  1.5787  0.4959
 6799TIP3   OH241887   2.451   3.035   5.028  0.4438 -0.2430 -0.2448
 6799TIP3    H141888   2.450   3.127   5.054 -0.8184 -0.1359 -0.6188
 6799TIP3    H241889   2.362   3.018   4.996  0.3539 -1.8642  0.7615
 6800TIP3   OH241890   3.719   3.554  11.898  0.4322 -0.0907  0.0962
 6800TIP3    H141891   3.631   3.590  11.905 -0.0402 -1.0006 -0.9042
 6800TIP3    H241892   3.777   3.629  11.913 -0.5042  1.3411 -2.8602
 6801TIP3   OH241893   6.399   1.261   3.907  0.4989  0.0203 -0.4003
 6801TIP3    H141894   6.341   1.317   3.958 -1.3247 -1.8443 -0.3014
 6801TIP3    H241895   6.476   1.249   3.962 -0.1651  0.4217  0.6411
 6802TIP3   OH241896   6.336   2.108  13.206  0.6011  0.7764  0.4860
 6802TIP3    H141897   6.261   2.167  13.206 -0.3245 -0.2939  2.5184
 6802TIP3    H241898   6.391   2.139  13.278 -0.2634 -1.1517  2.0849
 6803TIP3   OH241899   3.232   3.960   5.811 -0.4003  0.0200  0.0382
 6803TIP3    H141900   3.275   4.043   5.791 -1.3131  0.3319 -0.7317
 6803TIP3    H241901   3.293   3.893   5.780 -0.4699  0.4522 -1.0788
 6804TIP3   OH241902   5.797   2.863  10.397 -0.5661 -0.7427  0.0097
 6804TIP3    H141903   5.728   2.929  10.394 -0.6600 -0.8620 -0.5203
 6804TIP3    H241904   5.750   2.780  10.398 -0.4285 -0.8374 -0.8201
 6805TIP3   OH241905   5.554   0.563   3.431  0.4829  0.7446  0.2572
 6805TIP3    H141906   5.571   0.592   3.521  0.5738  0.0545  0.4714
 6805TIP3    H241907   5.474   0.510   3.438  0.3743  0.8595 -0.1046
 6806TIP3   OH241908   0.101   0.480  13.664 -0.3272 -0.3625 -0.4918
 6806TIP3    H141909   0.027   0.420  13.656  1.5650 -2.7600 -1.4887
 6806TIP3    H241910   0.128   0.498  13.574  0.7212 -0.1389 -0.1550
 6807TIP3   OH241911   0.892   1.836  14.607  0.6069 -0.0283  0.5922
 6807TIP3    H141912   0.874   1.768  14.542  0.2886 -0.8496  1.5060
 6807TIP3    H241913   0.904   1.787  14.689  2.3773  0.8688  0.8991
 6808TIP3   OH241914   4.653   6.678  11.226 -0.1826  0.4096  0.1129
 6808TIP3    H141915   4.742   6.664  11.256 -0.0768  1.9193  0.5760
 6808TIP3    H241916   4.638   6.772  11.237 -1.4273  0.3832 -1.0544
 6809TIP3   OH241917   2.225   6.152  11.517 -0.3717 -0.2703 -0.4386
 6809TIP3    H141918   2.135   6.171  11.541 -0.0029 -1.6045  2.4055
 6809TIP3    H241919   2.275   6.168  11.597  2.2281  1.9658 -2.3348
 6810TIP3   OH241920   0.375   2.226  14.195  0.2927 -0.0248  0.1380
 6810TIP3    H141921   0.371   2.287  14.268  0.4986  0.5205 -0.2956
 6810TIP3    H241922   0.429   2.153  14.227 -0.3867 -0.2292  0.8302
 6811TIP3   OH241923   6.495   2.364   0.002  0.0927  0.1710  0.7495
 6811TIP3    H141924   6.491   2.278   0.043  0.2251  0.2561  0.9438
 6811TIP3    H241925   6.414   2.371  -0.048  0.0031  0.0034  0.8716
 6812TIP3   OH241926   4.943   1.444  13.000 -0.2242 -0.6036 -0.1135
 6812TIP3    H141927   4.969   1.496  12.924  0.8858  1.2481  1.4285
 6812TIP3    H241928   4.992   1.363  12.991  0.5368 -0.0756 -0.9704
 6813TIP3   OH241929   1.287   1.197   2.697  0.0716  0.2234  0.5372
 6813TIP3    H141930   1.364   1.150   2.666 -1.3420 -2.6426  0.9771
 6813TIP3    H241931   1.313   1.233   2.782  0.8589 -1.0408  0.8670
 6814TIP3   OH241932   4.602   0.759   2.475 -0.1375 -0.1362  0.0870
 6814TIP3    H141933   4.586   0.766   2.381 -1.7246  1.2772  0.4172
 6814TIP3    H241934   4.569   0.672   2.498 -0.5172 -0.1618 -0.5330
 6815TIP3   OH241935   3.225   5.032  13.738 -0.2109  0.2032  0.3695
 6815TIP3    H141936   3.198   5.071  13.820 -1.5129  0.9037 -0.3586
 6815TIP3    H241937   3.208   5.099  13.672  0.5232 -0.4409 -0.5085
 6816TIP3   OH241938   2.573   4.346   6.224  0.3578  0.2584 -0.7152
 6816TIP3    H141939   2.517   4.269   6.234  0.5133  0.2562  0.1980
 6816TIP3    H241940   2.662   4.311   6.221  0.5625  0.4899  1.3829
 6817TIP3   OH241941   6.261   6.214   2.231 -0.5168  0.5544  0.6416
 6817TIP3    H141942   6.307   6.296   2.216 -0.7382  0.9193  1.9164
 6817TIP3    H241943   6.329   6.147   2.222 -0.0649  0.9685  0.9319
 6818TIP3   OH241944   5.598   2.977  13.222 -0.1787  0.0608 -0.5238
 6818TIP3    H141945   5.674   3.007  13.172 -1.1394  1.2209 -1.3628
 6818TIP3    H241946   5.593   3.037  13.296 -1.0991  0.9316 -1.2639
 6819TIP3   OH241947   3.648   6.048  13.891 -0.0715 -0.0249 -0.7186
 6819TIP3    H141948   3.634   6.102  13.813 -0.1761  2.3881  0.8504
 6819TIP3    H241949   3.566   6.000  13.902 -1.6186  2.5493 -0.0256
 6820TIP3   OH241950   3.652   1.036  16.052  1.1528 -0.1534 -0.3803
 6820TIP3    H141951   3.615   0.949  16.041  1.1333 -0.2948  0.6613
 6820TIP3    H241952   3.598   1.077  16.120  2.2963 -0.0269  0.4957
 6821TIP3   OH241953   2.063   0.999   2.601  0.0368  0.3941 -0.1871
 6821TIP3    H141954   2.132   1.064   2.612  1.2865 -0.2117 -3.3888
 6821TIP3    H241955   2.103   0.916   2.627  0.0228  0.2543 -0.6018
 6822TIP3   OH241956   3.619   4.792   5.286  0.6285  0.1279  0.3925
 6822TIP3    H141957   3.647   4.880   5.312 -0.0618 -0.2717  2.6706
 6822TIP3    H241958   3.684   4.733   5.324 -0.4429 -0.4846  1.3396
 6823TIP3   OH241959   3.835   3.311   0.954 -0.1255  0.5933  0.3112
 6823TIP3    H141960   3.888   3.232   0.966  1.5920  1.7509  0.6532
 6823TIP3    H241961   3.750   3.278   0.926  0.2416 -1.4325  1.3837
 6824TIP3   OH241962   5.230   1.158   4.244 -0.0208  0.0191 -0.5643
 6824TIP3    H141963   5.247   1.068   4.217  0.1048 -0.9193  2.3180
 6824TIP3    H241964   5.281   1.212   4.183  1.2954 -1.9584 -1.2965
 6825TIP3   OH241965   1.919   5.191  12.409  0.7463 -0.4574 -0.2253
 6825TIP3    H141966   2.001   5.202  12.456  0.3347 -0.2778  0.4645
 6825TIP3    H241967   1.933   5.236  12.325  1.4109 -0.5971 -0.1929
 6826TIP3   OH241968   0.773   5.814   0.667 -0.3095 -0.5556 -0.4246
 6826TIP3    H141969   0.764   5.782   0.577  0.0179 -0.5398 -0.4626
 6826TIP3    H241970   0.777   5.734   0.720 -0.8836 -0.5627 -0.3842
 6827TIP3   OH241971   5.727   3.048   2.675 -0.0486  0.2300  0.0880
 6827TIP3    H141972   5.719   3.084   2.763 -1.3463 -2.0367  0.9722
 6827TIP3    H241973   5.639   3.054   2.638 -0.2302 -1.5597  0.1355
 6828TIP3   OH241974   5.893   4.011  14.570 -0.1986  0.6597  0.1731
 6828TIP3    H141975   5.802   3.987  14.589  0.0315  1.4652  2.6725
 6828TIP3    H241976   5.892   4.106  14.566  0.6526  0.7269  1.1205
 6829TIP3   OH241977   2.268   1.774   3.859  0.3397 -0.0233  0.4258
 6829TIP3    H141978   2.206   1.700   3.858  0.1684  0.1186  0.5644
 6829TIP3    H241979   2.267   1.805   3.949  0.0107  0.4853  0.2532
 6830TIP3   OH241980   4.252   5.415   1.291 -0.2038 -0.2114 -1.0221
 6830TIP3    H141981   4.187   5.347   1.305 -0.0565 -0.1686 -0.0192
 6830TIP3    H241982   4.256   5.462   1.375  0.7605  0.0852 -1.2176
 6831TIP3   OH241983   5.708   3.430  15.011 -0.4143 -0.7075  0.2329
 6831TIP3    H141984   5.650   3.500  14.980  1.2281  0.5634 -0.1111
 6831TIP3    H241985   5.730   3.456  15.101 -0.7388 -1.4340  0.5274
 6832TIP3   OH241986   1.023   3.770   5.431 -0.1652  0.0478 -0.1313
 6832TIP3    H141987   0.929   3.756   5.439 -0.2705 -0.3751 -1.8474
 6832TIP3    H241988   1.035   3.863   5.451 -1.2878  0.7012 -2.1898
 6833TIP3   OH241989   0.451   2.679  14.465  0.5836  0.3937 -0.0754
 6833TIP3    H141990   0.438   2.725  14.382 -0.1815  1.6068  0.6970
 6833TIP3    H241991   0.419   2.739  14.532  2.8968  0.2419  1.2892
 6834TIP3   OH241992   0.062   4.415   6.341  1.0046  0.2425  0.3123
 6834TIP3    H141993   0.098   4.395   6.254 -0.7565 -0.4566 -0.3059
 6834TIP3    H241994  -0.020   4.366   6.345  0.4523  1.2091  1.9196
 6835TIP3   OH241995   6.737   1.872  12.366  0.4915  0.0048  1.0579
 6835TIP3    H141996   6.801   1.812  12.327 -1.0499 -0.4756 -0.8731
 6835TIP3    H241997   6.782   1.956  12.370  0.7150  0.1257 -1.9961
 6836TIP3   OH241998   5.235   0.239   0.835  0.8254  0.0306  0.5987
 6836TIP3    H141999   5.194   0.313   0.881 -2.0892 -1.9153  1.4041
 6836TIP3    H242000   5.174   0.219   0.764  2.5569 -0.4232 -0.8164
 6837TIP3   OH242001   6.279   5.703  11.323 -0.2039 -0.6247 -0.2679
 6837TIP3    H142002   6.343   5.633  11.308 -1.0974 -1.6278  0.4033
 6837TIP3    H242003   6.197   5.667  11.288 -0.4145  0.6176 -1.0760
 6838TIP3   OH242004   3.862   2.594   3.670 -0.2163 -0.0503 -0.2343
 6838TIP3    H142005   3.863   2.585   3.575 -0.6675  0.3346 -0.2755
 6838TIP3    H242006   3.954   2.584   3.696 -0.4585 -4.3837 -0.3173
 6839TIP3   OH242007   2.059   6.135   0.574  0.1075 -1.1422 -0.2329
 6839TIP3    H142008   2.033   6.207   0.631 -1.7033 -2.8106  1.1909
 6839TIP3    H242009   1.994   6.136   0.503  0.5479 -0.9062 -0.6362
 6840TIP3   OH242010   5.293   3.879  12.987  0.1835  0.4637  0.1954
 6840TIP3    H142011   5.218   3.829  12.954 -0.8083  1.9804  0.0468
 6840TIP3    H242012   5.345   3.815  13.035 -0.8255 -0.7869 -0.3172
 6841TIP3   OH242013   2.861   1.378  12.520 -0.4553 -0.1850  0.1650
 6841TIP3    H142014   2.883   1.438  12.591  2.1160 -0.1155 -0.5993
 6841TIP3    H242015   2.846   1.434  12.444 -0.6931 -0.3903  0.0566
 6842TIP3   OH242016   6.330   5.164   1.110 -0.5710 -0.6436 -0.3503
 6842TIP3    H142017   6.304   5.085   1.157  1.8188 -0.6748  1.0929
 6842TIP3    H242018   6.309   5.236   1.171  0.9753 -0.5422  0.1011
 6843TIP3   OH242019   3.142   4.279  13.089  0.1775 -0.3212 -0.1350
 6843TIP3    H142020   3.175   4.367  13.105  0.2516 -0.4926  0.7019
 6843TIP3    H242021   3.047   4.290  13.081  0.2564 -0.0676 -0.8097
 6844TIP3   OH242022   6.002   4.903  11.324  0.5615  0.1904  0.3579
 6844TIP3    H142023   6.071   4.871  11.383 -0.0438 -0.8303  0.5206
 6844TIP3    H242024   5.999   4.839  11.254  0.8348  1.0684 -0.4800
 6845TIP3   OH242025   0.482   6.322   6.193  0.2980 -0.0696 -0.4525
 6845TIP3    H142026   0.429   6.394   6.159  0.7960  0.6205  0.2099
 6845TIP3    H242027   0.427   6.244   6.180  0.1320  0.2751 -2.0382
 6846TIP3   OH242028   3.292   4.845   4.576 -0.2121 -0.2225 -0.3222
 6846TIP3    H142029   3.351   4.895   4.632 -0.8642  0.6602 -0.4099
 6846TIP3    H242030   3.243   4.911   4.526 -0.4092 -0.9679 -1.1436
 6847TIP3   OH242031   1.383   6.769   2.592  0.2759  0.0370  0.1913
 6847TIP3    H142032   1.385   6.757   2.687  0.1828 -0.9463  0.0702
 6847TIP3    H242033   1.468   6.736   2.562  0.3686  0.4870 -0.0629
 6848TIP3   OH242034   6.357   5.674  16.817 -0.5752  0.4249 -0.3911
 6848TIP3    H142035   6.339   5.683  16.910  1.5124  0.4907  0.0771
 6848TIP3    H242036   6.340   5.761  16.781  0.0999  0.8443  0.2613
 6849TIP3   OH242037   5.131   5.454   0.851  0.5340 -0.0183 -0.1384
 6849TIP3    H142038   5.085   5.439   0.934 -0.5421 -2.2021 -1.0580
 6849TIP3    H242039   5.064   5.485   0.791  0.8026 -0.7270 -0.8170
 6850TIP3   OH242040   6.403   0.258   1.023  0.0950  0.1120  0.2363
 6850TIP3    H142041   6.334   0.320   1.048  0.8757  1.0574  0.0948
 6850TIP3    H242042   6.409   0.266   0.927  0.5054  0.1524  0.2632
 6851TIP3   OH242043   5.667   4.879  13.060 -0.2961  0.1721 -0.1204
 6851TIP3    H142044   5.645   4.961  13.017  0.2538  0.3638 -0.0508
 6851TIP3    H242045   5.671   4.901  13.153  3.1898  0.9333 -0.2999
 6852TIP3   OH242046   3.234   3.936  13.104  0.1296 -0.1265 -0.3361
 6852TIP3    H142047   3.302   3.885  13.147 -0.1937 -1.2832 -1.1398
 6852TIP3    H242048   3.226   3.897  13.017  0.1824  1.6064 -1.1584
 6853TIP3   OH242049   4.831   6.641  11.975  0.5857  0.2275 -0.0870
 6853TIP3    H142050   4.795   6.728  11.962  0.9305  0.3773 -0.0367
 6853TIP3    H242051   4.904   6.636  11.914 -0.4559 -0.6406 -1.3376
 6854TIP3   OH242052   4.472   1.499   0.878 -0.2090  0.0110  0.4345
 6854TIP3    H142053   4.454   1.500   0.972  1.6181  2.8751  0.8853
 6854TIP3    H242054   4.424   1.575   0.844 -0.2318 -0.5429 -0.8393
 6855TIP3   OH242055   0.211   6.432  16.669 -0.0946 -0.9741 -0.1804
 6855TIP3    H142056   0.303   6.425  16.696 -0.3408 -0.8365  0.7289
 6855TIP3    H242057   0.213   6.418  16.574  1.1311  1.1429 -0.5435
 6856TIP3   OH242058   6.324   1.550   3.112  0.2293 -0.3685  0.7103
 6856TIP3    H142059   6.294   1.637   3.136 -1.3266 -1.1295  1.7288
 6856TIP3    H242060   6.266   1.524   3.040  2.1534  0.2733 -1.1535
 6857TIP3   OH242061   3.249   2.972   0.874  0.2856 -0.0085 -0.0704
 6857TIP3    H142062   3.177   3.001   0.819 -0.8664 -2.0093  0.2716
 6857TIP3    H242063   3.206   2.926   0.947  1.8495  0.4762  1.2309
 6858TIP3   OH242064   6.622   3.308  11.900  0.0475  0.3974 -1.2076
 6858TIP3    H142065   6.689   3.249  11.866  0.3090 -1.2694  1.8440
 6858TIP3    H242066   6.547   3.251  11.919 -0.4933  1.4001 -0.2200
 6859TIP3   OH242067   6.160   5.170  14.689 -0.6156  0.3552 -0.2598
 6859TIP3    H142068   6.182   5.263  14.683  1.3989 -0.1444 -2.1769
 6859TIP3    H242069   6.112   5.161  14.771  1.6001  2.6262  1.4146
 6860TIP3   OH242070   5.015   3.437   2.671 -0.1660  0.3107  0.0281
 6860TIP3    H142071   5.104   3.409   2.648  0.2108  1.0654  0.5209
 6860TIP3    H242072   4.977   3.361   2.716  0.0138 -0.2297 -0.7142
 6861TIP3   OH242073   3.504   2.829   1.909 -0.2145 -0.5245  0.2600
 6861TIP3    H142074   3.471   2.866   1.991 -0.3577 -1.0584  0.4462
 6861TIP3    H242075   3.441   2.856   1.842 -2.0801 -3.0116  0.8766
 6862TIP3   OH242076   0.212   1.974  14.535 -0.7009 -0.2098 -0.3549
 6862TIP3    H142077   0.141   2.032  14.508 -0.9829 -1.0459 -1.5162
 6862TIP3    H242078   0.253   2.018  14.610 -0.8340  1.5181 -1.2558
 6863TIP3   OH242079   4.662   4.647  13.830  0.1092 -0.2195  0.0102
 6863TIP3    H142080   4.647   4.737  13.857  1.3895  0.3917 -1.2077
 6863TIP3    H242081   4.623   4.594  13.900  0.3365  1.2630  1.3074
 6864TIP3   OH242082   2.151   0.217   2.067 -0.3315 -0.1691 -0.2598
 6864TIP3    H142083   2.156   0.154   2.138 -1.4375  0.5991  0.5272
 6864TIP3    H242084   2.222   0.193   2.008  0.9729 -0.4832  1.3825
 6865TIP3   OH242085   4.610   4.934   5.954 -0.4196 -0.3703  0.7107
 6865TIP3    H142086   4.588   5.017   5.997 -0.0594 -0.1494  0.4732
 6865TIP3    H242087   4.527   4.886   5.950 -0.8292  0.3725 -0.0075
 6866TIP3   OH242088   5.550   5.144  11.018  0.1345 -0.5164  0.0851
 6866TIP3    H142089   5.546   5.111  10.928 -4.7573 -1.0873  0.2402
 6866TIP3    H242090   5.598   5.076  11.066  1.8277 -0.7545 -1.8332
 6867TIP3   OH242091   0.408   6.730  14.597  0.1125  0.3736 -0.2942
 6867TIP3    H142092   0.413   6.825  14.598 -1.9478  0.5413  0.9402
 6867TIP3    H242093   0.327   6.710  14.549  0.2369 -0.7133 -0.0922
 6868TIP3   OH242094   5.704   1.743  14.580  0.1000  0.0868  0.0599
 6868TIP3    H142095   5.699   1.652  14.550  3.5762  0.4959 -2.4407
 6868TIP3    H242096   5.668   1.794  14.507  3.1779  0.8358 -1.0925
 6869TIP3   OH242097   3.309   0.897   4.899  0.4844  0.6080 -0.0646
 6869TIP3    H142098   3.240   0.832   4.888  0.0275  0.5856  2.3592
 6869TIP3    H242099   3.264   0.981   4.888  0.1472  0.5828  1.0467
 6870TIP3   OH242100   0.076   5.926  13.540 -0.4879 -0.3978 -0.3148
 6870TIP3    H142101   0.157   5.889  13.504  0.5201  0.7559  0.6630
 6870TIP3    H242102   0.019   5.937  13.464  1.4107  1.5820 -1.5756
 6871TIP3   OH242103   6.272   4.744   0.938 -0.4750  0.5925 -0.7473
 6871TIP3    H142104   6.190   4.715   0.977 -0.5020  0.7578 -0.6814
 6871TIP3    H242105   6.330   4.760   1.012  0.8880 -3.0654 -0.7846
 6872TIP3   OH242106   3.411   5.021   0.547  0.2419 -1.2281  0.1194
 6872TIP3    H142107   3.462   5.017   0.466 -2.0582 -1.9259 -1.3831
 6872TIP3    H242108   3.346   5.089   0.532 -0.5007 -1.6652  1.1994
 6873TIP3   OH242109   5.656   0.337  11.988 -0.3878 -0.3778  0.3445
 6873TIP3    H142110   5.603   0.377  11.919 -0.9842 -0.1780  0.9029
 6873TIP3    H242111   5.661   0.404  12.057  1.2368 -0.1046  0.0043
 6874TIP3   OH242112   0.633   4.495  14.574 -0.0825  0.3526 -0.0957
 6874TIP3    H142113   0.627   4.484  14.669  0.7896 -0.0946 -0.0896
 6874TIP3    H242114   0.642   4.589  14.562 -1.3855  0.5401  0.1859
 6875TIP3   OH242115   3.179   2.179   0.339  0.2134  0.4672 -0.3622
 6875TIP3    H142116   3.268   2.146   0.348 -0.4673 -1.8041 -1.0233
 6875TIP3    H242117   3.149   2.191   0.429  1.5076  2.3533 -0.1400
 6876TIP3   OH242118   0.050   2.718   1.105 -0.3069 -0.4064  0.7861
 6876TIP3    H142119  -0.043   2.700   1.118 -0.2227 -1.6350 -0.0878
 6876TIP3    H242120   0.052   2.800   1.055 -1.0635 -1.6678 -1.4471
 6877TIP3   OH242121   5.095   0.603  11.576  0.5846  0.5729  0.4179
 6877TIP3    H142122   5.087   0.509  11.595  0.4142  0.5006 -0.0034
 6877TIP3    H242123   5.127   0.641  11.658 -0.2650  0.2802  0.9009
 6878TIP3   OH242124   4.465   1.245  16.699 -0.1183  0.4799  0.8416
 6878TIP3    H142125   4.505   1.196  16.772 -3.0713 -0.5793  1.9026
 6878TIP3    H242126   4.402   1.184  16.662 -0.9679  2.1203 -0.5288
 6879TIP3   OH242127   3.502   6.482  16.856  0.5420 -0.2306 -0.0484
 6879TIP3    H142128   3.578   6.537  16.878 -0.5161  1.5810 -0.6980
 6879TIP3    H242129   3.484   6.434  16.936  1.6966  0.1542  0.4664
 6880TIP3   OH242130   5.399   2.091   4.796  0.3251  0.0521  0.5171
 6880TIP3    H142131   5.423   2.073   4.887 -0.9552 -1.9621  0.5246
 6880TIP3    H242132   5.393   2.186   4.790 -0.0210  0.2072  2.6668
 6881TIP3   OH242133   5.241   3.221  16.237 -0.0869 -0.8089  0.1317
 6881TIP3    H142134   5.205   3.133  16.247 -2.5833  0.1099 -0.0290
 6881TIP3    H242135   5.239   3.237  16.142 -2.3329  0.3974  0.3311
 6882TIP3   OH242136   4.948   6.777  12.635  0.2431  0.4494  0.1367
 6882TIP3    H142137   4.945   6.790  12.540  0.8073 -0.4974 -0.0287
 6882TIP3    H242138   4.963   6.864  12.671 -0.4106  0.8827 -0.6156
 6883TIP3   OH242139   3.486   4.784  12.889  0.4841 -0.8478 -0.0184
 6883TIP3    H142140   3.428   4.845  12.842  0.8561 -0.2035  0.3379
 6883TIP3    H242141   3.524   4.729  12.821  1.5802  0.5493 -0.5913
 6884TIP3   OH242142   0.139   6.212   3.948  0.3606  0.6287  0.0175
 6884TIP3    H142143   0.096   6.159   4.015 -0.0849  0.7965 -0.1368
 6884TIP3    H242144   0.103   6.181   3.865  0.0122  1.2420 -0.0683
 6885TIP3   OH242145   1.003   6.861  13.037 -0.0738 -1.0556  0.3600
 6885TIP3    H142146   1.053   6.849  13.117  1.5425  2.3071  0.0154
 6885TIP3    H242147   1.060   6.830  12.967 -0.1805 -1.0266  0.2593
 6886TIP3   OH242148   3.257   1.002   5.666 -0.0659  0.2679  0.0754
 6886TIP3    H142149   3.170   1.038   5.684 -0.6692 -0.7981 -0.6014
 6886TIP3    H242150   3.316   1.053   5.722 -1.3116 -0.0614  1.7847
 6887TIP3   OH242151   0.468   5.839  12.571 -0.1653 -0.1163  0.6455
 6887TIP3    H142152   0.475   5.854  12.666 -0.2416 -1.7839  0.9558
 6887TIP3    H242153   0.549   5.791  12.549 -0.1853  0.2001 -0.1171
 6888TIP3   OH242154   1.065   4.693   3.464  0.4411 -0.2253  0.2471
 6888TIP3    H142155   1.023   4.615   3.428 -0.3843  0.5890 -0.6002
 6888TIP3    H242156   1.148   4.661   3.499  0.0053 -1.5235  0.1416
 6889TIP3   OH242157   5.676   4.080  10.773  0.3385 -0.4888 -0.9585
 6889TIP3    H142158   5.610   4.011  10.762 -2.9045  2.2759 -0.4300
 6889TIP3    H242159   5.646   4.152  10.718  2.4357  1.2895  0.0461
 6890TIP3   OH242160   6.295   0.474   2.975 -0.3650 -0.2508  0.7459
 6890TIP3    H142161   6.220   0.463   2.916 -0.4301  2.0138  0.2988
 6890TIP3    H242162   6.280   0.410   3.045 -0.7614 -2.3733 -1.1715
 6891TIP3   OH242163   6.190   5.493  16.704  0.2510 -0.6016 -0.5544
 6891TIP3    H142164   6.119   5.505  16.767  1.4786 -1.6873  1.0915
 6891TIP3    H242165   6.266   5.532  16.746  1.2607 -1.9962 -1.0284
 6892TIP3   OH242166   0.343   0.252  16.869 -0.6460  0.1509 -0.1487
 6892TIP3    H142167   0.321   0.303  16.791  1.3537  1.1873 -0.0968
 6892TIP3    H242168   0.283   0.177  16.867 -0.6283  0.1361 -2.6789
 6893TIP3   OH242169   3.310   5.964   3.562 -0.8527 -0.1991 -0.1064
 6893TIP3    H142170   3.400   5.942   3.537 -1.6002 -1.8212 -1.5878
 6893TIP3    H242171   3.278   6.019   3.491 -0.9080  0.7676  0.6521
 6894TIP3   OH242172   3.521   5.061  10.342 -0.6682  0.0728  0.5328
 6894TIP3    H142173   3.436   5.046  10.384 -1.3829  0.2010 -0.8169
 6894TIP3    H242174   3.577   4.991  10.375 -1.0781  0.4004  1.9950
 6895TIP3   OH242175   5.494   2.908  10.409  0.1379 -0.2863  0.1508
 6895TIP3    H142176   5.520   2.847  10.478  0.2013 -1.0361 -0.5176
 6895TIP3    H242177   5.400   2.921  10.422  0.2366 -0.0660  0.6473
 6896TIP3   OH242178   3.221   1.362  12.047  0.4772 -0.4005  0.6147
 6896TIP3    H142179   3.189   1.298  12.110  0.9935 -1.9438 -0.6187
 6896TIP3    H242180   3.260   1.431  12.100 -2.0693  0.0393  2.0656
 6897TIP3   OH242181   6.172   5.911   0.824  0.1275 -0.1112  0.2750
 6897TIP3    H142182   6.256   5.874   0.853 -0.1362 -2.2985 -1.4728
 6897TIP3    H242183   6.177   5.908   0.728 -2.1047 -0.7755  0.1201
 6898TIP3   OH242184   0.120   3.602   1.129  0.0765  0.5705  0.2112
 6898TIP3    H142185   0.033   3.639   1.144 -0.4807 -0.4594 -0.3488
 6898TIP3    H242186   0.142   3.624   1.039 -0.4973 -0.8468 -0.3125
 6899TIP3   OH242187   5.022   6.431   1.373  0.1745 -0.0217 -0.1059
 6899TIP3    H142188   5.048   6.367   1.439  1.7191 -0.2480 -0.8873
 6899TIP3    H242189   5.026   6.382   1.290 -0.5766  0.5713 -0.5106
 6900TIP3   OH242190   5.774   0.219  16.871  0.7790  0.3427  0.3864
 6900TIP3    H142191   5.683   0.231  16.897  0.3466 -2.5835  0.5429
 6900TIP3    H242192   5.772   0.220  16.775  1.1793  3.5561  0.3280
 6901TIP3   OH242193   4.404   2.731  16.783 -0.2469  0.0911  0.5548
 6901TIP3    H142194   4.444   2.731  16.696  0.3662  0.5950  0.8281
 6901TIP3    H242195   4.312   2.751  16.766  0.2120  2.0567  0.1518
 6902TIP3   OH242196   2.834   6.779  13.102 -0.5068  0.0816 -0.3035
 6902TIP3    H142197   2.918   6.734  13.094 -0.1929  0.8431 -1.5747
 6902TIP3    H242198   2.829   6.804  13.194  0.5156 -0.2435 -0.1415
 6903TIP3   OH242199   3.227   4.965   1.556  0.2066 -0.2242  0.6070
 6903TIP3    H142200   3.163   4.922   1.613 -0.3552  1.0559  0.9803
 6903TIP3    H242201   3.274   4.893   1.515 -0.7046 -1.1945  1.1967
 6904TIP3   OH242202   2.738   0.054   2.911 -0.3870 -0.0998  0.4840
 6904TIP3    H142203   2.762   0.145   2.925  0.6553 -0.3051  0.0808
 6904TIP3    H242204   2.742   0.015   2.998 -0.9118  0.2462  0.6706
 6905TIP3   OH242205   3.169   3.428  16.698 -0.2423  0.0453 -0.4518
 6905TIP3    H142206   3.229   3.444  16.625  0.2155 -0.0929 -0.1065
 6905TIP3    H242207   3.092   3.481  16.677 -1.3260 -2.0859 -2.4893
 6906TIP3   OH242208   1.297   4.369  10.619  0.3714 -0.0454  0.0858
 6906TIP3    H142209   1.280   4.290  10.567  0.4015  1.0047 -1.6158
 6906TIP3    H242210   1.370   4.345  10.676 -0.2620 -1.5286  0.3286
 6907TIP3   OH242211   3.800   4.151   1.136  0.4562 -0.3596 -0.1431
 6907TIP3    H142212   3.738   4.182   1.071  0.0758 -1.5026 -0.3440
 6907TIP3    H242213   3.818   4.228   1.191 -0.5870  0.1630 -0.5078
 6908TIP3   OH242214   3.602   4.628   3.848 -0.1918  0.3878 -0.0363
 6908TIP3    H142215   3.613   4.549   3.795 -1.4668  0.2908 -0.1760
 6908TIP3    H242216   3.530   4.607   3.907 -0.9292  1.6571 -0.4649
 6909TIP3   OH242217   3.315   3.246  11.620  0.5060 -0.0234  0.6111
 6909TIP3    H142218   3.398   3.259  11.573  0.8180  0.4864  1.2966
 6909TIP3    H242219   3.322   3.301  11.698 -0.1585 -0.5889  1.0807
 6910TIP3   OH242220   6.325   1.826  15.859 -0.2074 -0.1517  0.4887
 6910TIP3    H142221   6.350   1.758  15.796 -1.3151 -0.9556  0.8699
 6910TIP3    H242222   6.406   1.845  15.907  0.1576 -1.1050  0.2751
 6911TIP3   OH242223   1.178   2.691   1.941 -0.2474  1.1314  0.5820
 6911TIP3    H142224   1.120   2.627   1.982  0.3312  0.4859  0.4232
 6911TIP3    H242225   1.125   2.770   1.932 -1.2304  0.4316  0.0496
 6912TIP3   OH242226   1.305   5.835   6.660  0.5100  0.1645  0.6080
 6912TIP3    H142227   1.226   5.885   6.641 -0.4844 -2.1598 -2.0497
 6912TIP3    H242228   1.370   5.870   6.599  0.4163 -0.3302  0.2128
 6913TIP3   OH242229   3.111   6.186  16.156  0.6667 -0.4258 -0.1385
 6913TIP3    H142230   3.167   6.153  16.087 -0.4044  0.5175 -1.5333
 6913TIP3    H242231   3.153   6.267  16.185  0.4737 -0.1672 -0.5765
 6914TIP3   OH242232   4.829   0.842  11.902  0.6874  0.1843  0.3219
 6914TIP3    H142233   4.757   0.888  11.944 -0.3479 -1.0439 -0.0583
 6914TIP3    H242234   4.836   0.882  11.815 -1.3371 -1.4195 -0.6611
 6915TIP3   OH242235   2.433   3.049  11.757 -0.2069 -0.3864 -0.6868
 6915TIP3    H142236   2.413   3.139  11.782  0.6568 -0.5852  0.8690
 6915TIP3    H242237   2.520   3.054  11.718 -0.3919 -0.4771 -1.1149
 6916TIP3   OH242238   4.055   6.566   0.357 -0.0052  0.0884  0.2823
 6916TIP3    H142239   3.967   6.582   0.391  0.2589 -0.5834  1.3029
 6916TIP3    H242240   4.064   6.629   0.285 -1.6782 -0.5024 -0.4982
 6917TIP3   OH242241   5.141   4.269   4.428 -0.3647  0.1458  0.0119
 6917TIP3    H142242   5.124   4.337   4.493  0.1148  0.5989 -0.3259
 6917TIP3    H242243   5.074   4.202   4.445 -1.3536  1.0695 -0.1740
 6918TIP3   OH242244   5.995   3.046  16.073  0.0201 -0.4329 -0.3322
 6918TIP3    H142245   5.936   3.025  16.001 -0.4265  0.2204 -0.1581
 6918TIP3    H242246   5.939   3.086  16.140  0.6174  0.0084 -0.0867
 6919TIP3   OH242247   1.992   1.603   1.218  0.2245 -0.1183 -0.2267
 6919TIP3    H142248   1.946   1.636   1.295 -1.3276 -1.7608 -0.3789
 6919TIP3    H242249   2.066   1.663   1.206 -0.1833  0.8615  1.8113
 6920TIP3   OH242250   3.161   0.665   4.192 -0.0850 -0.1738 -0.1269
 6920TIP3    H142251   3.194   0.743   4.236 -1.5129 -0.8979  2.3673
 6920TIP3    H242252   3.067   0.681   4.180 -0.1282 -0.9181 -0.9228
 6921TIP3   OH242253   1.514   2.461   4.387  0.7409 -0.3789  0.3514
 6921TIP3    H142254   1.548   2.520   4.320  1.0832 -0.0265  0.8288
 6921TIP3    H242255   1.440   2.417   4.345  0.9043 -0.1096 -0.2290
 6922TIP3   OH242256   0.961   5.238  13.748  0.1871 -0.0678 -0.7949
 6922TIP3    H142257   0.898   5.297  13.790 -0.4138 -1.0313 -0.3093
 6922TIP3    H242258   1.047   5.273  13.771 -0.1549  0.3123 -0.0624
 6923TIP3   OH242259   0.759   5.861  11.970 -0.3551  0.0256  0.1115
 6923TIP3    H142260   0.720   5.899  11.891  0.6099  0.7721 -0.0267
 6923TIP3    H242261   0.775   5.937  12.027  2.3071  0.0138 -0.4702
 6924TIP3   OH242262   4.430   3.690  16.340 -0.0513 -0.1280 -0.4492
 6924TIP3    H142263   4.516   3.680  16.299  0.2277 -1.7133  0.4595
 6924TIP3    H242264   4.382   3.612  16.314 -0.3632 -0.4632  1.0438
 6925TIP3   OH242265   2.822   2.366   2.240 -0.3076 -0.8772  0.1615
 6925TIP3    H142266   2.890   2.367   2.307  0.6479  0.8335 -0.7484
 6925TIP3    H242267   2.740   2.362   2.289  0.3018  1.5491  1.5624
 6926TIP3   OH242268   6.086   2.754  12.910  0.1805 -0.2537  0.1087
 6926TIP3    H142269   6.140   2.706  12.848  0.6747  0.6466 -0.1778
 6926TIP3    H242270   5.996   2.736  12.883  0.3906  0.7812 -1.3983
 6927TIP3   OH242271   1.945   5.348  16.167 -0.4274 -0.2710 -0.0645
 6927TIP3    H142272   1.864   5.391  16.195 -1.5573 -1.6830 -1.0217
 6927TIP3    H242273   2.005   5.357  16.241 -1.1311  1.5826  0.3252
 6928TIP3   OH242274   2.227   5.897   4.909 -0.3390 -0.1889 -0.2046
 6928TIP3    H142275   2.269   5.903   4.995 -0.4555 -1.4257 -0.0370
 6928TIP3    H242276   2.198   5.986   4.890 -0.9620 -0.0215  1.3634
 6929TIP3   OH242277   0.589   0.985  13.853  0.0450 -0.3621  0.1739
 6929TIP3    H142278   0.568   1.006  13.762 -1.0788  0.5100  0.5999
 6929TIP3    H242279   0.683   1.001  13.861  0.2900 -1.1362 -0.9988
 6930TIP3   OH242280   4.471   4.113  15.882  0.6355 -0.1442 -0.0976
 6930TIP3    H142281   4.492   4.202  15.910  1.9478 -0.7861  1.1175
 6930TIP3    H242282   4.384   4.119  15.843 -0.3225  1.2661  2.0769
 6931TIP3   OH242283   5.475   4.347   4.834  0.2412 -0.0424  0.1041
 6931TIP3    H142284   5.473   4.297   4.915 -0.5535  0.4693  0.4123
 6931TIP3    H242285   5.535   4.419   4.851 -0.3779  0.4009  0.4524
 6932TIP3   OH242286   1.535   4.872   5.095 -0.7143 -0.2820 -0.2072
 6932TIP3    H142287   1.619   4.874   5.142 -1.4958  0.3712  1.2024
 6932TIP3    H242288   1.484   4.804   5.139 -0.9901 -0.6045 -0.9911
 6933TIP3   OH242289   1.113   4.980  12.068 -0.0474 -0.0676  0.4312
 6933TIP3    H142290   1.032   4.929  12.070  0.2351 -0.5519 -0.0800
 6933TIP3    H242291   1.110   5.032  12.148 -1.2806  0.5896 -0.0031
 6934TIP3   OH242292   4.086   4.365   0.008  0.2409  0.1268 -0.3346
 6934TIP3    H142293   4.145   4.378   0.082 -0.9489 -0.5416  0.7613
 6934TIP3    H242294   4.047   4.451  -0.006  0.8080  0.3650 -0.4990
 6935TIP3   OH242295   3.023   4.349  12.740  0.2999 -0.0140  0.5231
 6935TIP3    H142296   3.049   4.282  12.803  0.4459 -1.3971 -0.9445
 6935TIP3    H242297   3.102   4.401  12.726  0.6751 -0.5974  0.4297
 6936TIP3   OH242298   3.852   6.645   1.982 -0.3413  0.0727 -0.2086
 6936TIP3    H142299   3.903   6.726   1.978  0.2295 -0.3173 -1.2760
 6936TIP3    H242300   3.916   6.577   2.004 -0.8886 -0.0489  1.0829
 6937TIP3   OH242301   0.733   1.704  15.319  0.5126 -0.0904 -0.3613
 6937TIP3    H142302   0.747   1.797  15.338 -0.6226 -0.1434  0.9273
 6937TIP3    H242303   0.802   1.658  15.367  1.6648  0.0998 -1.7661
 6938TIP3   OH242304   4.850   1.393   2.381  0.2594  0.2057  0.2075
 6938TIP3    H142305   4.887   1.449   2.449  0.5078 -0.8590  0.9769
 6938TIP3    H242306   4.902   1.312   2.386  0.2099  0.0745 -1.1842
 6939TIP3   OH242307   0.997   4.684  14.934 -0.0776  0.2844  0.0817
 6939TIP3    H142308   1.037   4.740  14.867 -0.1624  0.1060 -0.1157
 6939TIP3    H242309   0.954   4.746  14.993 -0.3292  0.4187 -0.2398
 6940TIP3   OH242310   1.342   2.717  14.348 -0.1874  0.5075  0.3414
 6940TIP3    H142311   1.395   2.644  14.315 -0.0735  0.5306  0.4730
 6940TIP3    H242312   1.405   2.789  14.359 -0.0752  0.2653  1.3783
 6941TIP3   OH242313   6.783   0.468  13.399  0.7603 -0.1125 -0.2042
 6941TIP3    H142314   6.847   0.531  13.367  1.6834 -1.0071 -0.1780
 6941TIP3    H242315   6.828   0.383  13.394 -0.7920 -0.9262 -1.2268
 6942TIP3   OH242316   0.780   4.595   1.478  0.6514 -0.2747 -0.3131
 6942TIP3    H142317   0.804   4.504   1.461 -3.9140 -2.3739  2.5153
 6942TIP3    H242318   0.787   4.639   1.393  1.0138 -3.8137 -2.2709
 6943TIP3   OH242319   1.135   0.528   0.570  0.7832 -0.4401 -0.1167
 6943TIP3    H142320   1.219   0.486   0.587 -0.4075 -2.6590  0.9009
 6943TIP3    H242321   1.080   0.501   0.645 -0.4607  2.0159 -0.0626
 6944TIP3   OH242322   0.644   6.500   3.695  0.1436  0.1416 -0.1181
 6944TIP3    H142323   0.685   6.515   3.780  1.3817 -1.1280 -0.4643
 6944TIP3    H242324   0.681   6.567   3.638  0.8463 -0.2483 -0.1301
 6945TIP3   OH242325   6.213   3.109   6.043 -0.6708 -0.9831 -1.1386
 6945TIP3    H142326   6.232   3.125   5.950 -1.6984 -1.3704 -1.4343
 6945TIP3    H242327   6.141   3.046   6.042  0.6013 -2.5118 -0.0469
 6946TIP3   OH242328   4.712   4.846  15.038  0.0481  0.4287  0.0322
 6946TIP3    H142329   4.742   4.796  14.962 -0.5948  1.1297 -0.7018
 6946TIP3    H242330   4.639   4.898  15.005 -2.4381 -1.6326  1.8557
 6947TIP3   OH242331   1.707   5.086   0.471 -0.2995 -0.0428 -0.1846
 6947TIP3    H142332   1.681   5.004   0.513 -1.4553 -0.3847 -1.4901
 6947TIP3    H242333   1.693   5.070   0.377  0.9589  1.1284 -0.5956
 6948TIP3   OH242334   3.601   6.767  16.208  0.4232  0.4892 -0.8442
 6948TIP3    H142335   3.642   6.780  16.294 -2.1120  1.5686  0.3092
 6948TIP3    H242336   3.623   6.846  16.159  0.2510  0.7709 -0.4711
 6949TIP3   OH242337   5.301   5.927  15.471  0.7557 -0.2459 -0.1824
 6949TIP3    H142338   5.322   5.992  15.403 -1.7462  0.7043 -0.1397
 6949TIP3    H242339   5.217   5.890  15.445 -0.2179  0.0194  2.2498
 6950TIP3   OH242340   2.259   3.490  16.900 -0.2839  0.1290  0.1898
 6950TIP3    H142341   2.181   3.443  16.930  1.2767 -3.0601 -0.3228
 6950TIP3    H242342   2.332   3.439  16.935  1.5906  2.1090 -0.6422
 6951TIP3   OH242343   1.983   0.206  15.525 -0.2216  0.4010 -0.0984
 6951TIP3    H142344   1.916   0.271  15.545 -2.5312 -1.9361  0.3721
 6951TIP3    H242345   1.990   0.206  15.430 -1.2277  0.4011 -0.1744
 6952TIP3   OH242346   4.325   4.135  14.362 -0.0051 -0.3528  0.3789
 6952TIP3    H142347   4.305   4.214  14.312 -2.2480 -1.2155 -0.2351
 6952TIP3    H242348   4.239   4.100  14.385  0.9482 -2.1780  1.3575
 6953TIP3   OH242349   2.443   6.509  14.909  0.0380  0.5923  0.6423
 6953TIP3    H142350   2.535   6.494  14.930  0.3102  0.3926 -0.6584
 6953TIP3    H242351   2.429   6.465  14.826 -0.9611  1.5463  0.2746
 6954TIP3   OH242352   3.415   1.866   1.129  0.0754  0.4798 -0.2781
 6954TIP3    H142353   3.335   1.891   1.083  0.2661  1.1104 -0.2810
 6954TIP3    H242354   3.417   1.771   1.126 -0.3278  0.4910 -0.8688
 6955TIP3   OH242355   0.726   0.131   0.824  0.1746  0.0566 -0.0550
 6955TIP3    H142356   0.754   0.191   0.893 -0.7278  0.1262  0.2554
 6955TIP3    H242357   0.687   0.187   0.757  1.4763  0.0388 -0.8660
 6956TIP3   OH242358   2.709   4.591  14.305  0.0279  0.5402 -0.1338
 6956TIP3    H142359   2.767   4.544  14.365  0.4671  1.2810  0.0407
 6956TIP3    H242360   2.695   4.531  14.232  1.6486  0.6206 -0.5485
 6957TIP3   OH242361   1.552   4.339  14.803  0.5002 -0.0083 -0.3529
 6957TIP3    H142362   1.621   4.405  14.801  1.2789 -0.7688  0.2920
 6957TIP3    H242363   1.541   4.313  14.712  2.1340 -0.9232 -0.3370
 6958TIP3   OH242364   3.383   1.508  13.880  0.3611  0.5428 -0.0356
 6958TIP3    H142365   3.368   1.423  13.922  0.7260  0.4194 -0.1554
 6958TIP3    H242366   3.312   1.563  13.913 -1.4801 -0.5089 -1.9580
 6959TIP3   OH242367   0.084   5.899   5.685  0.2687 -0.2280 -0.0408
 6959TIP3    H142368   0.078   5.889   5.780 -0.4718 -0.6808 -0.1283
 6959TIP3    H242369   0.005   5.948   5.661  0.5679  0.0895 -0.3962
 6960TIP3   OH242370   1.185   2.800  12.264  0.0581 -0.3794 -0.2197
 6960TIP3    H142371   1.146   2.772  12.346  1.3175  0.8759  0.8615
 6960TIP3    H242372   1.114   2.843  12.217 -0.7997 -1.5417 -0.0426
 6961TIP3   OH242373   4.379   4.884   5.269 -0.0196 -0.2673 -0.9803
 6961TIP3    H142374   4.396   4.942   5.194 -1.1456  0.7470 -0.4886
 6961TIP3    H242375   4.288   4.857   5.259 -0.5013  0.6643  0.4990
 6962TIP3   OH242376   5.586   0.544   6.054 -0.4929 -0.8767  0.0155
 6962TIP3    H142377   5.612   0.628   6.016 -1.2972  0.5462  2.3802
 6962TIP3    H242378   5.492   0.538   6.037 -0.7957 -0.3839  1.3282
 6963TIP3   OH242379   0.051   1.753   1.767  0.4041  0.2702 -0.5133
 6963TIP3    H142380   0.084   1.745   1.857  0.9267 -1.6657 -0.8285
 6963TIP3    H242381   0.097   1.829   1.731  1.3771  0.1182  0.3721
 6964TIP3   OH242382   2.295   2.874   4.538 -0.1072  0.7333 -0.4388
 6964TIP3    H142383   2.388   2.897   4.537 -0.1031  0.7170 -1.4237
 6964TIP3    H242384   2.292   2.783   4.509 -0.3931  0.5647  0.1092
 6965TIP3   OH242385   4.319   1.657   0.726 -0.4069 -0.0657 -0.8679
 6965TIP3    H142386   4.379   1.728   0.701 -0.2682  0.1217 -0.0125
 6965TIP3    H242387   4.234   1.700   0.734 -0.8458 -0.4589 -2.8039
 6966TIP3   OH242388   5.726   0.862   5.389  0.1105  0.5240  0.0628
 6966TIP3    H142389   5.663   0.934   5.393 -1.0731 -0.3924 -1.0097
 6966TIP3    H242390   5.752   0.858   5.297  1.1052  0.3606  0.3433
 6967TIP3   OH242391   0.021   3.400   0.483  0.6697 -0.3287  0.7052
 6967TIP3    H142392   0.107   3.398   0.525  0.9838  1.7835  0.2463
 6967TIP3    H242393   0.030   3.340   0.408  2.4481  1.3930 -0.5662
 6968TIP3   OH242394   0.027   1.604   0.697 -0.0988 -0.2360 -0.1055
 6968TIP3    H142395   0.040   1.584   0.790  1.4725 -0.4821 -0.3479
 6968TIP3    H242396   0.115   1.614   0.662 -0.6823  1.4274 -1.2584
 6969TIP3   OH242397   0.288   0.235  15.432  0.2510 -0.1355  0.3876
 6969TIP3    H142398   0.251   0.213  15.517  1.1659  2.2641  1.5221
 6969TIP3    H242399   0.227   0.300  15.395  0.6761  0.0358 -0.0377
 6970TIP3   OH242400   0.109   4.210   1.096 -0.1909 -0.1867 -0.0758
 6970TIP3    H142401   0.108   4.157   1.176  1.4581 -0.3834 -0.1387
 6970TIP3    H242402   0.057   4.160   1.033 -2.4874  0.5422  1.1718
 6971TIP3   OH242403   5.342   0.859  15.854 -0.3127  0.2061  0.6219
 6971TIP3    H142404   5.361   0.832  15.944  1.8539  0.7121  0.3508
 6971TIP3    H242405   5.398   0.804  15.800  0.9404  2.1771 -0.1875
 6972TIP3   OH242406   0.979   5.541  16.244  0.0127 -0.0214 -0.3373
 6972TIP3    H142407   1.074   5.530  16.236 -0.1387 -0.5250 -1.9965
 6972TIP3    H242408   0.945   5.511  16.159 -1.2329  5.1559 -2.0415
 6973TIP3   OH242409   2.543   4.665  15.203  0.4376 -0.2554  0.5428
 6973TIP3    H142410   2.629   4.671  15.245  2.2195 -1.2359 -2.6773
 6973TIP3    H242411   2.561   4.627  15.117 -3.2503 -0.4229 -0.2943
 6974TIP3   OH242412   3.620   2.089  14.769 -0.3197 -0.6300  0.0936
 6974TIP3    H142413   3.646   2.071  14.679  2.0674 -1.1939  0.8103
 6974TIP3    H242414   3.566   2.014  14.794 -2.8715  0.5667 -1.4606
 6975TIP3   OH242415   2.445   3.359  14.349  0.0945  0.2588 -0.3175
 6975TIP3    H142416   2.456   3.277  14.301 -1.6393  1.4994 -3.0760
 6975TIP3    H242417   2.517   3.415  14.318 -1.5580  1.3845 -2.4257
 6976TIP3   OH242418   1.390   0.344  14.611 -0.4281  0.4083 -0.3550
 6976TIP3    H142419   1.408   0.332  14.517  0.1234  2.2072 -0.5228
 6976TIP3    H242420   1.456   0.291  14.655 -0.2784  0.0598 -0.9950
 6977TIP3   OH242421   2.123   1.778   3.401  0.1755 -0.4924  0.2594
 6977TIP3    H142422   2.173   1.701   3.377  0.3821 -0.3222  0.1384
 6977TIP3    H242423   2.061   1.747   3.467  0.7593 -0.6124  0.7667
 6978TIP3   OH242424   2.148   6.524   2.896  0.1623 -0.3793 -0.1979
 6978TIP3    H142425   2.165   6.590   2.963 -0.0430  1.9002 -2.2444
 6978TIP3    H242426   2.070   6.555   2.849  1.2255 -0.9435 -2.5245
 6979TIP3   OH242427   4.872   4.539  11.628  0.1256 -0.3548 -0.1732
 6979TIP3    H142428   4.962   4.507  11.632 -0.1625 -1.0846  1.4843
 6979TIP3    H242429   4.881   4.633  11.616  1.1119 -0.3958  0.1134
 6980TIP3   OH242430   2.016   5.049  14.384 -0.1731  0.3759 -0.4213
 6980TIP3    H142431   1.990   5.130  14.429 -0.1229  0.7771 -1.0915
 6980TIP3    H242432   2.111   5.055  14.379 -0.2933  1.7665 -3.0853
 6981TIP3   OH242433   4.428   4.547  15.187  0.0812  0.2216 -0.3624
 6981TIP3    H142434   4.423   4.483  15.259 -1.7669  2.0467  1.2716
 6981TIP3    H242435   4.517   4.539  15.154  0.9378 -0.9021  1.9745
 6982TIP3   OH242436   3.234   1.372   6.112  0.0207 -0.5201  0.3415
 6982TIP3    H142437   3.314   1.423   6.098 -0.4396  0.8927  2.4495
 6982TIP3    H242438   3.259   1.305   6.176 -0.3398 -0.4149  0.5962
 6983TIP3   OH242439   1.795   2.287  11.661 -0.1591  0.4212  0.3731
 6983TIP3    H142440   1.816   2.214  11.603  1.1492  1.5473 -0.6577
 6983TIP3    H242441   1.817   2.365  11.610 -3.0791  1.6562  0.7907
 6984TIP3   OH242442   1.299   4.750   0.432 -0.3401  0.8083  0.4854
 6984TIP3    H142443   1.210   4.769   0.464 -0.5976  1.2610 -0.4528
 6984TIP3    H242444   1.291   4.664   0.391 -0.1023  0.4035  1.2691
 6985TIP3   OH242445   4.260   3.453  15.610 -0.4879  0.6363  0.6691
 6985TIP3    H142446   4.221   3.507  15.541  0.4296  2.1180  1.2685
 6985TIP3    H242447   4.246   3.363  15.580 -1.8854  1.1784 -0.4607
 6986TIP3   OH242448   2.110   1.842   4.574 -0.5134  0.9388 -0.1349
 6986TIP3    H142449   2.076   1.757   4.547 -1.0947  0.7173  1.2240
 6986TIP3    H242450   2.204   1.828   4.587 -0.6176  0.4858  0.1372
 6987TIP3   OH242451   1.943   5.502   6.247  0.2169 -0.0181 -0.5084
 6987TIP3    H142452   1.974   5.554   6.173  2.0356 -0.8821 -0.4290
 6987TIP3    H242453   1.904   5.566   6.306  0.6861  0.9964 -1.2606
 6988TIP3   OH242454   0.388   5.241   3.995  0.1075 -0.1266 -0.2236
 6988TIP3    H142455   0.298   5.272   3.990 -0.4615 -1.3927  1.2127
 6988TIP3    H242456   0.438   5.318   4.022 -0.2035  1.0411 -2.7110
 6989TIP3   OH242457   3.888   6.183  11.888  0.0203  0.5246 -0.0057
 6989TIP3    H142458   3.845   6.097  11.893 -0.7925  0.9558  0.7229
 6989TIP3    H242459   3.946   6.176  11.813 -0.4765 -0.4687 -0.3193
 6990TIP3   OH242460   2.975   3.973  15.448  0.0609  0.1102 -0.3302
 6990TIP3    H142461   2.983   3.878  15.456 -2.3380 -0.1099  0.5027
 6990TIP3    H242462   2.881   3.988  15.438  0.3208  2.4320  0.1126
 6991TIP3   OH242463   1.155   6.137   4.371  1.0196 -0.0681 -0.0174
 6991TIP3    H142464   1.115   6.056   4.340  0.9653  0.0172 -0.1738
 6991TIP3    H242465   1.241   6.139   4.329  2.0511 -1.2663  1.9053
 6992TIP3   OH242466   3.416   1.249   3.481  0.4660  0.4347 -0.5393
 6992TIP3    H142467   3.451   1.230   3.569 -2.1382 -1.0252  0.3087
 6992TIP3    H242468   3.393   1.341   3.484  0.7174  0.4848  0.1972
 6993TIP3   OH242469   0.238   0.855  16.708  0.2659  0.2169 -0.5808
 6993TIP3    H142470   0.261   0.922  16.772 -0.4287 -0.7515  0.7574
 6993TIP3    H242471   0.314   0.847  16.651  1.5335  0.0751  1.0672
 6994TIP3   OH242472   4.994   6.150   0.133  0.3245  0.1027 -0.4658
 6994TIP3    H142473   4.908   6.158   0.093 -0.1527 -1.0760  0.2988
 6994TIP3    H242474   5.043   6.226   0.099 -0.6283  0.1473 -1.8139
 6995TIP3   OH242475   0.807   4.152  15.637 -0.2675 -0.5078  0.0372
 6995TIP3    H142476   0.864   4.189  15.705 -0.7963 -0.2178  0.3284
 6995TIP3    H242477   0.824   4.058  15.639 -0.2020 -0.4858  0.4939
 6996TIP3   OH242478   5.555   1.425   3.506  0.2950  0.0825 -0.2567
 6996TIP3    H142479   5.639   1.380   3.520 -0.7076 -1.7361  0.2535
 6996TIP3    H242480   5.538   1.415   3.413 -1.1363 -3.0254  0.2262
 6997TIP3   OH242481   4.643   5.831  16.434 -0.4139 -0.2521 -0.2954
 6997TIP3    H142482   4.679   5.856  16.349  0.2473 -0.4188 -0.0668
 6997TIP3    H242483   4.707   5.770  16.471 -1.2749 -1.1358 -0.1971
 6998TIP3   OH242484   2.269   6.546  13.518 -0.3755  0.3212 -0.1118
 6998TIP3    H142485   2.185   6.502  13.501 -1.1285  0.9638  1.6507
 6998TIP3    H242486   2.272   6.555  13.614  0.1238  3.2634 -0.3161
 6999TIP3   OH242487   2.331   5.604  14.155 -0.2174 -0.3109  0.4895
 6999TIP3    H142488   2.309   5.610  14.062 -3.3688 -0.3956  1.0980
 6999TIP3    H242489   2.271   5.537  14.189  2.2452 -1.7891  2.2689
 7000TIP3   OH242490   5.895   1.783   3.360  0.1808 -0.4885  0.2667
 7000TIP3    H142491   5.915   1.801   3.268 -1.1950  0.3440  0.0848
 7000TIP3    H242492   5.980   1.775   3.403  0.8505  0.2657 -0.8719
 7001TIP3   OH242493   0.078   0.510  14.870 -0.3563  0.5407 -0.2430
 7001TIP3    H142494  -0.011   0.479  14.856 -1.0509  1.6742  1.3066
 7001TIP3    H242495   0.131   0.431  14.871 -1.1779 -0.0823 -2.1059
 7002TIP3   OH242496   3.180   0.270  16.333  0.0284 -0.4747  0.0180
 7002TIP3    H142497   3.122   0.196  16.351 -0.1313 -0.1754  0.7379
 7002TIP3    H242498   3.148   0.306  16.250 -0.3312 -0.7729  0.0265
 7003TIP3   OH242499   6.425   6.408  15.191  0.4890 -0.6102 -0.2968
 7003TIP3    H142500   6.495   6.435  15.132  0.0911 -2.2275 -1.5889
 7003TIP3    H242501   6.344   6.433  15.146  0.1831  0.1649  0.6316
 7004TIP3   OH242502   5.247   4.141   4.696 -0.0235 -0.2033 -0.0610
 7004TIP3    H142503   5.264   4.200   4.770  1.4689  0.0378 -0.5751
 7004TIP3    H242504   5.156   4.161   4.670 -0.0369  0.8135  0.7075
 7005TIP3   OH242505   5.639   3.270   0.301 -0.1266  0.4953  0.9537
 7005TIP3    H142506   5.714   3.211   0.293 -0.4396  0.2815 -1.1564
 7005TIP3    H242507   5.576   3.223   0.355  0.2821 -0.4173  0.6522
 7006TIP3   OH242508   1.579   1.684  12.002  0.6541  0.4008  0.2632
 7006TIP3    H142509   1.503   1.704  12.056 -0.3541 -0.2358 -0.8802
 7006TIP3    H242510   1.564   1.731  11.920  1.4012  0.1213 -0.0514
 7007TIP3   OH242511   1.676   3.999  11.112  0.2429 -0.2841  0.1095
 7007TIP3    H142512   1.746   3.947  11.073  0.1721 -0.3350  0.0523
 7007TIP3    H242513   1.639   3.943  11.180  2.7935  1.0725  2.8658
 7008TIP3   OH242514   5.653   0.039   0.684  0.1403 -0.6424  0.5495
 7008TIP3    H142515   5.615   0.012   0.767  0.5004 -1.2988  0.5028
 7008TIP3    H242516   5.638   0.134   0.681  0.3846 -0.5663  1.4934
 7009TIP3   OH242517   3.306   6.785  12.013  0.8894 -0.6439 -0.2090
 7009TIP3    H142518   3.359   6.754  12.086  0.8807 -1.4148 -0.5149
 7009TIP3    H242519   3.251   6.710  11.990  1.5810 -0.7613 -1.6282
 7010TIP3   OH242520   4.589   5.872   3.192 -0.1188 -0.1609  0.0802
 7010TIP3    H142521   4.633   5.869   3.107 -1.7761 -1.8472 -0.7909
 7010TIP3    H242522   4.616   5.792   3.237  2.0750  1.4789  1.9641
 7011TIP3   OH242523   0.687   6.277  15.271  0.2990 -0.0234 -0.4286
 7011TIP3    H142524   0.772   6.291  15.229 -0.3066 -0.7603 -1.9723
 7011TIP3    H242525   0.661   6.189  15.244 -0.4303 -0.2713  0.9865
 7012TIP3   OH242526   4.944   6.592   2.961  0.4120  0.1073  0.1167
 7012TIP3    H142527   4.977   6.659   2.902  1.8355 -1.4245 -0.9196
 7012TIP3    H242528   4.854   6.578   2.934  0.3527  1.0195 -0.1863
 7013TIP3   OH242529   6.310   6.289  12.769  0.5295  0.6577 -1.1509
 7013TIP3    H142530   6.239   6.252  12.822  0.0451  0.8929 -1.6169
 7013TIP3    H242531   6.303   6.384  12.784  0.0280  0.7749 -2.0497
 7014TIP3   OH242532   2.998   6.017  12.434  0.0511 -0.7380  0.4515
 7014TIP3    H142533   3.033   6.073  12.366  1.5236 -1.4133  0.6062
 7014TIP3    H242534   2.916   6.058  12.460 -1.1455 -1.0595 -2.4905
 7015TIP3   OH242535   3.502   5.201  11.675  0.2635 -0.1755  0.1765
 7015TIP3    H142536   3.428   5.152  11.711  0.8014 -0.9484  0.2453
 7015TIP3    H242537   3.558   5.135  11.634 -0.1644  0.6273 -1.8452
 7016TIP3   OH242538   6.116   4.194  14.315 -0.7212  0.2250  0.2691
 7016TIP3    H142539   6.203   4.231  14.330 -0.9178  0.0964  1.8350
 7016TIP3    H242540   6.103   4.203  14.220  0.8624  0.5175  0.0431
 7017TIP3   OH242541   2.585   5.138  13.862  0.3702 -0.3229  0.0613
 7017TIP3    H142542   2.642   5.066  13.889  0.9781 -0.2159 -0.8878
 7017TIP3    H242543   2.594   5.141  13.766  0.4340  1.0752  0.0944
 7018TIP3   OH242544   2.674   6.031   2.235  0.4359 -0.5110 -0.4085
 7018TIP3    H142545   2.680   6.121   2.205 -0.2020 -0.2511  0.2293
 7018TIP3    H242546   2.677   6.037   2.330  1.1930 -1.2281 -0.3696
 7019TIP3   OH242547   2.212   6.823  15.877  0.0208 -0.8065  0.2938
 7019TIP3    H142548   2.238   6.836  15.968  0.9140 -1.0500  0.0821
 7019TIP3    H242549   2.192   6.730  15.871 -0.9932 -0.6144  0.4646
 7020TIP3   OH242550   4.680   4.449   1.105  0.4904 -0.1634  0.0635
 7020TIP3    H142551   4.678   4.517   1.173  0.1927  0.8341 -0.9103
 7020TIP3    H242552   4.611   4.474   1.044 -0.2069 -1.8341  0.1091
 7021TIP3   OH242553   1.680   4.645   5.356 -0.0973 -0.0547 -0.1960
 7021TIP3    H142554   1.616   4.692   5.410  0.0338  0.2552 -0.3098
 7021TIP3    H242555   1.729   4.713   5.311  1.5626 -0.1993  1.2737
 7022TIP3   OH242556   1.720   2.993  10.977 -0.4377 -0.5375  0.0565
 7022TIP3    H142557   1.685   2.991  10.888 -2.0666  0.0301  0.6399
 7022TIP3    H242558   1.808   3.028  10.968 -1.3552  1.6697 -1.1259
 7023TIP3   OH242559   0.080   0.422   0.972 -0.2536  0.1954  0.4042
 7023TIP3    H142560   0.021   0.479   0.922  0.0646  0.6670  0.5510
 7023TIP3    H242561   0.041   0.336   0.967  0.0024  0.1317 -1.0629
 7024TIP3   OH242562   4.642   6.658  14.803 -0.3298 -0.1334  0.6327
 7024TIP3    H142563   4.592   6.705  14.736  0.6908  0.1025  0.0205
 7024TIP3    H242564   4.588   6.582  14.824 -0.8269 -0.0271 -0.2095
 7025TIP3   OH242565   2.124   1.175  12.682 -0.1425  0.4681  0.1924
 7025TIP3    H142566   2.184   1.245  12.656  0.2728  0.0559  0.0235
 7025TIP3    H242567   2.150   1.154  12.772  1.3949 -1.1391 -0.5555
 7026TIP3   OH242568   1.061   3.463  16.334  0.1271 -0.0328  0.0768
 7026TIP3    H142569   0.992   3.518  16.297 -0.1913 -0.3142  0.2425
 7026TIP3    H242570   1.099   3.515  16.404 -2.4464 -1.2342  2.5884
 7027TIP3   OH242571   5.981   6.713  15.893  0.1209 -0.1243  0.0157
 7027TIP3    H142572   5.918   6.785  15.897  0.1679  0.0685 -1.8317
 7027TIP3    H242573   5.938   6.641  15.939 -0.0812  0.9324  1.5698
 7028TIP3   OH242574   4.318   6.300  15.936  0.2095 -0.2171  0.3773
 7028TIP3    H142575   4.239   6.290  15.989  0.4480  0.9386  0.9842
 7028TIP3    H242576   4.289   6.283  15.846 -0.8332  0.5903  0.5336
 7029TIP3   OH242577   0.130   2.183  13.995  0.2009 -0.0547  0.1390
 7029TIP3    H142578   0.085   2.263  14.024  0.1676  0.0646 -0.2355
 7029TIP3    H242579   0.179   2.154  14.072 -0.8310 -0.4161  0.6927
 7030TIP3   OH242580   6.642   1.749  16.520 -1.0158  0.3207  0.3302
 7030TIP3    H142581   6.600   1.827  16.559 -1.4280 -0.0996  0.7397
 7030TIP3    H242582   6.688   1.708  16.593 -0.4913  0.3703  0.0361
 7031TIP3   OH242583   1.119   5.818   0.955 -0.3930  0.3317 -0.3735
 7031TIP3    H142584   1.150   5.908   0.965  0.8916  0.0063 -1.0551
 7031TIP3    H242585   1.190   5.774   0.907 -1.5547 -0.7155 -1.2112
 7032TIP3   OH242586   3.847   5.553  13.848  1.0985 -0.5031 -0.2865
 7032TIP3    H142587   3.811   5.520  13.766  1.2499 -1.4889  0.0345
 7032TIP3    H242588   3.915   5.490  13.871  2.0560  0.5475 -0.1454
 7033TIP3   OH242589   5.152   0.207   5.177  0.1162  0.5052 -0.0237
 7033TIP3    H142590   5.200   0.261   5.240 -0.3593  0.1682  0.6339
 7033TIP3    H242591   5.071   0.184   5.221  0.7839 -1.6831  0.1574
 7034TIP3   OH242592   0.244   2.335   0.414 -0.1067  0.0468  0.6808
 7034TIP3    H142593   0.208   2.257   0.456  0.7025  0.3121  1.9062
 7034TIP3    H242594   0.242   2.402   0.481  0.5211  0.6904  0.0733
 7035TIP3   OH242595   4.656   5.963   3.760 -0.3352 -0.1982 -0.2077
 7035TIP3    H142596   4.733   6.014   3.783  0.4305 -1.6810  0.6578
 7035TIP3    H242597   4.582   6.023   3.774  0.6659  2.1330 -3.4868
 7036TIP3   OH242598   6.838   4.783  16.438  0.0249 -0.0329  0.2123
 7036TIP3    H142599   6.898   4.813  16.506  2.0289 -1.0386 -0.9989
 7036TIP3    H242600   6.828   4.690  16.454 -0.5607 -0.0201 -0.0710
 7037TIP3   OH242601   1.927   3.734   0.956 -0.4049  0.2010  0.2369
 7037TIP3    H142602   2.011   3.697   0.984 -0.6505  0.6710  1.7074
 7037TIP3    H242603   1.948   3.791   0.882  0.0956 -2.1313 -1.5113
 7038TIP3   OH242604   0.908   6.664  12.034  0.3098  0.1910 -0.1085
 7038TIP3    H142605   0.980   6.682  11.975  0.5723  0.1344  0.1921
 7038TIP3    H242606   0.897   6.745  12.084  1.3205 -0.3656  1.0647
 7039TIP3   OH242607   5.595   6.791  16.626 -0.2698  0.5014 -0.6515
 7039TIP3    H142608   5.525   6.851  16.650  0.5900  1.4873 -0.5676
 7039TIP3    H242609   5.584   6.716  16.684 -1.4028  0.5220 -0.8152
 7040TIP3   OH242610   3.278   0.290   4.498 -0.1189  0.1485  0.1398
 7040TIP3    H142611   3.369   0.320   4.498 -0.5397  1.8551 -2.9934
 7040TIP3    H242612   3.227   0.370   4.503 -1.6495 -0.8301  3.4612
 7041TIP3   OH242613   6.603   1.127   0.537  0.6058 -0.3789 -0.6066
 7041TIP3    H142614   6.691   1.112   0.501  0.7455  0.4709 -0.6509
 7041TIP3    H242615   6.571   1.203   0.489  0.7908  0.7850  1.0227
 7042TIP3   OH242616   0.670   3.546  15.344 -0.0975 -0.3347 -0.0783
 7042TIP3    H142617   0.763   3.546  15.320 -0.0020  0.4662  0.2685
 7042TIP3    H242618   0.643   3.455  15.332  0.3043 -0.2688 -1.7695
 7043TIP3   OH242619   2.293   2.098  12.699  0.0079 -0.0987 -0.1215
 7043TIP3    H142620   2.220   2.041  12.674  1.5531 -1.8110 -1.0068
 7043TIP3    H242621   2.314   2.146  12.618  1.8642 -2.0260 -0.8915
 7044TIP3   OH242622   1.433   5.283  10.962  0.0030  0.5423  0.1947
 7044TIP3    H142623   1.478   5.204  10.934 -0.7953  0.9534 -2.5344
 7044TIP3    H242624   1.503   5.345  10.982  0.6291 -0.2626  0.5483
 7045TIP3   OH242625   1.054   1.972   1.611 -0.2069 -0.5689 -0.1504
 7045TIP3    H142626   1.038   2.052   1.662  0.5460 -0.6648  0.2627
 7045TIP3    H242627   1.048   1.901   1.675  0.5269 -0.7087 -0.2279
 7046TIP3   OH242628   0.639   5.333  12.023 -0.2564  0.3486  0.2344
 7046TIP3    H142629   0.712   5.326  12.085 -1.2341  1.2080  1.5276
 7046TIP3    H242630   0.625   5.427  12.014 -1.0571  0.1937 -0.2142
 7047TIP3   OH242631   1.486   5.223   4.152 -0.8649  0.4542  0.3191
 7047TIP3    H142632   1.580   5.218   4.166 -0.7285 -0.6179 -0.7861
 7047TIP3    H242633   1.450   5.251   4.237  0.0885 -3.3085  2.2052
 7048TIP3   OH242634   3.792   6.604  13.782  0.0727 -0.4956  0.0899
 7048TIP3    H142635   3.783   6.695  13.812 -0.7083 -1.0163  1.5879
 7048TIP3    H242636   3.817   6.611  13.690 -1.5494  1.2475 -0.2915
 7049TIP3   OH242637   6.117   3.890  13.505 -0.3665 -0.5992 -0.5712
 7049TIP3    H142638   6.185   3.823  13.508 -0.0711 -0.2945 -0.3574
 7049TIP3    H242639   6.103   3.907  13.412  0.8511  0.3396 -0.6005
 7050TIP3   OH242640   0.667   1.541  14.620  0.2534 -0.1290 -0.4303
 7050TIP3    H142641   0.579   1.520  14.589  0.3885 -0.1512 -0.8041
 7050TIP3    H242642   0.700   1.459  14.656 -0.6488  0.3373  1.6399
 7051TIP3   OH242643   4.365   5.477   3.863 -0.0559 -0.4249 -0.4778
 7051TIP3    H142644   4.339   5.453   3.774  1.5370 -0.1575 -1.0487
 7051TIP3    H242645   4.383   5.571   3.859 -1.1050 -0.1707  0.4307
 7052TIP3   OH242646   4.572   5.309   2.481  0.2340 -0.2052  0.2834
 7052TIP3    H142647   4.640   5.257   2.524 -0.6945 -1.0394  0.7891
 7052TIP3    H242648   4.593   5.400   2.503  0.2101 -0.5608  1.8847
 7053TIP3   OH242649   3.677   4.477  10.916  0.1981  0.5482  0.3685
 7053TIP3    H142650   3.634   4.407  10.967  0.4090  1.2697  1.5754
 7053TIP3    H242651   3.605   4.534  10.889  0.1045  0.2677  0.0263
 7054TIP3   OH242652   0.518   1.569  14.897  0.6726 -0.5010 -0.5909
 7054TIP3    H142653   0.552   1.586  14.810  1.4083 -0.6109 -0.3317
 7054TIP3    H242654   0.443   1.628  14.905  0.3067 -0.8319 -1.4636
 7055TIP3   OH242655   6.236   0.145   4.688  0.0592 -0.7088  0.3251
 7055TIP3    H142656   6.171   0.076   4.677 -1.4191  0.4478  1.4258
 7055TIP3    H242657   6.251   0.177   4.599 -0.8078 -1.0472  0.0442
 7056TIP3   OH242658   6.001   5.476  15.882  0.1613  0.3360 -0.3800
 7056TIP3    H142659   5.938   5.451  15.950  2.2231 -1.4900  0.9940
 7056TIP3    H242660   6.053   5.397  15.868  1.5331  1.4989 -2.1459
 7057TIP3   OH242661   0.910   6.004   5.582 -0.2645  0.8539 -0.1208
 7057TIP3    H142662   0.830   6.024   5.630 -0.6157 -0.2362 -0.2156
 7057TIP3    H242663   0.903   5.911   5.563  1.4301  0.5393  0.6202
 7058TIP3   OH242664   6.528   4.304  12.154  0.6162  0.1641 -0.2674
 7058TIP3    H142665   6.588   4.325  12.083  1.4110 -0.9104  0.0690
 7058TIP3    H242666   6.441   4.318  12.117  1.0023 -0.7239 -1.5832
 7059TIP3   OH242667   5.118   0.193  15.850 -0.0436  0.0141  0.1868
 7059TIP3    H142668   5.025   0.212  15.860 -0.1751 -0.9143  0.9637
 7059TIP3    H242669   5.121   0.098  15.837  0.7982  0.0266  0.2714
 7060TIP3   OH242670   6.745   6.145  15.150 -0.2862 -0.8999 -0.3472
 7060TIP3    H142671   6.720   6.196  15.073  0.1303 -0.5402 -0.2465
 7060TIP3    H242672   6.735   6.053  15.123 -0.0173 -0.7748 -0.8702
 7061TIP3   OH242673   6.859   3.208   4.061 -0.1381 -0.1741  0.1456
 7061TIP3    H142674   6.794   3.139   4.073 -0.0832 -0.2371  0.0919
 7061TIP3    H242675   6.942   3.160   4.050 -0.1408 -0.1121 -0.1697
 7062TIP3   OH242676   0.989   5.790   6.799  0.1441  0.0370 -0.1426
 7062TIP3    H142677   1.080   5.763   6.810  0.2244  0.2081 -0.4056
 7062TIP3    H242678   0.989   5.884   6.817 -0.0954 -0.0827  0.5296
 7063TIP3   OH242679   6.471   4.761  16.472 -0.3550 -0.0458 -0.3320
 7063TIP3    H142680   6.536   4.784  16.406 -0.0292  0.2350  0.0806
 7063TIP3    H242681   6.497   4.811  16.550 -1.2984  0.3956 -0.2832
 7064TIP3   OH242682   4.370   0.830   0.621 -0.0376  0.2861 -0.5073
 7064TIP3    H142683   4.405   0.809   0.535 -0.7579  0.1561 -0.7736
 7064TIP3    H242684   4.303   0.897   0.605 -0.0986  0.3473 -0.0367
 7065TIP3   OH242685   2.369   5.470  16.977  0.3958 -0.1890 -0.3920
 7065TIP3    H142686   2.406   5.521  17.048  1.0206 -0.8611 -0.2272
 7065TIP3    H242687   2.353   5.383  17.014 -0.7692 -0.1040 -0.6342
 7066TIP3   OH242688   0.294   4.643   3.193 -0.2609  0.0623  0.5661
 7066TIP3    H142689   0.286   4.675   3.283  0.0940  0.0515  0.5996
 7066TIP3    H242690   0.382   4.667   3.167 -1.1089  2.2271 -0.6157
 7067TIP3   OH242691   1.974   6.807  12.884 -0.7194 -0.0082  0.7223
 7067TIP3    H142692   1.939   6.893  12.859 -1.5088 -0.6650 -0.4931
 7067TIP3    H242693   1.901   6.764  12.929 -0.8929 -0.6936 -0.2059
 7068TIP3   OH242694   4.711   5.493  11.791  0.3245 -0.0725  0.1366
 7068TIP3    H142695   4.694   5.502  11.698  1.1676  1.6349  0.1334
 7068TIP3    H242696   4.697   5.580  11.828 -3.4493 -1.3094  2.2412
 7069TIP3   OH242697   2.269   5.223  11.731  0.0968 -0.3782 -0.0580
 7069TIP3    H142698   2.196   5.285  11.740 -0.0672 -0.5387 -0.2792
 7069TIP3    H242699   2.341   5.276  11.698 -0.5456 -0.6413 -1.9802
 7070TIP3   OH242700   2.017   5.723   4.060 -0.4446 -0.6900  0.3962
 7070TIP3    H142701   1.951   5.660   4.031 -0.2345 -0.2524 -1.0811
 7070TIP3    H242702   1.989   5.806   4.022  0.9954 -0.5120 -0.3019
 7071TIP3   OH242703   3.557   3.129  14.721 -0.5924 -0.0528 -0.2139
 7071TIP3    H142704   3.546   3.126  14.625  0.1039 -1.5976 -0.2668
 7071TIP3    H242705   3.544   3.221  14.743 -0.3984  0.4002 -1.8501
 7072TIP3   OH242706   1.375   2.338   5.535  0.3916  0.0988  0.2968
 7072TIP3    H142707   1.409   2.425   5.512  0.4544 -0.0689 -0.2629
 7072TIP3    H242708   1.285   2.338   5.502  0.7002 -0.3861 -0.5675
 7073TIP3   OH242709   0.603   4.511  12.005  0.0018  0.4967 -0.4196
 7073TIP3    H142710   0.671   4.457  12.044 -0.5554  0.8729  1.1494
 7073TIP3    H242711   0.650   4.571  11.947  0.8620 -0.0886 -0.3408
 7074TIP3   OH242712   2.494   0.272   2.177 -0.3755 -0.1154  0.1455
 7074TIP3    H142713   2.453   0.331   2.240 -0.0459  1.2125 -0.8364
 7074TIP3    H242714   2.587   0.294   2.180  0.0795 -1.9488  1.1468
 7075TIP3   OH242715   4.928   4.608   2.438 -0.1383 -0.0080 -0.1302
 7075TIP3    H142716   4.856   4.671   2.441 -0.2969 -0.1898 -0.0994
 7075TIP3    H242717   5.006   4.662   2.427 -0.0199  0.3463  2.0619
 7076TIP3   OH242718   1.210   0.485  17.019  0.0961 -0.6803 -0.6618
 7076TIP3    H142719   1.279   0.426  17.050  0.5358 -0.0202 -0.3513
 7076TIP3    H242720   1.158   0.504  17.096  0.5625  0.1302 -0.5328
 7077TIP3   OH242721   5.631   5.715  11.317  0.1915 -0.5272 -0.1630
 7077TIP3    H142722   5.603   5.805  11.301 -2.0998 -0.6948  2.2142
 7077TIP3    H242723   5.599   5.666  11.240  0.5201  0.4979 -0.9717
 7078TIP3   OH242724   2.933   5.854   5.908  0.1480 -0.3109 -0.0089
 7078TIP3    H142725   2.912   5.765   5.938 -2.9940  0.9441  2.0244
 7078TIP3    H242726   3.026   5.850   5.887  0.2471 -3.9690  0.3583
 7079TIP3   OH242727   4.143   2.456  16.026  0.0217  0.0071  0.7372
 7079TIP3    H142728   4.056   2.439  15.992  0.3642 -0.0962 -0.1165
 7079TIP3    H242729   4.144   2.549  16.047 -0.4630 -0.1046  1.2692
 7080TIP3   OH242730   4.391   2.273  15.238 -0.2787 -0.1378  0.7279
 7080TIP3    H142731   4.470   2.309  15.278  0.0523 -0.9725  0.8422
 7080TIP3    H242732   4.412   2.266  15.145 -0.2417 -0.2915  0.7474
 7081TIP3   OH242733   5.578   2.850  12.052 -0.1769 -0.4136  0.0192
 7081TIP3    H142734   5.611   2.860  12.141  0.3178  0.2413 -0.2261
 7081TIP3    H242735   5.586   2.756  12.034  0.0105 -0.5046  0.5551
 7082TIP3   OH242736   5.993   3.029   4.312  0.0224 -0.1314  0.2873
 7082TIP3    H142737   6.057   2.963   4.285 -0.7450 -1.0683  0.6986
 7082TIP3    H242738   5.930   3.034   4.240  0.5980  0.8722 -0.1689
 7083TIP3   OH242739   1.394   4.979   4.077  0.2185  0.1501 -0.1672
 7083TIP3    H142740   1.335   4.969   4.152  1.0496 -2.1850  0.2509
 7083TIP3    H242741   1.439   5.062   4.093  0.4043 -0.2995  1.9544
 7084TIP3   OH242742   6.392   0.141   0.346  0.0760  1.1412  0.4201
 7084TIP3    H142743   6.385   0.126   0.252  2.7505  0.3640  0.2680
 7084TIP3    H242744   6.393   0.053   0.384  2.0784  1.2905  0.8325
 7085TIP3   OH242745   3.811   0.462  16.177  0.2403  0.0252  0.0187
 7085TIP3    H142746   3.781   0.534  16.122  0.1204 -1.3099 -1.7886
 7085TIP3    H242747   3.751   0.462  16.252  0.5538  2.0521  0.3139
 7086TIP3   OH242748   4.983   6.332   3.602  0.5701 -0.4160 -0.3646
 7086TIP3    H142749   4.957   6.406   3.658  1.5699  0.3865 -0.9360
 7086TIP3    H242750   4.940   6.256   3.642 -0.9832  0.5483 -0.1175
 7087TIP3   OH242751   1.614   2.218   1.094  0.4755 -0.1159 -0.3312
 7087TIP3    H142752   1.530   2.175   1.076  0.4517  0.4012 -1.6086
 7087TIP3    H242753   1.590   2.304   1.128  0.4113  0.7155 -2.3385
 7088TIP3   OH242754   2.292   6.325   6.211 -0.0839 -0.3819 -0.1439
 7088TIP3    H142755   2.380   6.290   6.197 -0.2558 -0.8101 -0.1577
 7088TIP3    H242756   2.233   6.255   6.183 -0.4331  0.0053 -0.3907
 7089TIP3   OH242757   3.732   0.431   4.061 -0.3345 -0.4416 -0.1521
 7089TIP3    H142758   3.726   0.449   3.967  0.7636 -0.4250 -0.2321
 7089TIP3    H242759   3.669   0.360   4.075 -0.3422 -0.6098 -0.9469
 7090TIP3   OH242760   1.082   3.517   5.333 -0.4556  0.1519 -0.4949
 7090TIP3    H142761   0.992   3.486   5.318  0.3513 -2.1570 -0.9476
 7090TIP3    H242762   1.071   3.607   5.365 -3.0159 -0.6771  1.2867
 7091TIP3   OH242763   1.804   2.695  13.817  0.3907 -0.1267  0.1027
 7091TIP3    H142764   1.821   2.604  13.842  0.0530  0.2630  1.8571
 7091TIP3    H242765   1.889   2.738  13.820  0.6540 -0.5040 -1.3538
 7092TIP3   OH242766   5.083   3.366  13.243 -0.4910  0.7410  0.4379
 7092TIP3    H142767   5.171   3.397  13.264 -0.3388  0.0060  0.9474
 7092TIP3    H242768   5.072   3.287  13.297 -0.8519 -0.0932 -0.8110
 7093TIP3   OH242769   6.433   6.004  14.661 -0.2673 -0.0210 -0.2698
 7093TIP3    H142770   6.422   6.021  14.567  0.9361 -0.8762 -0.5926
 7093TIP3    H242771   6.466   5.915  14.665 -0.6818 -0.1366  1.0109
 7094TIP3   OH242772   4.986   5.308   3.521 -0.0204  0.0957 -0.8712
 7094TIP3    H142773   4.976   5.337   3.431 -1.1575 -0.0854 -0.8212
 7094TIP3    H242774   4.900   5.273   3.545 -0.0985  1.2193  0.6623
 7095TIP3   OH242775   6.722   3.328  12.631 -0.0968 -0.2552  0.2828
 7095TIP3    H142776   6.753   3.351  12.544 -0.8154  3.5116  0.8320
 7095TIP3    H242777   6.801   3.319  12.684  0.2864 -0.6936 -0.3618
 7096TIP3   OH242778   6.186   3.384   0.331  0.1204  0.2939  0.4139
 7096TIP3    H142779   6.185   3.408   0.238 -0.9864 -0.3626  0.2292
 7096TIP3    H242780   6.273   3.408   0.361 -0.2840  2.8488 -0.1772
 7097TIP3   OH242781   5.145   6.792   2.609 -0.2453  0.4301  0.1989
 7097TIP3    H142782   5.159   6.882   2.579 -0.3922 -0.1522 -1.7392
 7097TIP3    H242783   5.065   6.796   2.661  0.0848  1.5120  0.6575
 7098TIP3   OH242784   5.105   5.768   3.749  0.0175  0.1971  0.4043
 7098TIP3    H142785   5.072   5.847   3.707  0.5905  0.3281  0.1938
 7098TIP3    H242786   5.031   5.707   3.748 -0.0097  0.2353 -0.6969
 7099TIP3   OH242787   3.543   4.164   4.059 -0.1900 -0.0968 -0.1357
 7099TIP3    H142788   3.493   4.125   4.131  1.7017 -0.7461  0.8959
 7099TIP3    H242789   3.634   4.155   4.086  0.4651  3.7593 -0.4868
 7100TIP3   OH242790   6.625   0.775   5.294 -0.5262 -0.0659  0.1908
 7100TIP3    H142791   6.583   0.808   5.373 -0.8354 -0.9522  0.4108
 7100TIP3    H242792   6.594   0.832   5.224 -0.4588  0.5633  0.6673
 7101TIP3   OH242793   3.587   2.481  11.308  0.0091  0.1651  0.5071
 7101TIP3    H142794   3.663   2.424  11.300  0.0102  0.1730  0.4542
 7101TIP3    H242795   3.572   2.512  11.218 -0.1896 -0.0111  0.4785
 7102TIP3   OH242796   3.184   1.560   5.400 -0.3762  0.0466 -0.2373
 7102TIP3    H142797   3.206   1.564   5.307 -2.6912  0.3216 -0.8302
 7102TIP3    H242798   3.207   1.471   5.426  0.2500 -0.0504 -1.0662
 7103TIP3   OH242799   1.780   1.526  11.897 -0.1522 -0.4890  0.6429
 7103TIP3    H142800   1.725   1.568  11.964  1.1262  0.5827  1.0609
 7103TIP3    H242801   1.718   1.501  11.828 -1.3049 -0.2971  1.5733
 7104TIP3   OH242802   5.022   6.462   4.643 -0.6217 -0.3714  0.2963
 7104TIP3    H142803   4.944   6.483   4.694  0.1195 -0.8660  1.6718
 7104TIP3    H242804   5.093   6.455   4.707  0.5207 -0.1978 -0.8830
 7105TIP3   OH242805   6.439   4.421   0.262 -0.8417 -0.4670  0.6144
 7105TIP3    H142806   6.480   4.336   0.252  0.1920  0.0837 -0.0098
 7105TIP3    H242807   6.346   4.402   0.277 -1.3119 -1.6497 -2.9226
 7106TIP3   OH242808   4.772   1.554   5.113 -0.1854  0.4401 -0.1952
 7106TIP3    H142809   4.718   1.561   5.035 -1.3855 -0.8524  0.4662
 7106TIP3    H242810   4.746   1.628   5.168  0.0663  0.8757 -0.6552
 7107TIP3   OH242811   6.451   3.551  11.114 -0.5657 -0.2087  0.8918
 7107TIP3    H142812   6.521   3.494  11.083 -0.8764 -0.4292  0.5906
 7107TIP3    H242813   6.443   3.532  11.208 -1.0875 -1.1168  0.6721
 7108TIP3   OH242814   1.438   3.544   6.095  0.7617 -0.0059  0.3359
 7108TIP3    H142815   1.354   3.512   6.060  1.9260 -2.5610 -0.3421
 7108TIP3    H242816   1.459   3.619   6.040 -0.3688 -0.2351 -0.4571
 7109TIP3   OH242817   4.929   1.098   5.397  0.5956  0.6792 -0.2242
 7109TIP3    H142818   4.875   1.163   5.441  1.5952  1.4573 -0.1115
 7109TIP3    H242819   5.010   1.094   5.448  2.1855  2.2987 -2.3979
 7110TIP3   OH242820   1.441   0.626   1.471 -0.3177 -0.2415  0.9299
 7110TIP3    H142821   1.352   0.646   1.442  0.1003  0.2194 -0.1183
 7110TIP3    H242822   1.463   0.695   1.533  0.2334  1.2722 -0.8259
 7111TIP3   OH242823   0.176   4.298  16.659 -0.2516  0.9413 -0.2205
 7111TIP3    H142824   0.227   4.376  16.635  0.7299  0.2969 -0.2813
 7111TIP3    H242825   0.228   4.225  16.625 -0.5918  0.2016  0.8247
 7112TIP3   OH242826   0.810   5.735  16.929  0.5064 -0.3114 -0.3051
 7112TIP3    H142827   0.902   5.723  16.905  0.6574  3.0255 -2.0937
 7112TIP3    H242828   0.763   5.729  16.846 -0.0832  3.2594 -0.3916
 7113TIP3   OH242829   3.963   6.701  14.093 -1.0819 -0.3501  0.5583
 7113TIP3    H142830   3.890   6.718  14.153 -1.3764  0.5468 -0.0387
 7113TIP3    H242831   4.035   6.672  14.150 -0.6693  2.5332  1.6372
 7114TIP3   OH242832   1.378   1.526   1.936  0.0535 -0.3405 -0.8321
 7114TIP3    H142833   1.396   1.611   1.976 -1.7271 -0.5684  0.6102
 7114TIP3    H242834   1.293   1.538   1.893 -0.3664 -1.4481 -0.3453
 7115TIP3   OH242835   0.218   1.382  15.994  0.0647 -0.1221 -0.4926
 7115TIP3    H142836   0.233   1.302  15.945  1.5765  0.8743 -1.7792
 7115TIP3    H242837   0.299   1.394  16.045 -0.1696  0.5378 -0.2585
 7116TIP3   OH242838   6.410   4.373   1.910  0.4279  0.1047  0.5296
 7116TIP3    H142839   6.457   4.453   1.887 -1.5988  1.5374  1.1000
 7116TIP3    H242840   6.361   4.396   1.989 -1.7256 -1.0603 -0.3728
 7117TIP3   OH242841   3.358   1.891   0.346  0.0542  0.0274  1.4339
 7117TIP3    H142842   3.337   1.798   0.344 -2.7226  0.4715 -2.1169
 7117TIP3    H242843   3.318   1.924   0.426  0.9644 -1.7344  2.6677
 7118TIP3   OH242844   2.562   4.032  16.474 -0.4697 -0.2412 -0.3048
 7118TIP3    H142845   2.489   3.980  16.440 -0.2823 -0.2304 -0.7302
 7118TIP3    H242846   2.532   4.122  16.468 -1.4497 -0.3635  1.9889
 7119TIP3   OH242847   5.769   1.176   0.240 -0.3307  0.6702 -0.0719
 7119TIP3    H142848   5.816   1.213   0.165  1.3178 -0.1502  0.4821
 7119TIP3    H242849   5.828   1.107   0.272 -0.3028  1.8784  2.8121
 7120TIP3   OH242850   5.980   3.185  15.059 -0.6097  0.5007 -0.1322
 7120TIP3    H142851   6.026   3.228  15.131 -0.8783  0.1070  0.2791
 7120TIP3    H242852   5.961   3.256  14.997  1.9826  0.4332 -1.1172
 7121TIP3   OH242853   0.772   0.649  13.860  0.2249  0.1339  0.1848
 7121TIP3    H142854   0.759   0.731  13.909 -0.3255 -1.1454  2.3280
 7121TIP3    H242855   0.847   0.666  13.804  0.5803  1.8661  1.1065
 7122TIP3   OH242856   4.062   3.323  11.249 -0.0107 -0.4610  0.0213
 7122TIP3    H142857   4.001   3.311  11.176  2.4137 -1.2828 -2.0066
 7122TIP3    H242858   4.038   3.408  11.287 -1.6878 -0.2544 -1.3677
 7123TIP3   OH242859   2.818   6.576   4.042  0.4229 -0.7353 -0.3890
 7123TIP3    H142860   2.893   6.526   4.073  0.5862  0.4820  1.3155
 7123TIP3    H242861   2.841   6.599   3.952  1.4928 -1.4994 -0.3329
 7124TIP3   OH242862   2.244   0.616  13.827  0.3349  0.4023  0.2570
 7124TIP3    H142863   2.270   0.600  13.918 -2.8510 -0.9107  1.0767
 7124TIP3    H242864   2.275   0.540  13.779 -2.2363 -1.4496  1.3304
 7125TIP3   OH242865   4.123   5.059   2.752  0.1609 -0.1683 -0.5014
 7125TIP3    H142866   4.148   5.046   2.661 -0.2293 -0.8063 -0.5263
 7125TIP3    H242867   4.206   5.064   2.800  0.3684  0.3792 -0.9124
 7126TIP3   OH242868   3.573   3.804   5.164 -0.2808  0.0069 -0.3019
 7126TIP3    H142869   3.550   3.873   5.102 -0.5205  0.0353 -0.1847
 7126TIP3    H242870   3.495   3.748   5.168 -1.0867  1.1327  1.4863
 7127TIP3   OH242871   2.512   1.957  14.496 -0.4452  0.4304  0.1795
 7127TIP3    H142872   2.467   1.906  14.564  0.3586  1.3739  1.4652
 7127TIP3    H242873   2.505   1.903  14.417 -2.0671 -0.3509  0.8129
 7128TIP3   OH242874   6.014   0.857   1.182 -0.6595 -0.0675 -0.3032
 7128TIP3    H142875   6.001   0.899   1.267 -0.2873 -0.5114 -0.0225
 7128TIP3    H242876   6.062   0.777   1.202  0.1049  0.2002 -1.0224
 7129TIP3   OH242877   3.694   6.779  15.015 -0.3524 -0.4470 -0.5794
 7129TIP3    H142878   3.662   6.835  15.085  0.5037  0.6311 -1.0318
 7129TIP3    H242879   3.625   6.714  15.003 -1.0825  0.1321  0.3774
 7130TIP3   OH242880   1.015   5.508  14.643 -0.0715  0.8671 -0.4298
 7130TIP3    H142881   1.006   5.412  14.644 -0.2157  0.8520  2.0345
 7130TIP3    H242882   1.091   5.524  14.586  0.7477 -0.8154  0.1117
 7131TIP3   OH242883   0.407   2.392   2.761  0.1010  0.3177 -0.5639
 7131TIP3    H142884   0.494   2.364   2.790 -0.6490 -1.1760  0.3841
 7131TIP3    H242885   0.347   2.353   2.825 -1.2643  1.4619 -1.0988
 7132TIP3   OH242886   0.406   0.373   3.640  0.1112  0.2555  0.7182
 7132TIP3    H142887   0.352   0.355   3.563  2.9970 -0.9987 -1.1869
 7132TIP3    H242888   0.416   0.469   3.640  1.4134  0.1891 -1.5628
 7133TIP3   OH242889   4.205   4.906   6.400 -0.4706  0.3306 -0.2435
 7133TIP3    H142890   4.240   4.903   6.489 -3.4279 -0.8456  1.0262
 7133TIP3    H242891   4.154   4.987   6.397  0.2794  0.7912 -1.2118
 7134TIP3   OH242892   5.924   5.412   2.539  0.0985 -0.7622  0.4237
 7134TIP3    H142893   5.886   5.365   2.613 -0.2934 -1.2852 -0.0974
 7134TIP3    H242894   5.875   5.381   2.463  0.7382 -0.5146 -0.1064
 7135TIP3   OH242895   1.989   5.093  12.764 -0.3021  0.7230 -0.1026
 7135TIP3    H142896   2.018   5.002  12.773  2.6106  1.6897  1.6120
 7135TIP3    H242897   2.043   5.129  12.694 -0.2770  1.5416  0.3298
 7136TIP3   OH242898   2.537   0.644  11.518 -0.2596  0.9839  0.3036
 7136TIP3    H142899   2.484   0.701  11.463 -1.0829 -0.1258 -0.1064
 7136TIP3    H242900   2.474   0.589  11.564  0.4515  1.3377  1.7620
 7137TIP3   OH242901   6.082   6.338  13.147 -0.4839  0.1622 -0.9870
 7137TIP3    H142902   6.124   6.309  13.067  0.5257  1.3164 -0.8975
 7137TIP3    H242903   6.016   6.271  13.165  0.2519 -0.8613 -1.9800
 7138TIP3   OH242904   2.915   6.164   4.110 -0.4975  0.0963 -0.0706
 7138TIP3    H142905   2.933   6.070   4.117  0.6308  0.3611  1.0703
 7138TIP3    H242906   2.912   6.194   4.201  1.9034  1.6306 -0.4045
 7139TIP3   OH242907   2.306   1.691  12.026  0.4218  0.1393  0.0955
 7139TIP3    H142908   2.334   1.604  12.055 -0.2472 -0.9849 -2.3432
 7139TIP3    H242909   2.369   1.714  11.957 -0.0553  1.1003 -0.0356
 7140TIP3   OH242910   2.283   0.849  14.271 -0.3903 -0.6755  0.0897
 7140TIP3    H142911   2.230   0.906  14.215  1.1354  0.8202  0.1107
 7140TIP3    H242912   2.243   0.856  14.357  0.4412  1.3500  0.3609
 7141TIP3   OH242913   3.596   6.168  16.644 -0.3213 -0.6618  0.0341
 7141TIP3    H142914   3.538   6.098  16.674 -0.2804 -0.7005  0.0248
 7141TIP3    H242915   3.563   6.247  16.686 -1.9706 -0.1986 -1.9623
 7142TIP3   OH242916   5.636   6.367   5.876  0.0659 -0.1544  0.0241
 7142TIP3    H142917   5.723   6.344   5.908 -0.9385 -1.0269  2.4381
 7142TIP3    H242918   5.651   6.417   5.796  2.7201 -1.0259 -0.1061
 7143TIP3   OH242919   4.335   4.805   4.764  0.0987 -0.6313  0.1364
 7143TIP3    H142920   4.319   4.874   4.700 -2.7483 -0.3744  0.9983
 7143TIP3    H242921   4.399   4.843   4.824 -0.4127  0.7721 -0.1611
 7144TIP3   OH242922   5.777   0.501   0.124 -0.3047 -0.2882  0.7488
 7144TIP3    H142923   5.705   0.549   0.166 -0.1449 -0.2074  0.9288
 7144TIP3    H242924   5.822   0.457   0.196 -0.5123 -0.7981  0.5730
 7145TIP3   OH242925   4.922   0.956  16.861 -0.7208  0.0226 -0.6462
 7145TIP3    H142926   5.015   0.978  16.871 -0.7503  0.5228 -1.3703
 7145TIP3    H242927   4.885   0.967  16.948 -0.2311  0.4755 -0.4929
 7146TIP3   OH242928   4.216   5.306  14.551 -0.5014 -0.0782  0.1567
 7146TIP3    H142929   4.196   5.302  14.458 -0.1397 -0.3024  0.0873
 7146TIP3    H242930   4.130   5.315  14.594 -0.8510 -1.9223 -0.0783
 7147TIP3   OH242931   3.210   1.407   2.542 -0.6856  0.3754  0.4577
 7147TIP3    H142932   3.124   1.425   2.504 -0.6476  2.0349  1.0781
 7147TIP3    H242933   3.192   1.357   2.621 -1.3846  2.8968  2.0261
 7148TIP3   OH242934   5.845   4.239   1.016 -0.1146  0.0448 -0.0925
 7148TIP3    H142935   5.765   4.245   0.964  0.0697  0.4473 -0.3331
 7148TIP3    H242936   5.855   4.327   1.054  0.5626  0.1839 -0.5842
 7149TIP3   OH242937   6.337   1.160  11.720 -0.1497  0.8736  0.2200
 7149TIP3    H142938   6.280   1.084  11.709  3.0303 -1.8707  1.2390
 7149TIP3    H242939   6.308   1.200  11.802 -1.2084  0.1762  0.2132
 7150TIP3   OH242940   2.891   0.833  15.026  0.1257 -0.2383  0.1929
 7150TIP3    H142941   2.820   0.856  14.966 -0.1295 -0.0650  0.5556
 7150TIP3    H242942   2.866   0.747  15.061 -1.3863  1.0121  2.4687
 7151TIP3   OH242943   2.512   6.852   0.004  0.1601  0.3876 -0.5048
 7151TIP3    H142944   2.453   6.851   0.079  2.3100  0.9326  1.2977
 7151TIP3    H242945   2.564   6.931   0.015  1.5501 -0.3014 -1.7342
 7152TIP3   OH242946   2.935   3.234   1.234 -0.2609  0.4423  0.0195
 7152TIP3    H142947   3.002   3.170   1.208 -0.5208  0.2603 -0.2120
 7152TIP3    H242948   2.948   3.245   1.328  0.1625  0.4886 -0.0407
 7153TIP3   OH242949   5.012   2.504   1.155  0.2942  0.1194  0.0422
 7153TIP3    H142950   4.940   2.442   1.149 -0.6741  1.1758  0.2262
 7153TIP3    H242951   5.086   2.452   1.185 -0.3528 -1.0224 -0.2722
 7154TIP3   OH242952   0.697   1.110  12.975 -0.6139 -0.1136 -0.8630
 7154TIP3    H142953   0.630   1.046  12.952 -2.5598  1.4982  0.0804
 7154TIP3    H242954   0.663   1.153  13.053  2.7239 -0.9776  1.2788
 7155TIP3   OH242955   5.461   1.564  14.746 -0.1427  0.4981  0.4669
 7155TIP3    H142956   5.401   1.571  14.672 -0.7112  0.1389  0.8882
 7155TIP3    H242957   5.478   1.654  14.772  0.1603  0.6337 -0.1742
 7156TIP3   OH242958   3.438   5.470  15.899 -0.9637  0.0211  0.5688
 7156TIP3    H142959   3.420   5.465  15.805  0.3410  0.6252  0.2526
 7156TIP3    H242960   3.399   5.390  15.936 -3.4979  0.8695 -0.0942
 7157TIP3   OH242961   6.429   1.222   6.201 -0.6268  0.0027 -0.0816
 7157TIP3    H142962   6.382   1.151   6.245 -2.6025  0.4393 -1.3796
 7157TIP3    H242963   6.509   1.232   6.252 -1.1729 -1.8624  1.2745
 7158TIP3   OH242964   2.911   2.661  12.031  0.5314 -0.2637 -0.2682
 7158TIP3    H142965   2.956   2.606  12.094  1.7354 -0.7547 -1.5099
 7158TIP3    H242966   2.877   2.735  12.082  1.9142 -0.3796  0.8534
 7159TIP3   OH242967   6.323   4.074  12.873 -0.2095  0.0221 -0.0507
 7159TIP3    H142968   6.402   4.060  12.820  1.9014 -2.1580  3.2459
 7159TIP3    H242969   6.307   4.168  12.867  0.5948  0.0807 -3.4061
 7160TIP3   OH242970   1.708   5.292  15.985  0.0376  0.5209 -0.3202
 7160TIP3    H142971   1.733   5.224  15.922 -0.4522  0.2716 -0.2456
 7160TIP3    H242972   1.657   5.355  15.933 -0.3574  0.3209 -0.1773
 7161TIP3   OH242973   6.326   3.434   5.678 -0.7651  0.0601 -0.2280
 7161TIP3    H142974   6.277   3.455   5.757 -2.6540 -0.3463 -1.2177
 7161TIP3    H242975   6.290   3.492   5.611  1.4568  1.0670 -0.6245
 7162TIP3   OH242976   3.701   5.944   0.617 -0.4022  0.4598 -0.1795
 7162TIP3    H142977   3.698   5.849   0.603 -0.6415  0.3644  0.5007
 7162TIP3    H242978   3.794   5.966   0.610 -0.0216 -0.2108  2.0339
 7163TIP3   OH242979   2.650   6.565  11.953 -0.2003  0.6412  1.2253
 7163TIP3    H142980   2.732   6.572  11.904  0.3218 -2.9742  1.3039
 7163TIP3    H242981   2.671   6.600  12.040  0.8564  0.9937  0.8421
 7164TIP3   OH242982   6.504   2.536   5.321 -0.2652  0.2173  0.2598
 7164TIP3    H142983   6.419   2.493   5.316 -0.7116  1.1456 -0.8180
 7164TIP3    H242984   6.492   2.617   5.270  1.1251  0.5881  0.4864
 7165TIP3   OH242985   0.477   6.223  14.226  0.7298 -0.0998  0.1954
 7165TIP3    H142986   0.495   6.147  14.282  2.7700  0.4904  0.4320
 7165TIP3    H242987   0.549   6.283  14.244 -0.7630  1.8885 -0.0559
 7166TIP3   OH242988   5.593   0.297   5.868 -0.0653 -0.0612  0.3464
 7166TIP3    H142989   5.499   0.293   5.886 -0.3275 -0.4591 -0.9659
 7166TIP3    H242990   5.602   0.365   5.802  0.7520  0.8577  1.3687
 7167TIP3   OH242991   3.982   2.909  14.324  0.5272 -0.5912 -0.2752
 7167TIP3    H142992   4.069   2.925  14.287  1.2104  0.1905  1.5461
 7167TIP3    H242993   3.947   2.996  14.344 -1.3984 -0.7760 -2.3999
 7168TIP3   OH242994   3.570   0.336   4.450  0.5031 -0.3316  0.1567
 7168TIP3    H142995   3.648   0.316   4.502 -0.5918 -0.8802  1.6341
 7168TIP3    H242996   3.547   0.426   4.474 -0.2050 -0.7054  0.8921
 7169TIP3   OH242997   6.372   6.178  16.826 -0.2541 -0.4111 -0.7123
 7169TIP3    H142998   6.464   6.195  16.846 -0.4591 -0.7274  0.6363
 7169TIP3    H242999   6.337   6.264  16.801 -0.1245  0.2285  1.1253
 7170TIP3   OH243000   4.968   5.922  11.735 -0.2748  0.1320 -0.2752
 7170TIP3    H143001   4.985   5.839  11.779 -0.4369  0.4939  0.4940
 7170TIP3    H243002   5.043   5.935  11.677 -0.0733 -0.3718 -0.1252
 7171TIP3   OH243003   3.305   3.596   2.974 -0.0544 -0.0891 -0.1667
 7171TIP3    H143004   3.211   3.587   2.959 -0.3369 -0.0938  1.4524
 7171TIP3    H243005   3.316   3.687   3.002  0.3225 -0.2736  0.2920
 7172TIP3   OH243006   4.335   4.416   0.130  0.7109  0.8941 -0.7968
 7172TIP3    H143007   4.380   4.500   0.126  2.1027  0.2993  1.0365
 7172TIP3    H243008   4.402   4.351   0.109  0.4120  0.0749  0.6334
 7173TIP3   OH243009   2.769   6.773  11.257  0.0748 -0.3029 -0.5214
 7173TIP3    H143010   2.729   6.860  11.247  0.8966  0.2773  0.8896
 7173TIP3    H243011   2.709   6.725  11.314 -0.3254 -0.6445 -1.2160
 7174TIP3   OH243012   5.868   2.144  15.597  0.2156 -0.0351  0.1762
 7174TIP3    H143013   5.810   2.211  15.634 -0.6868 -1.1730  0.8702
 7174TIP3    H243014   5.892   2.088  15.671  0.6613 -0.6967 -0.4510
 7175TIP3   OH243015   3.637   4.138  15.040  0.1207 -0.1021 -0.6301
 7175TIP3    H143016   3.591   4.152  14.958  1.3007 -0.1490 -1.3150
 7175TIP3    H243017   3.708   4.078  15.019  0.2657 -0.3632  0.4931
 7176TIP3   OH243018   2.814   6.290  13.009  0.3291  0.0611  0.5433
 7176TIP3    H143019   2.745   6.226  13.029 -0.3573  1.3573  2.6795
 7176TIP3    H243020   2.767   6.364  12.972  0.4530  1.1315  2.4176
 7177TIP3   OH243021   0.332   5.315  15.228 -0.9162 -0.3719  0.1924
 7177TIP3    H143022   0.289   5.400  15.240 -0.7419 -0.1328 -0.7882
 7177TIP3    H243023   0.302   5.285  15.142 -0.7048 -1.1487  0.3797
 7178TIP3   OH243024   3.703   0.604   5.602 -0.0474  0.0814  0.4333
 7178TIP3    H143025   3.624   0.617   5.654 -0.1872 -4.2249  1.7474
 7178TIP3    H243026   3.685   0.526   5.549  2.5583  0.2255 -0.8532
 7179TIP3   OH243027   4.030   2.224   1.845 -0.6160 -0.3555  0.7892
 7179TIP3    H143028   4.087   2.286   1.890  0.0271 -0.7836  0.5855
 7179TIP3    H243029   4.076   2.203   1.765 -1.7732  0.4342 -0.1191
 7180TIP3   OH243030   4.565   0.505   1.976  0.8382 -0.0435  0.4518
 7180TIP3    H143031   4.597   0.590   1.947 -1.2278  1.0941  1.2634
 7180TIP3    H243032   4.568   0.450   1.897  0.8402  1.2276 -0.4680
 7181TIP3   OH243033   0.241   4.282  14.239 -0.3398  0.3322  0.3695
 7181TIP3    H143034   0.244   4.272  14.334 -1.8143  0.3615  0.4295
 7181TIP3    H243035   0.332   4.270  14.211  0.0656  0.0620  1.7507
 7182TIP3   OH243036   4.043   2.330   3.763  0.1861  0.4007 -1.2279
 7182TIP3    H143037   4.100   2.315   3.687  1.0134  0.3592 -0.6032
 7182TIP3    H243038   4.064   2.419   3.791  1.1893 -0.2160  0.0441
 7183TIP3   OH243039   6.822   2.164   2.433 -0.4932  0.2546  0.1801
 7183TIP3    H143040   6.731   2.187   2.453 -0.7299 -0.2057 -0.3430
 7183TIP3    H243041   6.874   2.228   2.482 -1.0720 -0.0442  1.2199
 7184TIP3   OH243042   5.896   5.642   4.229 -0.9557 -0.8010  0.2460
 7184TIP3    H143043   5.826   5.605   4.282 -0.5165 -0.8677  0.7882
 7184TIP3    H243044   5.976   5.609   4.269 -0.6248 -1.4044 -0.8548
 7185TIP3   OH243045   3.341   2.536  16.805 -0.0058  0.2673 -0.0362
 7185TIP3    H143046   3.311   2.486  16.881  2.5400 -1.2033  0.1184
 7185TIP3    H243047   3.324   2.479  16.730  0.7530  0.1796 -0.1440
 7186TIP3   OH243048   4.964   5.251   1.793 -0.2460 -0.9083 -0.0008
 7186TIP3    H143049   5.031   5.207   1.845  0.1578  0.2463  0.4930
 7186TIP3    H243050   4.968   5.210   1.707  1.4800 -0.4994 -0.1441
 7187TIP3   OH243051   1.337   5.901   1.798  0.6230 -0.6040  0.7379
 7187TIP3    H143052   1.291   5.884   1.880  1.8667  2.2353  2.1488
 7187TIP3    H243053   1.270   5.939   1.741  0.0101 -1.5840  0.7681
 7188TIP3   OH243054   4.385   2.745   0.028 -0.0356  0.2906 -0.2280
 7188TIP3    H143055   4.372   2.682   0.098  1.4323  0.4550  0.2179
 7188TIP3    H243056   4.393   2.692  -0.051  0.2098 -0.0082 -0.0019
 7189TIP3   OH243057   1.128   1.287  16.976  0.2396 -0.0235 -0.8086
 7189TIP3    H143058   1.115   1.345  16.901 -0.4514  0.0361 -0.6405
 7189TIP3    H243059   1.179   1.214  16.940  0.0777  0.0942 -1.2893
 7190TIP3   OH243060   2.182   5.965   3.973  0.3521  0.2242 -0.1705
 7190TIP3    H143061   2.276   5.956   3.961  0.4729 -0.3956  1.0871
 7190TIP3    H243062   2.145   5.953   3.886  1.3701 -0.4815 -0.5232
 7191TIP3   OH243063   4.401   3.126  15.735 -0.2224  0.0372 -0.2709
 7191TIP3    H143064   4.355   3.140  15.652 -1.9186  0.5260  0.7025
 7191TIP3    H243065   4.435   3.213  15.757  0.8238 -0.2293 -0.7547
 7192TIP3   OH243066   4.227   0.841  14.779 -0.0145 -0.4141 -0.5478
 7192TIP3    H143067   4.148   0.788  14.785 -0.2511 -0.1333 -1.1376
 7192TIP3    H243068   4.201   0.918  14.728 -0.3178  1.4246  2.1273
 7193TIP3   OH243069   1.905   0.633   3.980 -0.3397  0.1265 -0.5612
 7193TIP3    H143070   1.831   0.606   4.036 -1.2548 -1.8853 -2.5616
 7193TIP3    H243071   1.980   0.588   4.017 -0.0407  2.1011  1.4320
 7194TIP3   OH243072   2.823   1.131  16.770 -0.3860 -0.0634  0.1223
 7194TIP3    H143073   2.897   1.100  16.822  0.8150  1.1597 -0.7678
 7194TIP3    H243074   2.766   1.055  16.762  0.9970 -1.1949  0.4628
 7195TIP3   OH243075   5.443   1.441  12.668  0.0207  0.7791  0.1101
 7195TIP3    H143076   5.517   1.497  12.691  0.0830  1.7815 -2.2917
 7195TIP3    H243077   5.483   1.360  12.636  0.1396  1.4263 -1.4530
 7196TIP3   OH243078   3.516   0.170  13.095 -0.1032  0.3080 -0.1760
 7196TIP3    H143079   3.439   0.175  13.039 -0.5354  0.5529  0.4312
 7196TIP3    H243080   3.532   0.077  13.107 -0.4193  0.2584 -0.1496
 7197TIP3   OH243081   4.442   2.614   1.130  0.0472  0.6453 -0.3397
 7197TIP3    H143082   4.410   2.699   1.100  0.4307  0.8695 -0.1101
 7197TIP3    H243083   4.489   2.633   1.211 -0.8180  0.0723  0.3280
 7198TIP3   OH243084   0.933   4.923   3.592  0.1197 -0.3544 -0.2081
 7198TIP3    H143085   1.001   4.857   3.587  1.2203  0.7086  0.1833
 7198TIP3    H243086   0.897   4.929   3.503 -0.5712 -2.0179 -0.0704
 7199TIP3   OH243087   1.642   4.464  11.565 -0.1596 -0.0417  0.2847
 7199TIP3    H143088   1.557   4.507  11.573 -0.9815 -1.5722  0.1804
 7199TIP3    H243089   1.621   4.375  11.538  1.5510 -0.1412 -0.8992
 7200TIP3   OH243090   3.941   2.950  16.859 -0.7414 -0.1128 -0.5275
 7200TIP3    H143091   3.938   3.046  16.868  2.5230  0.2702 -2.0219
 7200TIP3    H243092   3.884   2.932  16.784  1.3103  1.2140 -2.5459
 7201TIP3   OH243093   4.263   5.310  16.509  0.0606 -0.1827  0.2706
 7201TIP3    H143094   4.288   5.391  16.466  1.0490 -0.7046 -0.1604
 7201TIP3    H243095   4.341   5.254  16.504 -0.4224 -0.9633  1.0316
 7202TIP3   OH243096   3.738   0.481  15.676 -0.6680  0.0681  0.2322
 7202TIP3    H143097   3.794   0.551  15.707 -1.5834  0.3723  1.2472
 7202TIP3    H243098   3.675   0.524  15.618 -1.2456  0.1102  0.8748
 7203TIP3   OH243099   1.234   4.871  15.731 -0.3242  0.2899  0.4214
 7203TIP3    H143100   1.175   4.937  15.693  0.6078  0.1328 -1.4339
 7203TIP3    H243101   1.310   4.920  15.760 -0.0119  0.1473 -0.1408
 7204TIP3   OH243102   5.274   5.003  14.796  1.1719  0.1311 -0.2334
 7204TIP3    H143103   5.314   4.973  14.878  1.3827 -1.6513 -0.9388
 7204TIP3    H243104   5.220   4.929  14.768  1.7601  0.3797 -2.1275
 7205TIP3   OH243105   1.711   1.655  17.047  0.1102  0.0112  0.0945
 7205TIP3    H143106   1.631   1.690  17.086 -0.3277 -1.4691  0.6134
 7205TIP3    H243107   1.704   1.678  16.954 -1.0893 -0.3751  0.0666
 7206TIP3   OH243108   6.823   2.357  15.237  0.5374  0.0360  0.8110
 7206TIP3    H143109   6.813   2.273  15.192 -0.8316  0.7517 -0.2904
 7206TIP3    H243110   6.768   2.350  15.314 -0.0596  0.1366  0.3975
 7207TIP3   OH243111   5.440   4.174  15.318 -0.2235  0.4589 -0.1559
 7207TIP3    H143112   5.487   4.091  15.311  0.1613  0.4130  2.2144
 7207TIP3    H243113   5.465   4.223  15.240  0.9557 -0.9558 -0.6994
 7208TIP3   OH243114   2.631   4.046  11.612  0.5152 -0.3743 -0.2515
 7208TIP3    H143115   2.659   4.065  11.701  1.6367  0.3874 -0.7464
 7208TIP3    H243116   2.682   3.969  11.587  0.3879 -0.4346 -0.3277
 7209TIP3   OH243117   0.322   2.595   1.087  0.4966  0.8495 -0.2777
 7209TIP3    H143118   0.308   2.503   1.063  3.2358 -0.0805  1.2987
 7209TIP3    H243119   0.233   2.631   1.094 -0.9334 -2.5718  2.3179
 7210TIP3   OH243120   2.851   6.448   2.419  0.3301 -0.5347  0.0311
 7210TIP3    H143121   2.909   6.419   2.489 -0.9483 -1.1752  0.8497
 7210TIP3    H243122   2.890   6.410   2.339  1.4350 -0.3273  0.4461
 7211TIP3   OH243123   1.117   5.385  11.000  0.4613  0.0227  0.3196
 7211TIP3    H143124   1.090   5.420  10.915  0.4972  0.1692  0.3685
 7211TIP3    H243125   1.211   5.404  11.005  0.6555 -0.8112 -0.0064
 7212TIP3   OH243126   1.090   3.943  15.329  0.0094 -0.0643  0.2285
 7212TIP3    H143127   1.153   3.901  15.271 -0.1462 -2.7533  1.8237
 7212TIP3    H243128   1.006   3.903  15.306 -0.8365  2.0329 -0.5468
 7213TIP3   OH243129   2.102   4.327   0.919 -0.0234  0.1644  0.3531
 7213TIP3    H143130   2.183   4.276   0.922 -0.0865  0.0894  0.7206
 7213TIP3    H243131   2.128   4.415   0.945 -0.0419  0.1640  0.3731
 7214TIP3   OH243132   4.884   2.366  10.281 -0.4022 -0.1083  0.2564
 7214TIP3    H143133   4.807   2.402  10.323  0.5771  1.7466  0.5406
 7214TIP3    H243134   4.902   2.425  10.208  1.5847  0.3937  1.0826
 7215TIP3   OH243135   6.253   6.654   0.204 -0.1378 -0.0250  0.2484
 7215TIP3    H143136   6.184   6.700   0.251  0.1021 -0.2404  0.8232
 7215TIP3    H243137   6.332   6.668   0.257  0.0223 -0.7409  0.2160
 7216TIP3   OH243138   1.308   4.559   3.121  0.7334 -0.5736 -0.0577
 7216TIP3    H143139   1.349   4.479   3.086  0.4515 -1.8086  2.2482
 7216TIP3    H243140   1.245   4.527   3.185 -2.6421  1.3292 -2.1354
 7217TIP3   OH243141   4.414   1.040   5.766 -0.9725  0.5965 -0.0868
 7217TIP3    H143142   4.400   1.003   5.679 -0.9929 -0.8259  0.5017
 7217TIP3    H243143   4.329   1.036   5.809 -0.3824 -1.4678  1.0052
 7218TIP3   OH243144   4.450   3.547  10.645  0.3836  0.3585 -0.0412
 7218TIP3    H143145   4.375   3.536  10.586  0.6903 -0.1075 -0.3576
 7218TIP3    H243146   4.520   3.579  10.588  0.3294  1.1337  0.3205
 7219TIP3   OH243147   5.668   5.416   3.483 -0.0643  0.3946  0.5311
 7219TIP3    H143148   5.604   5.475   3.526 -0.6903  0.1238 -0.0197
 7219TIP3    H243149   5.631   5.400   3.396 -1.0849 -2.6073  1.3994
 7220TIP3   OH243150   2.311   2.564   0.394 -0.1272  0.1931  0.6209
 7220TIP3    H143151   2.222   2.544   0.421 -0.0278 -0.4242  0.5104
 7220TIP3    H243152   2.345   2.481   0.359  0.5053  0.4027  0.7142
 7221TIP3   OH243153   1.743   0.836   0.525  0.1144  0.8511  0.3903
 7221TIP3    H143154   1.701   0.918   0.547 -0.8813  0.1966  0.9799
 7221TIP3    H243155   1.671   0.775   0.509  0.8151  0.4507 -1.4838
 7222TIP3   OH243156   3.693   1.099   4.588  0.3930 -0.1539  0.0416
 7222TIP3    H143157   3.757   1.028   4.591 -1.6981 -2.1542  0.7328
 7222TIP3    H243158   3.649   1.095   4.673 -1.3728  0.4041 -0.7961
 7223TIP3   OH243159   6.121   4.959   2.887  0.4896 -0.4554  0.1882
 7223TIP3    H143160   6.044   4.992   2.842 -0.9204 -2.2257  1.1772
 7223TIP3    H243161   6.184   5.032   2.884 -1.4631  1.3058  0.0154
 7224TIP3   OH243162   4.193   3.937   0.558  0.2253  0.0368 -0.8355
 7224TIP3    H143163   4.179   4.001   0.628 -1.2987 -0.5143 -0.6041
 7224TIP3    H243164   4.223   3.990   0.483  1.0964  0.7225 -0.0353
 7225TIP3   OH243165   0.216   1.441   2.647  0.3523  0.0269  0.4198
 7225TIP3    H143166   0.240   1.388   2.723 -1.3340 -0.3829  0.6982
 7225TIP3    H243167   0.189   1.377   2.581  0.6560  0.4424 -0.1163
 7226TIP3   OH243168   1.114   3.838  13.435 -0.5264 -0.2700  0.1817
 7226TIP3    H143169   1.095   3.775  13.366  0.1810 -0.6852  0.3576
 7226TIP3    H243170   1.054   3.814  13.506 -2.4126  1.1535 -0.8266
 7227TIP3   OH243171   4.830   4.112  12.079  0.2190 -0.6465  0.0873
 7227TIP3    H143172   4.885   4.035  12.064 -1.1171 -1.4709 -0.7434
 7227TIP3    H243173   4.797   4.101  12.168  1.6656  0.0534  0.7363
 7228TIP3   OH243174   5.239   3.369  11.136  0.2298 -0.2652  0.3527
 7228TIP3    H143175   5.215   3.398  11.048 -1.9524  0.6776  1.1866
 7228TIP3    H243176   5.291   3.441  11.171 -2.5514  1.4403  1.2958
 7229TIP3   OH243177   0.434   3.239  12.802 -0.4153  0.2989  0.3337
 7229TIP3    H143178   0.475   3.215  12.885  0.8538  0.4934 -0.2128
 7229TIP3    H243179   0.481   3.318  12.774 -0.8051  0.2134 -0.5792
 7230TIP3   OH243180   3.835   4.814   0.455  0.2396 -0.0673  0.1173
 7230TIP3    H143181   3.739   4.817   0.460  0.1204 -0.8877 -1.2415
 7230TIP3    H243182   3.864   4.827   0.545 -1.1212  0.9987  0.4308
 7231TIP3   OH243183   2.536   4.500  15.823  0.2081 -0.1649 -0.6315
 7231TIP3    H143184   2.495   4.559  15.887  0.3301  0.1324 -0.8261
 7231TIP3    H243185   2.504   4.413  15.847 -0.1369  0.0040 -0.4681
 7232TIP3   OH243186   2.057   0.175  15.242 -0.8390 -0.1287  0.1657
 7232TIP3    H143187   2.148   0.162  15.214 -0.5266  0.9803  0.6137
 7232TIP3    H243188   2.012   0.096  15.212 -0.2369  0.3460 -2.2314
 7233TIP3   OH243189   3.498   6.090   4.455  0.1997 -0.5283 -0.0074
 7233TIP3    H143190   3.403   6.075   4.459  0.0377  0.0812 -1.0772
 7233TIP3    H243191   3.525   6.100   4.546 -0.9805  0.4748  0.2578
 7234TIP3   OH243192   4.081   5.889   5.528 -0.4861  0.1874 -0.4378
 7234TIP3    H143193   4.145   5.959   5.511 -1.6610  1.1943 -0.8740
 7234TIP3    H243194   4.118   5.840   5.601  0.2520  1.4216  0.0567
 7235TIP3   OH243195   6.480   5.950  16.063  0.4722 -0.1391  0.0831
 7235TIP3    H143196   6.498   5.971  16.155 -1.0841 -0.7021  0.5524
 7235TIP3    H243197   6.405   6.006  16.041  0.0241 -0.9273 -0.4401
 7236TIP3   OH243198   1.894   6.289   4.063 -0.0815  0.1001  0.0139
 7236TIP3    H143199   1.964   6.225   4.077  0.3469  0.4664 -0.3936
 7236TIP3    H243200   1.853   6.299   4.149  0.1218 -0.4045  0.1725
 7237TIP3   OH243201   5.127   3.378   3.566 -0.0119 -0.6998  0.0861
 7237TIP3    H143202   5.074   3.336   3.498 -0.5839  1.2951 -0.7842
 7237TIP3    H243203   5.067   3.387   3.640  0.1178 -1.3991  0.2817
 7238TIP3   OH243204   6.016   6.219   4.070  0.1379  0.3577 -0.3317
 7238TIP3    H143205   5.984   6.234   4.158  0.2799 -0.0124 -0.2124
 7238TIP3    H243206   5.989   6.296   4.020  0.6932  0.9065  0.2028
 7239TIP3   OH243207   0.291   3.966   4.589 -0.4214  0.5902  0.2039
 7239TIP3    H143208   0.208   3.999   4.623 -0.0831  0.1146  1.5349
 7239TIP3    H243209   0.293   3.873   4.613 -1.1997 -0.4342 -3.1822
 7240TIP3   OH243210   1.757   4.277  14.566 -0.1455 -0.2387  0.4033
 7240TIP3    H143211   1.779   4.366  14.594  0.5733 -0.3187  0.1125
 7240TIP3    H243212   1.840   4.229  14.570 -0.6046 -1.0145  0.9778
 7241TIP3   OH243213   3.868   2.737  13.051 -0.1950  0.6025  1.1628
 7241TIP3    H143214   3.888   2.681  13.126 -0.4724  0.3570  1.0558
 7241TIP3    H243215   3.903   2.823  13.075  3.4788 -0.3613 -0.1168
 7242TIP3   OH243216   2.073   1.744  14.662 -0.3891 -0.4091 -0.0317
 7242TIP3    H143217   2.029   1.697  14.732 -1.8837  2.2141  0.8843
 7242TIP3    H243218   2.151   1.781  14.703 -0.2964 -0.3805 -0.2307
 7243TIP3   OH243219   6.125   0.526  14.897 -0.2736 -0.4595  0.1552
 7243TIP3    H143220   6.179   0.561  14.968  0.0414  0.3413 -0.4722
 7243TIP3    H243221   6.173   0.549  14.817 -0.8878 -0.8984 -0.3428
 7244TIP3   OH243222   6.689   0.146   3.446  0.5249 -0.0156 -0.0466
 7244TIP3    H143223   6.773   0.182   3.416  0.1853 -0.0829 -1.1316
 7244TIP3    H243224   6.712   0.092   3.521  1.3396  0.6615  0.2124
 7245TIP3   OH243225   6.369   0.998  16.902  0.6140  0.1940  0.0114
 7245TIP3    H143226   6.360   0.903  16.897 -0.0653  0.2907 -0.9335
 7245TIP3    H243227   6.410   1.014  16.987  1.4471 -0.9887 -0.1422
 7246TIP3   OH243228   0.290   3.715   4.695  0.0002 -0.0186 -0.0350
 7246TIP3    H143229   0.282   3.622   4.674  2.3570 -0.1483 -0.7219
 7246TIP3    H243230   0.327   3.716   4.783  2.0257  0.1449 -0.8361
 7247TIP3   OH243231   6.039   2.750   2.980 -0.2673  0.2885 -0.0546
 7247TIP3    H143232   6.094   2.674   2.961 -0.8529  0.1139 -1.1686
 7247TIP3    H243233   6.053   2.809   2.906  1.3688  2.0052  1.5180
 7248TIP3   OH243234   5.770   2.770  16.405 -0.2289 -0.0713  0.1079
 7248TIP3    H143235   5.833   2.807  16.467  0.9306 -0.4443 -0.8257
 7248TIP3    H243236   5.765   2.677  16.428  1.5360 -0.5820 -1.4307
 7249TIP3   OH243237   3.035   3.632  15.286 -0.0608  0.5474 -0.2760
 7249TIP3    H143238   2.992   3.699  15.233 -0.5059 -0.1168 -0.7865
 7249TIP3    H243239   3.118   3.615  15.240 -1.2683 -1.3997 -1.9596
 7250TIP3   OH243240   1.190   6.672  11.201  0.1497 -0.0386 -0.1298
 7250TIP3    H143241   1.116   6.675  11.140  0.0486  0.7900  0.0232
 7250TIP3    H243242   1.239   6.594  11.175  0.4708  0.6475 -1.7096
 7251TIP3   OH243243   1.036   2.047   4.946  0.0639 -0.0511 -0.0705
 7251TIP3    H143244   1.074   1.967   4.983  0.1173  0.0176  0.0245
 7251TIP3    H243245   0.942   2.040   4.964  0.3064  0.8487  1.7507
 7252TIP3   OH243246   1.880   2.919   5.222 -0.6119  0.2518  0.1105
 7252TIP3    H143247   1.905   3.007   5.195 -0.2408  0.6136  1.5258
 7252TIP3    H243248   1.906   2.863   5.149  0.5642  1.1302 -0.1707
 7253TIP3   OH243249   2.539   6.276   4.638 -0.1561 -0.0087  0.3184
 7253TIP3    H143250   2.455   6.299   4.677  0.7446  1.8001  1.2822
 7253TIP3    H243251   2.550   6.337   4.565 -0.6559 -1.7095 -1.2591
 7254TIP3   OH243252   0.597   3.657   2.710  0.1886  0.3525 -0.2331
 7254TIP3    H143253   0.554   3.740   2.686  0.6396  0.7461  0.2937
 7254TIP3    H243254   0.597   3.656   2.805  2.6662  1.1055 -0.1371
 7255TIP3   OH243255   6.476   3.075   6.164 -0.2732 -0.1468 -0.2027
 7255TIP3    H143256   6.485   2.993   6.213 -1.9245  0.2172  0.7485
 7255TIP3    H243257   6.397   3.063   6.111 -0.5468  0.8385 -0.0294
 7256TIP3   OH243258   5.867   3.719   0.526  0.0107  0.0487 -0.2788
 7256TIP3    H143259   5.806   3.792   0.540 -1.0187 -0.6531 -0.9465
 7256TIP3    H243260   5.819   3.659   0.469  0.3745 -1.7045  1.1826
 7257TIP3   OH243261   4.415   4.467   3.620  0.4937  0.3879 -0.1960
 7257TIP3    H143262   4.357   4.533   3.581  1.0095  0.6896 -0.4719
 7257TIP3    H243263   4.441   4.506   3.704  1.2021  0.7742 -0.5854
 7258TIP3   OH243264   0.366   0.153   5.115  0.1187  0.3377  0.5622
 7258TIP3    H143265   0.309   0.077   5.112  0.1595  0.3163 -2.2060
 7258TIP3    H243266   0.321   0.219   5.062  1.1965  1.4326  0.9505
 7259TIP3   OH243267   3.637   0.737   6.504 -0.7406 -0.3208 -0.2576
 7259TIP3    H143268   3.650   0.831   6.498  0.6739 -0.4659  0.2371
 7259TIP3    H243269   3.584   0.724   6.583 -0.1036 -0.0118  0.2218
 7260TIP3   OH243270   1.694   3.247   4.862  0.0833 -0.2177  0.0051
 7260TIP3    H143271   1.704   3.264   4.955  0.2239  1.3685 -0.2641
 7260TIP3    H243272   1.684   3.334   4.823  0.1645 -0.8376 -1.4710
 7261TIP3   OH243273   0.762   5.465  12.633  0.1180 -0.2260 -0.1382
 7261TIP3    H143274   0.718   5.519  12.567 -0.0367 -1.4417 -1.0634
 7261TIP3    H243275   0.784   5.526  12.703 -0.7690  0.8862 -0.7921
 7262TIP3   OH243276   1.986   0.498  14.326 -0.0605 -0.0165  0.3977
 7262TIP3    H143277   2.032   0.571  14.366  0.2738  0.1356 -0.2558
 7262TIP3    H243278   1.930   0.538  14.260  0.3277 -0.3698 -0.1526
 7263TIP3   OH243279   0.602   5.720  16.504 -0.1272 -0.5295  0.0516
 7263TIP3    H143280   0.554   5.638  16.513  0.2516 -0.8312 -0.5988
 7263TIP3    H243281   0.570   5.758  16.423 -0.6568  0.2187  0.6010
 7264TIP3   OH243282   5.991   0.398  13.325  0.2899  0.5072  0.3064
 7264TIP3    H143283   6.020   0.312  13.296 -2.1960 -0.3161  0.0264
 7264TIP3    H243284   5.950   0.382  13.410 -1.4569  1.1137 -0.3755
 7265TIP3   OH243285   2.395   4.523  14.890  0.2087 -0.4954 -0.0878
 7265TIP3    H143286   2.404   4.613  14.858  1.6073  0.2582  2.2160
 7265TIP3    H243287   2.483   4.500  14.920 -0.2512 -2.4719 -0.1575
 7266TIP3   OH243288   6.596   4.298  16.272 -0.1649  0.0365  0.6278
 7266TIP3    H143289   6.556   4.355  16.338  0.6023  1.0911  0.1990
 7266TIP3    H243290   6.587   4.210  16.309 -4.2314 -0.0402 -0.0698
 7267TIP3   OH243291   5.499   0.419  15.741  0.1349 -0.7198 -0.3415
 7267TIP3    H143292   5.405   0.400  15.748  0.8026 -3.7596  3.5029
 7267TIP3    H243293   5.532   0.354  15.679 -0.1927  0.3749 -1.7247
 7268TIP3   OH243294   4.800   5.066   4.963  0.1755  0.3762 -0.1450
 7268TIP3    H143295   4.801   4.993   5.024 -0.5280 -0.8024 -1.4844
 7268TIP3    H243296   4.889   5.068   4.927  0.3072  0.4376  0.1792
 7269TIP3   OH243297   4.366   4.771  10.672 -0.1734 -0.0147 -0.0807
 7269TIP3    H143298   4.460   4.753  10.676 -0.6035 -2.9444 -0.4764
 7269TIP3    H243299   4.338   4.730  10.591 -1.7326  1.3608 -0.2729
 7270TIP3   OH243300   2.918   5.392  11.861 -0.0784  0.3045  0.0117
 7270TIP3    H143301   2.891   5.440  11.783  2.3784 -0.6134 -1.4924
 7270TIP3    H243302   2.894   5.301  11.844 -2.3871  0.4850  1.7690
 7271TIP3   OH243303   4.160   5.949   3.555  0.0930 -0.1404  0.3387
 7271TIP3    H143304   4.151   5.999   3.636 -0.1898 -0.1887  0.3395
 7271TIP3    H243305   4.073   5.953   3.515  0.4144  0.4892 -0.3171
 7272TIP3   OH243306   3.514   0.886  14.785  0.9472 -0.1151 -0.2952
 7272TIP3    H143307   3.609   0.892  14.780  1.1603 -2.2960  0.0147
 7272TIP3    H243308   3.483   0.929  14.705  2.0569  1.9432  0.3024
 7273TIP3   OH243309   0.243   5.993   3.220 -0.2949  0.7934  0.4399
 7273TIP3    H143310   0.276   6.081   3.201 -0.6981  0.9187  0.3110
 7273TIP3    H243311   0.147   6.003   3.218 -0.4192 -0.2342 -2.3020
 7274TIP3   OH243312   0.104   1.295  14.019  0.0749 -0.5317  0.1738
 7274TIP3    H143313   0.042   1.223  14.028  2.3459 -2.9336 -1.7997
 7274TIP3    H243314   0.112   1.309  13.924  0.8451  1.3110  0.4502
 7275TIP3   OH243315   5.901   0.881   0.074 -0.1966 -0.0936  0.7348
 7275TIP3    H143316   5.922   0.949   0.137 -0.3976  0.0641  0.6334
 7275TIP3    H243317   5.924   0.919  -0.011 -1.3954  0.2935  0.5691
 7276TIP3   OH243318   6.356   3.579   1.419  0.1956 -0.4787  0.7904
 7276TIP3    H143319   6.276   3.580   1.366  0.5295 -0.9394  0.2762
 7276TIP3    H243320   6.343   3.651   1.481  0.4139  1.0787 -0.8498
 7277TIP3   OH243321   5.457   6.595   0.738 -0.1621 -0.0690 -0.0900
 7277TIP3    H143322   5.498   6.620   0.655 -0.2148  0.9977  0.1882
 7277TIP3    H243323   5.524   6.545   0.784  0.8411  1.5902  0.3262
 7278TIP3   OH243324   5.118   3.628   2.058  0.1302 -1.1111  0.0860
 7278TIP3    H143325   5.202   3.615   2.015 -0.2023 -1.1351 -0.5576
 7278TIP3    H243326   5.128   3.711   2.105  0.6994 -1.3884  0.4752
 7279TIP3   OH243327   0.968   2.186   5.600  0.4483  0.1771 -0.4268
 7279TIP3    H143328   0.987   2.099   5.564  0.7149 -0.4562  1.1723
 7279TIP3    H243329   1.013   2.246   5.541  1.1117 -0.8380 -0.9870
 7280TIP3   OH243330   6.306   1.125   4.365 -0.0400  0.1742 -0.1726
 7280TIP3    H143331   6.362   1.201   4.376 -1.8798  1.8715 -1.7521
 7280TIP3    H243332   6.360   1.061   4.318  1.7782  0.1276  1.8728
 7281TIP3   OH243333   0.393   3.339  16.211  0.2480  1.0879  0.1968
 7281TIP3    H143334   0.429   3.424  16.236  0.5297  0.9024  0.4265
 7281TIP3    H243335   0.423   3.325  16.121  1.0659  0.7635  0.5163
 7282TIP3   OH243336   6.574   1.718   2.948 -0.0080 -0.5176 -0.2387
 7282TIP3    H143337   6.513   1.789   2.928 -0.7838 -1.1344 -0.1412
 7282TIP3    H243338   6.518   1.648   2.982  0.5696 -1.6386 -1.5133
 7283TIP3   OH243339   4.489   1.337   3.249  0.0411 -0.4992  0.0963
 7283TIP3    H143340   4.486   1.366   3.158  0.5322 -1.7334 -0.3400
 7283TIP3    H243341   4.547   1.260   3.248  1.4652  0.4680  1.7379
 7284TIP3   OH243342   6.570   5.957   4.941 -0.1088  0.0562 -0.2754
 7284TIP3    H143343   6.566   5.982   4.849 -0.9954 -0.0933 -0.2848
 7284TIP3    H243344   6.593   6.038   4.988  0.6807  0.0585 -0.6490
 7285TIP3   OH243345   0.961   3.538  10.741  0.4472  0.0030  0.1156
 7285TIP3    H143346   0.931   3.565  10.827 -1.7659 -1.1546 -0.2258
 7285TIP3    H243347   1.052   3.511  10.754  0.0432 -0.4994  2.1718
 7286TIP3   OH243348   2.595   6.485  13.134  0.0446  0.3864  0.5101
 7286TIP3    H143349   2.685   6.479  13.167  0.2398  2.0085  0.3823
 7286TIP3    H243350   2.540   6.473  13.211  0.3994  0.1922  0.7348
 7287TIP3   OH243351   4.494   2.356  15.599 -0.2669  0.1264  0.5430
 7287TIP3    H143352   4.405   2.353  15.634  0.0401  0.3494  1.3726
 7287TIP3    H243353   4.550   2.356  15.677  0.5320 -1.9424  0.0551
 7288TIP3   OH243354   6.603   1.466   0.188  0.3422 -0.0246  0.6390
 7288TIP3    H143355   6.680   1.430   0.144  1.0386  1.6536  0.4286
 7288TIP3    H243356   6.556   1.514   0.120  0.3545  0.8829  1.2510
 7289TIP3   OH243357   0.606   4.724  17.040 -0.2226  0.1185  0.4071
 7289TIP3    H143358   0.578   4.637  17.011  0.0240  0.4575 -0.9062
 7289TIP3    H243359   0.556   4.784  16.985  0.1013  0.8096  0.8567
 7290TIP3   OH243360   4.421   2.898  11.633 -0.3516  0.0368 -0.1972
 7290TIP3    H143361   4.410   2.810  11.669  0.5240 -1.0283 -2.3552
 7290TIP3    H243362   4.337   2.942  11.649 -0.1393 -0.4189  2.7160
 7291TIP3   OH243363   5.934   6.430   4.900 -0.0493 -0.7754 -0.1368
 7291TIP3    H143364   5.891   6.494   4.957 -1.4493 -1.2021 -0.6768
 7291TIP3    H243365   5.998   6.387   4.956 -2.3532 -2.1846  1.5667
 7292TIP3   OH243366   5.149   5.242   5.479  0.5078  0.5459 -0.3595
 7292TIP3    H143367   5.070   5.249   5.533 -0.0044 -1.5949 -0.7134
 7292TIP3    H243368   5.121   5.270   5.392  0.3241  0.4789 -0.3227
 7293TIP3   OH243369   4.492   3.902   5.520  0.2291 -0.0595  0.5046
 7293TIP3    H143370   4.412   3.948   5.494 -0.6234 -2.5815 -1.7793
 7293TIP3    H243371   4.561   3.968   5.513 -0.8503  0.9127 -2.9732
 7294TIP3   OH243372   6.346   3.636  10.660 -0.1210 -0.0174 -0.2851
 7294TIP3    H143373   6.337   3.704  10.593 -4.9987  0.1977  0.2764
 7294TIP3    H243374   6.393   3.679  10.731 -1.1252  2.0689 -0.8100
 7295TIP3   OH243375   4.292   3.191   1.085  0.3424 -0.5291 -0.3723
 7295TIP3    H143376   4.336   3.204   1.001  0.3458 -0.1063 -0.3101
 7295TIP3    H243377   4.208   3.151   1.062  0.0092  0.3047 -0.6556
 7296TIP3   OH243378   3.593   4.662  13.355 -0.4881  0.3886 -0.2681
 7296TIP3    H143379   3.541   4.596  13.310 -1.7690  0.8508  0.4921
 7296TIP3    H243380   3.562   4.745  13.321 -1.1386  0.7235  1.0902
 7297TIP3   OH243381   2.406   6.187  11.758  0.2108 -0.1133  0.2773
 7297TIP3    H143382   2.473   6.119  11.755 -0.2982 -0.8029  2.4984
 7297TIP3    H243383   2.442   6.254  11.816  0.8014  1.7230 -2.0553
 7298TIP3   OH243384   3.494   0.301  11.571  0.0737  0.0389  0.2816
 7298TIP3    H143385   3.462   0.340  11.651 -0.0406 -0.3975  0.4523
 7298TIP3    H243386   3.542   0.223  11.599  1.6688  0.8961  0.0731
 7299TIP3   OH243387   2.613   4.135  10.984  0.8266 -0.3953  0.1629
 7299TIP3    H143388   2.548   4.065  10.979  0.6647 -0.1842 -0.8187
 7299TIP3    H243389   2.601   4.173  11.071 -0.5745 -0.1593 -0.1183
 7300TIP3   OH243390   1.550   6.596   5.169 -0.2155  0.5011 -0.3607
 7300TIP3    H143391   1.529   6.686   5.195 -0.1777  0.6441 -0.8042
 7300TIP3    H243392   1.517   6.542   5.240 -0.2125  0.8698 -0.0745
 7301TIP3   OH243393   5.220   0.522  14.914  0.0296  0.2307 -0.1390
 7301TIP3    H143394   5.252   0.580  14.982 -0.2463 -0.7706  0.8788
 7301TIP3    H243395   5.190   0.580  14.844  0.3413  1.2689  0.5736
 7302TIP3   OH243396   2.589   2.887   0.610 -0.1212 -0.0560  0.0302
 7302TIP3    H143397   2.525   2.951   0.578  0.6866  1.2428  0.8945
 7302TIP3    H243398   2.585   2.815   0.548 -4.5825 -1.4848  1.5971
 7303TIP3   OH243399   3.540   5.271  14.924  0.5824  0.2591 -0.4394
 7303TIP3    H143400   3.593   5.193  14.940  0.8120  0.6572  0.8861
 7303TIP3    H243401   3.474   5.243  14.861  2.9247 -0.0109 -2.9707
 7304TIP3   OH243402   6.824   0.183  14.585 -0.3577  0.2349 -0.8772
 7304TIP3    H143403   6.778   0.204  14.666  0.6829 -1.0541  0.0985
 7304TIP3    H243404   6.781   0.103  14.554  0.2841 -0.1841 -0.7098
 7305TIP3   OH243405   5.320   3.465   1.226 -0.2670  0.0860 -0.4595
 7305TIP3    H143406   5.258   3.533   1.253 -0.9200 -0.6691 -0.0385
 7305TIP3    H243407   5.333   3.411   1.304 -0.9292 -1.1650 -1.1804
 7306TIP3   OH243408   5.434   0.907   2.195 -0.6032  0.5221  0.2544
 7306TIP3    H143409   5.442   0.927   2.101  0.5535  0.4401  0.3101
 7306TIP3    H243410   5.368   0.968   2.227  0.2423  1.7694 -0.2901
 7307TIP3   OH243411   6.816   4.399   4.025 -0.2695  0.7687  0.0407
 7307TIP3    H143412   6.809   4.488   4.060  2.9339  1.9829 -2.0289
 7307TIP3    H243413   6.873   4.354   4.087 -0.8550  0.4877  0.3935
 7308TIP3   OH243414   6.199   0.174  13.272 -0.2045  0.0223 -0.4927
 7308TIP3    H143415   6.270   0.219  13.318  0.1901  0.1192 -1.1778
 7308TIP3    H243416   6.236   0.153  13.186 -0.5306 -1.2038 -0.3544
 7309TIP3   OH243417   0.621   4.986   5.599 -0.2597 -0.2501 -0.3459
 7309TIP3    H143418   0.648   5.071   5.633 -0.1352 -0.2135 -0.5328
 7309TIP3    H243419   0.660   4.982   5.512 -0.9048 -0.1805 -0.6382
 7310TIP3   OH243420   3.529   3.711   4.790  0.0491  0.1923  0.2924
 7310TIP3    H143421   3.578   3.793   4.784  1.1605 -0.4322  0.5833
 7310TIP3    H243422   3.563   3.668   4.868 -1.2406 -0.1033  0.7181
 7311TIP3   OH243423   3.295   2.906  12.432 -0.4120  0.2617 -0.4304
 7311TIP3    H143424   3.295   2.881  12.340 -1.0959  0.0923 -0.3835
 7311TIP3    H243425   3.241   2.840  12.476  1.7761 -1.0313  0.4793
 7312TIP3   OH243426   3.017   4.628  12.135 -0.1527  0.2401 -0.7392
 7312TIP3    H143427   3.112   4.635  12.147 -0.3725  1.5293  0.5623
 7312TIP3    H243428   3.007   4.610  12.042  1.3707  0.3113 -0.9564
 7313TIP3   OH243429   3.491   5.516   5.268  0.0679 -0.2555 -0.2319
 7313TIP3    H143430   3.586   5.530   5.273 -0.1143  0.4900  2.1221
 7313TIP3    H243431   3.468   5.479   5.353 -2.0176  1.4056 -0.0089
 7314TIP3   OH243432   6.767   5.126   1.557  0.3721  0.1558 -0.5906
 7314TIP3    H143433   6.755   5.179   1.636  0.5010 -0.7252  0.0315
 7314TIP3    H243434   6.700   5.157   1.496 -0.3525  0.1829  0.2185
 7315TIP3   OH243435   0.692   0.916  11.956  0.3317  0.1962 -0.3020
 7315TIP3    H143436   0.726   1.006  11.958  1.1070 -0.0782 -0.9165
 7315TIP3    H243437   0.686   0.892  12.048  0.1965  0.8497 -0.1307
 7316TIP3   OH243438   5.033   0.916   4.215  0.2021 -0.2498  0.1049
 7316TIP3    H143439   5.036   0.821   4.208  0.8581 -0.2098 -0.3045
 7316TIP3    H243440   4.940   0.937   4.220  0.0605 -0.9212  0.3332
 7317TIP3   OH243441   6.004   6.211   3.429  0.3477 -0.7219 -0.1455
 7317TIP3    H143442   5.974   6.160   3.504 -0.3309 -0.9446 -0.5620
 7317TIP3    H243443   6.098   6.197   3.426  0.2595 -1.3983  0.1574
 7318TIP3   OH243444   3.157   1.972   0.557 -0.0043 -0.0530  0.0158
 7318TIP3    H143445   3.066   1.989   0.582  0.0501 -0.6847  0.6451
 7318TIP3    H243446   3.189   1.908   0.620  1.3431  1.2523  0.7350
 7319TIP3   OH243447   6.401   2.700   5.634 -0.1896 -0.1431 -0.5210
 7319TIP3    H143448   6.412   2.609   5.662  1.6319  0.3769  0.6723
 7319TIP3    H243449   6.352   2.741   5.706 -0.6853 -0.0814 -0.8861
 7320TIP3   OH243450   1.880   2.248   1.808  0.3204 -0.1290  0.7453
 7320TIP3    H143451   1.863   2.342   1.803 -0.5334 -0.1817  2.1963
 7320TIP3    H243452   1.918   2.226   1.723 -0.9054  1.2445 -0.1988
 7321TIP3   OH243453   2.136   3.997   2.655  0.1072  0.3228  0.1663
 7321TIP3    H143454   2.185   3.997   2.572  1.7866 -1.5066  1.0796
 7321TIP3    H243455   2.187   3.941   2.713 -2.3096 -0.4502  1.6925
 7322TIP3   OH243456   2.858   5.140   0.776  0.4774 -0.0176 -0.1276
 7322TIP3    H143457   2.861   5.235   0.761  0.9343  0.3261  1.8829
 7322TIP3    H243458   2.790   5.129   0.842 -0.8787 -1.3293 -1.6729
 7323TIP3   OH243459   3.958   2.463   4.303  0.2673 -0.2494 -0.1701
 7323TIP3    H143460   4.007   2.501   4.230  1.1874  0.5097  0.8005
 7323TIP3    H243461   3.882   2.519   4.313 -0.2332 -0.7606 -0.9584
 7324TIP3   OH243462   5.564   2.106  11.721 -0.0178 -0.7870  0.1116
 7324TIP3    H143463   5.500   2.039  11.695 -0.0243 -0.6300 -0.2796
 7324TIP3    H243464   5.623   2.060  11.780 -1.1772 -0.6412  1.4424
 7325TIP3   OH243465   3.333   4.341  15.911  0.2389 -0.5379 -0.2741
 7325TIP3    H143466   3.294   4.345  15.823 -1.2289 -0.4749  0.3497
 7325TIP3    H243467   3.427   4.354  15.896 -0.0255 -0.1686 -1.7981
 7326TIP3   OH243468   6.287   1.901  15.105 -0.4791 -0.2543  0.4332
 7326TIP3    H143469   6.306   1.925  15.195 -2.5558  0.0509  0.8376
 7326TIP3    H243470   6.296   1.983  15.056  0.7248 -0.4366  0.3223
 7327TIP3   OH243471   0.938   0.450   1.772  0.1473  0.7185 -0.3411
 7327TIP3    H143472   0.901   0.518   1.828 -0.0361 -0.2979  0.8373
 7327TIP3    H243473   0.990   0.396   1.831 -0.8736 -0.9977 -0.9022
 7328TIP3   OH243474   5.555   5.887  13.631 -0.1305  0.0064 -0.0525
 7328TIP3    H143475   5.494   5.814  13.643  0.3869 -0.7416 -1.6948
 7328TIP3    H243476   5.636   5.858  13.674 -0.3284  0.2045  0.4693
 7329TIP3   OH243477   1.924   0.247   2.893 -0.1710 -0.2933  0.1082
 7329TIP3    H143478   1.948   0.339   2.883  0.1780 -0.3922  0.0291
 7329TIP3    H243479   1.889   0.223   2.807  1.3171 -0.6942 -0.4242
 7330TIP3   OH243480   3.012   1.058   1.270 -0.0215  0.3356  0.3526
 7330TIP3    H143481   2.984   1.127   1.330 -0.4100  0.5342 -0.0472
 7330TIP3    H243482   2.948   0.988   1.283 -0.2605  0.4835 -0.0144
 7331TIP3   OH243483   2.002   1.463  14.699  0.3154 -0.3756  0.3947
 7331TIP3    H143484   1.981   1.393  14.637  0.2473 -0.0606  0.0587
 7331TIP3    H243485   2.097   1.462  14.704  0.3465 -0.1392 -0.0314
 7332TIP3   OH243486   2.272   6.853   3.809 -0.3985 -0.2252 -0.0119
 7332TIP3    H143487   2.248   6.944   3.795  0.1664  0.0096  0.5103
 7332TIP3    H243488   2.335   6.833   3.739  0.6481  0.2537  0.7648
 7333TIP3   OH243489   2.276   5.440  12.770  0.2825 -0.1619  0.4864
 7333TIP3    H143490   2.271   5.391  12.852  1.1720 -0.7059  0.2356
 7333TIP3    H243491   2.188   5.475  12.757 -0.0210 -0.5794  1.3592
 7334TIP3   OH243492   6.414   3.449  13.000  0.1252 -0.2968 -0.5118
 7334TIP3    H143493   6.422   3.374  12.941  0.8422  0.2164 -1.0671
 7334TIP3    H243494   6.484   3.509  12.975 -0.1586  0.3717  0.2209
 7335TIP3   OH243495   2.699   4.503  12.060 -0.1318 -0.6776 -0.3460
 7335TIP3    H143496   2.655   4.583  12.090 -1.0250 -1.2908  0.0127
 7335TIP3    H243497   2.783   4.504  12.105 -0.7810 -0.7374  0.9187
 7336TIP3   OH243498   5.978   4.856   0.508  0.0195  0.1825 -0.2913
 7336TIP3    H143499   5.933   4.795   0.567 -0.8900  1.1317  0.0353
 7336TIP3    H243500   5.908   4.900   0.461  0.7288 -0.5183 -2.0996
 7337TIP3   OH243501   4.514   3.180  12.729 -0.7445  0.5292  0.9303
 7337TIP3    H143502   4.454   3.157  12.658 -0.5468  0.8285  0.6631
 7337TIP3    H243503   4.566   3.252  12.694  0.4815 -0.3878  0.7887
 7338TIP3   OH243504   0.111   3.245   1.351  0.2017  0.2334 -0.3842
 7338TIP3    H143505   0.148   3.223   1.266  1.1314 -0.9465  0.2944
 7338TIP3    H243506   0.088   3.337   1.344 -1.5725 -0.2964 -2.5520
 7339TIP3   OH243507   2.937   2.113  13.428  0.0167 -0.2813  0.1866
 7339TIP3    H143508   2.860   2.093  13.374  1.3091 -0.6778 -1.5955
 7339TIP3    H243509   2.987   2.176  13.376  0.8392  0.0855  1.3827
 7340TIP3   OH243510   3.877   5.677   6.221  0.3568  0.2155 -0.1506
 7340TIP3    H143511   3.878   5.601   6.163  1.1644 -0.7648  1.1148
 7340TIP3    H243512   3.965   5.715   6.213  0.5212 -0.0077  0.5173
 7341TIP3   OH243513   6.267   0.614  15.109 -0.3154 -0.1715 -0.5843
 7341TIP3    H143514   6.250   0.570  15.193  1.3579 -0.2203 -0.2469
 7341TIP3    H243515   6.361   0.605  15.095 -0.7805 -1.8379 -3.4403
 7342TIP3   OH243516   5.286   5.723   3.525 -0.1524 -0.6028 -0.0813
 7342TIP3    H143517   5.231   5.731   3.603 -0.5510 -1.8338 -0.2201
 7342TIP3    H243518   5.335   5.805   3.522 -2.5897  0.9330 -0.4501
 7343TIP3   OH243519   1.137   3.310   1.624  0.1101  0.5249  0.5881
 7343TIP3    H143520   1.095   3.243   1.570 -0.7972  1.2606  0.3702
 7343TIP3    H243521   1.173   3.372   1.561 -1.3434  1.6292  0.7908
 7344TIP3   OH243522   3.474   2.066  15.682 -0.3205 -0.1140 -0.4294
 7344TIP3    H143523   3.522   1.985  15.697  2.3651  1.3056 -0.5548
 7344TIP3    H243524   3.393   2.056  15.731  0.2711 -2.5470  0.1796
 7345TIP3   OH243525   5.530   2.524  12.903 -0.3459 -0.4516 -0.0364
 7345TIP3    H143526   5.559   2.604  12.860 -2.9886  0.0359 -1.0784
 7345TIP3    H243527   5.524   2.547  12.996 -1.2690  0.6662 -0.3512
 7346TIP3   OH243528   0.426   0.800   4.238 -0.5219  0.3522 -0.0687
 7346TIP3    H143529   0.360   0.810   4.169 -1.0311  1.9021  0.5998
 7346TIP3    H243530   0.491   0.868   4.219 -0.4925  0.5676  0.7973
 7347TIP3   OH243531   5.732   0.206  16.590  0.2661  0.4561  0.6251
 7347TIP3    H143532   5.804   0.204  16.526  0.5237 -3.5317  0.8114
 7347TIP3    H243533   5.668   0.143  16.556 -1.0686  0.6036  2.7096
 7348TIP3   OH243534   3.221   5.253   0.009 -0.7609  0.0478 -0.1182
 7348TIP3    H143535   3.299   5.216   0.049 -0.7395 -0.1372 -0.3312
 7348TIP3    H243536   3.167   5.281   0.083 -1.0343 -0.9255  0.0661
 7349TIP3   OH243537   5.333   2.526   5.213 -0.0460  0.1350  0.2717
 7349TIP3    H143538   5.420   2.547   5.177  0.0791 -1.1458 -0.2496
 7349TIP3    H243539   5.325   2.581   5.291  1.2448  0.2763  0.3258
 7350TIP3   OH243540   4.922   4.410  14.351  0.2919 -0.0832 -0.2350
 7350TIP3    H143541   4.959   4.327  14.381  0.3882 -0.4877 -1.4104
 7350TIP3    H243542   4.970   4.476  14.400 -0.4056 -0.7215  1.3904
 7351TIP3   OH243543   5.875   5.768  13.268 -0.0491 -0.4578  0.5516
 7351TIP3    H143544   5.931   5.703  13.311 -0.9440 -1.0292  0.9057
 7351TIP3    H243545   5.801   5.717  13.235  0.6698 -0.0624 -1.8532
 7352TIP3   OH243546   0.697   3.876  15.847  0.4330 -0.0318  0.1030
 7352TIP3    H143547   0.615   3.830  15.830  0.5779 -2.1284  3.9620
 7352TIP3    H243548   0.764   3.823  15.806  0.0947  0.7018 -1.4881
 7353TIP3   OH243549   2.352   3.199  16.789  0.3494  0.1820 -0.2903
 7353TIP3    H143550   2.368   3.172  16.698  1.0454 -0.4823  0.0172
 7353TIP3    H243551   2.272   3.153  16.814 -1.3124  2.3209 -1.3453
 7354TIP3   OH243552   4.420   2.222  10.611  0.0979  0.0291  0.2091
 7354TIP3    H143553   4.463   2.140  10.587  1.4231  0.3914  1.1776
 7354TIP3    H243554   4.478   2.290  10.578 -0.9425  0.5936 -0.5039
 7355TIP3   OH243555   0.246   2.678  13.194  0.4640 -0.1175 -0.4645
 7355TIP3    H143556   0.203   2.760  13.170 -0.6228 -0.7011 -0.5727
 7355TIP3    H243557   0.340   2.696  13.185  0.2475  1.1643 -0.2894
 7356TIP3   OH243558   6.440   1.937  16.072 -0.2535  0.1247 -0.2722
 7356TIP3    H143559   6.442   2.018  16.123  0.5580  0.0722 -0.2071
 7356TIP3    H243560   6.426   1.868  16.137  1.4938 -0.0154  0.0162
 7357TIP3   OH243561   5.760   4.925   2.892  0.4824 -0.1567  0.3412
 7357TIP3    H143562   5.834   4.986   2.891 -0.4999  1.0766  0.6483
 7357TIP3    H243563   5.743   4.907   2.799 -1.3439  2.7532 -0.0029
 7358TIP3   OH243564   2.338   1.613   3.633 -0.0355  0.0056 -0.1598
 7358TIP3    H143565   2.248   1.580   3.631 -1.5402  3.6849 -0.0478
 7358TIP3    H243566   2.339   1.679   3.702  2.1293  1.5847 -1.5464
 7359TIP3   OH243567   6.026   6.843   1.702 -0.5313 -0.3260  0.7030
 7359TIP3    H143568   6.011   6.848   1.797  0.8014 -1.9773  1.0570
 7359TIP3    H243569   6.102   6.785   1.694 -1.4712 -1.3461 -1.4562
 7360TIP3   OH243570   3.540   4.409   1.493 -0.1962  0.5863  0.2862
 7360TIP3    H143571   3.559   4.376   1.581 -2.8588 -1.9577  0.0660
 7360TIP3    H243572   3.596   4.487   1.484  1.4446 -0.0334  3.5230
 7361TIP3   OH243573   4.905   6.143   3.797  0.3222 -0.3063 -0.6563
 7361TIP3    H143574   4.878   6.214   3.856 -0.1772 -0.6755 -0.4307
 7361TIP3    H243575   4.998   6.160   3.780  0.0648  0.7319 -1.0797
 7362TIP3   OH243576   6.613   3.601  16.045  0.1751 -0.3998 -0.1453
 7362TIP3    H143577   6.675   3.542  16.088 -0.1664  0.5554  1.7697
 7362TIP3    H243578   6.533   3.595  16.097 -0.5463  0.2068 -1.1391
 7363TIP3   OH243579   4.441   3.205  13.005 -0.4207 -0.1034  0.2966
 7363TIP3    H143580   4.437   3.300  13.014  0.1439 -0.0611  0.1342
 7363TIP3    H243581   4.449   3.190  12.911  0.4781 -0.2681  0.3918
 7364TIP3   OH243582   5.128   0.854   0.765  0.2993 -0.4896  0.1159
 7364TIP3    H143583   5.087   0.832   0.848 -1.3350  0.2818 -0.4450
 7364TIP3    H243584   5.218   0.878   0.788 -0.5993  1.4436  1.9198
 7365TIP3   OH243585   5.784   6.138  12.738  0.3239  0.5401 -0.0528
 7365TIP3    H143586   5.817   6.125  12.649 -2.0655 -1.8075 -0.7109
 7365TIP3    H243587   5.689   6.132  12.729  0.0419 -0.1946  2.7179
 7366TIP3   OH243588   2.904   0.036   1.219 -0.5375 -0.2044 -0.1694
 7366TIP3    H143589   2.814   0.054   1.191 -0.7665 -0.7942  0.1678
 7366TIP3    H243590   2.936  -0.028   1.156 -1.1065 -1.6536  0.9661
 7367TIP3   OH243591   3.189   3.294  14.209 -0.0461  0.3129 -0.1806
 7367TIP3    H143592   3.242   3.221  14.179  3.1662  3.3139 -2.6151
 7367TIP3    H243593   3.116   3.298  14.147 -1.8471 -2.2569  1.5971
 7368TIP3   OH243594   0.563   0.995   5.536  0.6339 -0.5351 -0.8078
 7368TIP3    H143595   0.607   0.928   5.485  3.6864  0.8730 -0.2597
 7368TIP3    H243596   0.515   0.947   5.604  2.8326 -2.1882 -0.3388
 7369TIP3   OH243597   0.473   0.399   0.741 -0.7340  0.0549 -0.0831
 7369TIP3    H143598   0.513   0.474   0.786 -0.9678  1.9308 -2.7393
 7369TIP3    H243599   0.412   0.363   0.805  0.1082  1.5032  1.6517
 7370TIP3   OH243600   1.850   2.614  12.249  0.2707 -0.1877  0.4036
 7370TIP3    H143601   1.775   2.621  12.189  0.0180 -1.0535  0.5998
 7370TIP3    H243602   1.914   2.562  12.200  0.1518 -0.7051  0.7954
 7371TIP3   OH243603   2.576   4.169  16.155 -0.7276 -0.2392  0.0106
 7371TIP3    H143604   2.506   4.171  16.220 -0.7705 -0.9030 -0.0085
 7371TIP3    H243605   2.625   4.250  16.170  0.0302 -0.9705  1.6966
 7372TIP3   OH243606   0.586   1.621  13.625  0.2770  0.3836  0.0760
 7372TIP3    H143607   0.555   1.547  13.573 -0.0367  0.9030 -0.4958
 7372TIP3    H243608   0.608   1.688  13.560  1.2338  0.5420  0.5494
 7373TIP3   OH243609   2.643   2.179  15.028  0.0967  0.3532 -0.2519
 7373TIP3    H143610   2.567   2.150  14.977  2.0171 -0.6418 -2.7630
 7373TIP3    H243611   2.652   2.272  15.006 -0.2303  0.4112 -0.1516
 7374TIP3   OH243612   6.567   0.603  13.855  0.3298  0.1209 -0.1964
 7374TIP3    H143613   6.557   0.691  13.892  0.4454 -0.5785  1.5748
 7374TIP3    H243614   6.550   0.544  13.928 -1.3329 -1.3953 -1.7072
 7375TIP3   OH243615   2.602   0.330   5.196 -0.0237  0.3968  0.3833
 7375TIP3    H143616   2.683   0.337   5.146  0.1269 -0.1709  0.5341
 7375TIP3    H243617   2.557   0.254   5.158  1.1045 -1.4450  2.4693
 7376TIP3   OH243618   0.796   3.494  15.793  0.5178  0.3611  0.0035
 7376TIP3    H143619   0.748   3.415  15.819 -1.0005  0.6575 -1.6802
 7376TIP3    H243620   0.733   3.544  15.741  2.1985  1.5351 -0.9928
 7377TIP3   OH243621   1.370   2.557   6.337  0.0961  0.3736 -0.2900
 7377TIP3    H143622   1.280   2.583   6.315  0.2092  1.8991  0.9357
 7377TIP3    H243623   1.363   2.521   6.426  0.8975  1.8839  0.4171
 7378TIP3   OH243624   4.433   6.267  15.426  0.1283  0.0209 -0.1771
 7378TIP3    H143625   4.410   6.243  15.337  1.0386  0.6148 -0.5828
 7378TIP3    H243626   4.478   6.350  15.418  0.5952 -0.1208  0.7927
 7379TIP3   OH243627   6.698   4.745  10.983  0.3208 -0.0781 -0.1741
 7379TIP3    H143628   6.625   4.699  11.025 -1.1201  0.7144 -1.6702
 7379TIP3    H243629   6.695   4.833  11.021 -0.0085  0.1879 -0.8176
 7380TIP3   OH243630   4.950   1.921  12.345  0.1121  0.2659 -0.3347
 7380TIP3    H143631   5.032   1.945  12.388  0.1945 -1.1905  0.3972
 7380TIP3    H243632   4.913   1.853  12.401  1.2712 -3.3775 -3.5488
 7381TIP3   OH243633   5.703   4.648   3.595  0.0425 -0.2732  0.5153
 7381TIP3    H143634   5.622   4.600   3.610 -0.7264  0.1889 -1.8385
 7381TIP3    H243635   5.772   4.582   3.600 -0.9444 -1.6366 -2.1059
 7382TIP3   OH243636   0.134   5.415  15.889 -0.1057  0.2020 -0.4164
 7382TIP3    H143637   0.070   5.447  15.826 -0.5024 -1.1504 -0.7366
 7382TIP3    H243638   0.219   5.427  15.845 -0.2679  0.5529 -0.6354
 7383TIP3   OH243639   1.934   5.661  14.890  0.2096 -0.1389 -0.1059
 7383TIP3    H143640   2.029   5.670  14.897 -0.0707  1.9824  3.2089
 7383TIP3    H243641   1.910   5.600  14.959 -0.7963 -2.0038 -1.9919
 7384TIP3   OH243642   1.208   5.649   4.290  0.1896  0.2350 -0.1816
 7384TIP3    H143643   1.135   5.608   4.336  1.1284 -2.4864 -0.9582
 7384TIP3    H243644   1.175   5.735   4.265 -1.8416  0.0842  1.6980
 7385TIP3   OH243645   3.145   6.449   2.816  0.4006 -0.3634 -0.6017
 7385TIP3    H143646   3.194   6.412   2.742 -2.0006 -2.4575 -1.3051
 7385TIP3    H243647   3.121   6.373   2.869  0.4944  0.9143  1.3812
 7386TIP3   OH243648   3.501   2.825   6.643  0.1030  0.0386 -0.0807
 7386TIP3    H143649   3.479   2.918   6.650 -1.6450 -0.4304  1.2971
 7386TIP3    H243650   3.523   2.813   6.550 -1.3536  1.4956 -0.6729
 7387TIP3   OH243651   3.250   1.815   3.460 -0.3019 -0.0583  0.3029
 7387TIP3    H143652   3.263   1.910   3.460 -0.7417  0.0387 -1.4093
 7387TIP3    H243653   3.172   1.802   3.513 -0.6484  0.6164 -0.0249
 7388TIP3   OH243654   1.473   3.073  11.899 -0.2098  0.4462  0.0062
 7388TIP3    H143655   1.559   3.112  11.884  0.6684 -0.4209  2.3355
 7388TIP3    H243656   1.490   3.001  11.960 -2.5767  0.1843  0.4408
 7389TIP3   OH243657   5.726   4.233   3.227  0.1685  0.7243  0.8021
 7389TIP3    H143658   5.730   4.292   3.303  0.8017  0.5382  0.9186
 7389TIP3    H243659   5.796   4.264   3.169  0.5592  0.0428  0.9012
 7390TIP3   OH243660   0.353   2.987   0.821 -0.0934 -0.8080  0.2498
 7390TIP3    H143661   0.349   3.028   0.734  1.1716 -0.7087  0.2160
 7390TIP3    H243662   0.436   3.019   0.858 -1.1990  0.1804  2.0136
 7391TIP3   OH243663   1.748   3.799   1.926  0.1620 -0.3753 -0.2570
 7391TIP3    H143664   1.767   3.887   1.959  1.3043 -0.3031 -1.0611
 7391TIP3    H243665   1.736   3.811   1.832 -0.8369 -0.9193 -0.2185
 7392TIP3   OH243666   4.136   1.068  12.032 -0.2195 -0.4538  0.5051
 7392TIP3    H143667   4.104   1.080  11.943  0.6007  1.7172  0.4421
 7392TIP3    H243668   4.058   1.078  12.087 -0.4100  0.2666  0.1201
 7393TIP3   OH243669   1.148   5.471   0.058 -0.6373  0.0181 -0.7524
 7393TIP3    H143670   1.223   5.414   0.041 -0.7936 -0.5095  0.2677
 7393TIP3    H243671   1.073   5.413   0.055 -0.5641 -0.5157  3.2898
 7394TIP3   OH243672   6.386   0.277  16.162 -0.5047 -0.2246  0.1658
 7394TIP3    H143673   6.479   0.258  16.164 -0.7557 -1.9082 -1.6860
 7394TIP3    H243674   6.345   0.201  16.205 -1.1108 -0.4872 -0.8381
 7395TIP3   OH243675   6.641   0.486  13.118 -0.0730 -0.4723 -0.5992
 7395TIP3    H143676   6.735   0.495  13.131  0.1752 -1.7498 -1.4075
 7395TIP3    H243677   6.605   0.568  13.152  1.2604 -0.2261  0.2955
 7396TIP3   OH243678   5.845   0.074   0.411 -0.5129 -0.3466  0.0214
 7396TIP3    H143679   5.904   0.048   0.340 -1.1523 -0.4778 -0.4756
 7396TIP3    H243680   5.772   0.117   0.367  0.0282  1.4285  0.7537
 7397TIP3   OH243681   3.134   1.395  14.195  0.3259 -0.0261  0.5740
 7397TIP3    H143682   3.075   1.334  14.151 -0.8398 -1.0020  3.2800
 7397TIP3    H243683   3.077   1.462  14.231  0.8426 -0.6997  2.7964
 7398TIP3   OH243684   5.989   3.483   3.551 -0.2787  0.3324 -0.3739
 7398TIP3    H143685   5.910   3.534   3.530  0.4593  1.2414 -1.0336
 7398TIP3    H243686   6.061   3.533   3.511  0.7438  0.0198  1.0017
 7399TIP3   OH243687   4.205   4.184  16.904  0.2854 -0.3953 -0.5413
 7399TIP3    H143688   4.208   4.237  16.984 -3.0126  1.2217 -1.3105
 7399TIP3    H243689   4.263   4.230  16.844  1.3945 -0.5909  0.3496
 7400TIP3   OH243690   1.074   5.435   2.291  0.3607 -0.2075  0.1835
 7400TIP3    H143691   1.033   5.352   2.315 -0.2292  0.3911  1.3572
 7400TIP3    H243692   1.096   5.475   2.375 -0.5885  1.4151 -0.2974
 7401TIP3   OH243693   5.024   6.266  14.643 -0.7429  0.5779  0.3433
 7401TIP3    H143694   5.014   6.333  14.711 -0.6229  1.2451 -0.2710
 7401TIP3    H243695   4.941   6.269  14.595 -1.1484 -0.4754  0.9611
 7402TIP3   OH243696   3.589   4.131   3.126  0.0550 -0.0370 -0.4838
 7402TIP3    H143697   3.642   4.117   3.205 -0.4385 -0.3485 -0.2100
 7402TIP3    H243698   3.517   4.187   3.156 -0.4054 -0.5666 -0.6051
 7403TIP3   OH243699   5.673   3.372   3.412 -0.2104 -0.0365  0.1366
 7403TIP3    H143700   5.736   3.417   3.468 -2.4428  0.8995  2.0286
 7403TIP3    H243701   5.591   3.373   3.461 -1.5904 -1.7854 -1.9294
 7404TIP3   OH243702   3.280   2.735  12.956 -0.1218  0.5088  0.0800
 7404TIP3    H143703   3.331   2.809  12.923 -1.5470  2.0173  1.1125
 7404TIP3    H243704   3.201   2.775  12.993 -1.6255 -1.6588 -0.6244
 7405TIP3   OH243705   4.127   5.205  13.962 -0.0159 -0.1293 -0.3262
 7405TIP3    H143706   4.172   5.141  14.017  0.8370  1.8766  1.4701
 7405TIP3    H243707   4.168   5.195  13.876  0.4836 -1.5683  0.0399
 7406TIP3   OH243708   0.872   3.116   1.696  0.1151  0.5485  0.1807
 7406TIP3    H143709   0.777   3.120   1.682  0.0821 -0.2519  0.1425
 7406TIP3    H243710   0.896   3.206   1.718 -0.6273  0.7946  0.0347
 7407TIP3   OH243711   6.330   0.422   2.299 -0.2418  0.1145  0.1616
 7407TIP3    H143712   6.342   0.392   2.208 -2.1404  1.2119 -0.5148
 7407TIP3    H243713   6.414   0.461   2.322 -0.3952  1.9940 -2.0369
 7408TIP3   OH243714   2.210   6.816  13.538 -0.2576 -0.4322 -0.3885
 7408TIP3    H143715   2.279   6.762  13.500  0.6857 -0.1420  0.8694
 7408TIP3    H243716   2.130   6.765  13.524  0.5341 -1.9539  0.3412
 7409TIP3   OH243717   3.470   0.085   1.524 -0.7457 -0.5049 -0.3063
 7409TIP3    H143718   3.482   0.063   1.617  0.0609 -1.3035 -0.5868
 7409TIP3    H243719   3.379   0.114   1.518 -1.4335 -2.3707  0.3834
 7410TIP3   OH243720   3.971   0.805  15.516 -0.2116  0.2824 -0.0650
 7410TIP3    H143721   4.035   0.774  15.581  1.3700  1.3640 -1.0409
 7410TIP3    H243722   4.003   0.770  15.433  1.5484  4.0485 -1.2130
 7411TIP3   OH243723   0.418   0.875   2.416 -0.4774  0.4904  0.0750
 7411TIP3    H143724   0.436   0.923   2.497  2.1484 -1.2938  0.6502
 7411TIP3    H243725   0.394   0.944   2.353 -1.4171  2.0293  2.0014
 7412TIP3   OH243726   4.758   5.450   4.619  0.1963 -0.3756  0.2423
 7412TIP3    H143727   4.843   5.490   4.602 -0.3087  0.0748 -1.3363
 7412TIP3    H243728   4.768   5.408   4.705  1.4696  1.1320  0.8786
 7413TIP3   OH243729   4.229   2.676  15.722 -0.0173  0.0597 -0.0285
 7413TIP3    H143730   4.239   2.685  15.628 -0.2620  2.2813  0.1079
 7413TIP3    H243731   4.214   2.583  15.736 -1.2781 -0.1317 -2.3071
 7414TIP3   OH243732   1.083   0.679   2.324  0.7057 -0.2836 -0.0686
 7414TIP3    H143733   1.044   0.677   2.236 -0.3916 -2.0302  0.4202
 7414TIP3    H243734   1.178   0.677   2.307  0.5377  0.3074 -1.2170
 7415TIP3   OH243735   5.597   4.103   5.163  0.9732 -0.1435  0.0691
 7415TIP3    H143736   5.653   4.026   5.152 -1.4869 -1.5958 -5.5090
 7415TIP3    H243737   5.510   4.075   5.134 -1.0835  3.8371  1.4960
 7416TIP3   OH243738   3.409   0.480  14.762 -0.5724 -0.2659 -0.1003
 7416TIP3    H143739   3.475   0.513  14.823 -0.7980  0.3249 -0.1720
 7416TIP3    H243740   3.344   0.550  14.757 -1.7030 -1.2217  0.7067
 7417TIP3   OH243741   2.049   0.008   1.214  0.9376 -0.2008  0.4710
 7417TIP3    H143742   2.094  -0.070   1.247  3.1835  0.6211 -0.4726
 7417TIP3    H243743   2.119   0.073   1.203 -0.4126  1.0005 -1.5444
 7418TIP3   OH243744   5.756   5.928  14.778 -0.9783  0.2533  0.5605
 7418TIP3    H143745   5.758   5.920  14.682 -0.3624  0.5590  0.5460
 7418TIP3    H243746   5.732   5.841  14.809  0.0466 -0.1807  0.1742
 7419TIP3   OH243747   1.764   3.626  12.425 -0.7867 -0.5617  0.6235
 7419TIP3    H143748   1.766   3.704  12.370  0.1111 -1.1092 -0.1417
 7419TIP3    H243749   1.731   3.557  12.367 -0.4752 -1.0042  0.9686
 7420TIP3   OH243750   5.083   0.566  13.733  0.1114  0.4037  0.3944
 7420TIP3    H143751   4.996   0.602  13.752 -1.5215 -3.2417  0.7461
 7420TIP3    H243752   5.076   0.532  13.644  2.1590  2.4274 -0.6088
 7421TIP3   OH243753   2.483   5.234   5.429 -0.2555 -0.5045 -0.2778
 7421TIP3    H143754   2.437   5.223   5.512 -0.0891 -1.0753 -0.2517
 7421TIP3    H243755   2.498   5.144   5.398 -1.7817 -0.2849 -1.7573
 7422TIP3   OH243756   1.749   0.072  13.145 -0.3909 -0.1378 -0.6668
 7422TIP3    H143757   1.690   0.005  13.110 -0.4640  0.1812 -1.1670
 7422TIP3    H243758   1.756   0.137  13.075  0.6221 -0.2159 -0.6576
 7423TIP3   OH243759   4.881   4.317  16.389 -0.5962  0.1992 -0.4572
 7423TIP3    H143760   4.861   4.227  16.363  0.6598 -0.7242  1.5768
 7423TIP3    H243761   4.811   4.341  16.450 -0.2311  0.1233 -0.0047
 7424TIP3   OH243762   2.911   5.681  14.044  0.0077  0.2189 -0.5110
 7424TIP3    H143763   2.822   5.694  14.010  0.1565  0.9679 -0.6295
 7424TIP3    H243764   2.898   5.634  14.127 -0.4337 -0.5379 -1.0053
 7425TIP3   OH243765   6.223   2.690  13.149  0.8209  0.3513 -0.3584
 7425TIP3    H143766   6.281   2.614  13.150  1.6148  0.9375  0.8440
 7425TIP3    H243767   6.203   2.705  13.056  3.2974  0.6426 -0.9011
 7426TIP3   OH243768   2.186   2.476   1.679 -0.0175 -0.4060  0.1769
 7426TIP3    H143769   2.115   2.473   1.743  0.3098  1.2573  0.6579
 7426TIP3    H243770   2.260   2.436   1.724 -0.1830 -0.5714  0.3037
 7427TIP3   OH243771   2.188   1.277  15.086 -0.3151 -0.1532  0.3961
 7427TIP3    H143772   2.117   1.248  15.144 -0.5709  0.8532  0.6080
 7427TIP3    H243773   2.261   1.218  15.105 -0.7351 -0.4882  0.9863
 7428TIP3   OH243774   4.725   6.492   4.392  0.1873 -0.2613 -0.7301
 7428TIP3    H143775   4.783   6.549   4.341  1.3202 -0.2121  0.5535
 7428TIP3    H243776   4.760   6.404   4.379  0.9325 -0.1683  0.4897
 7429TIP3   OH243777   4.074   6.493  14.579 -0.4125 -0.4911 -0.0587
 7429TIP3    H143778   4.053   6.407  14.616  0.5684 -0.4333  0.6570
 7429TIP3    H243779   4.050   6.486  14.486 -0.2485 -1.5605 -0.0270
 7430TIP3   OH243780   6.295   2.280  14.575  0.1025 -0.4497 -0.3952
 7430TIP3    H143781   6.320   2.334  14.501 -0.5011  0.4579  0.0368
 7430TIP3    H243782   6.289   2.192  14.540  1.5818 -0.3202 -1.0042
 7431TIP3   OH243783   3.675   0.224   6.266 -0.0253 -0.5115 -0.0775
 7431TIP3    H143784   3.686   0.174   6.346  1.6564  2.1316  1.4677
 7431TIP3    H243785   3.737   0.185   6.204 -0.4017 -1.7322  0.2859
 7432TIP3   OH243786   4.706   3.805  16.786 -0.1116 -0.4289  0.2238
 7432TIP3    H143787   4.746   3.887  16.758  0.8022 -0.1741  2.1096
 7432TIP3    H243788   4.620   3.805  16.745  0.1361  1.1443 -0.3583
 7433TIP3   OH243789   6.238   2.774   0.186  0.9433 -0.1105 -0.4601
 7433TIP3    H143790   6.294   2.843   0.149 -1.4896  1.2379 -1.9095
 7433TIP3    H243791   6.159   2.821   0.215 -0.7395 -2.2294 -1.3628
 7434TIP3   OH243792   5.504   6.017  16.655 -0.3008  0.0108 -0.0911
 7434TIP3    H143793   5.551   5.939  16.623  1.7493  0.5111  1.4926
 7434TIP3    H243794   5.445   5.983  16.722  0.2175 -0.2663  0.2355
 7435TIP3   OH243795   2.344   5.134   0.256  0.0077  0.1741  0.3007
 7435TIP3    H143796   2.340   5.175   0.169  1.2627 -0.4181 -0.0677
 7435TIP3    H243797   2.344   5.207   0.317  1.5921  0.7413 -0.3171
 7436TIP3   OH243798   0.858   4.224   4.023 -0.3969 -0.2910  0.0513
 7436TIP3    H143799   0.922   4.292   4.005 -1.3052  1.0946  1.7884
 7436TIP3    H243800   0.897   4.171   4.093  0.5096 -1.9412 -1.5985
 7437TIP3   OH243801   1.009   6.040  12.013  0.1212 -0.1466  0.3287
 7437TIP3    H143802   1.038   6.032  11.922  1.6267 -0.2511  0.7942
 7437TIP3    H243803   1.012   5.951  12.047  0.3359  0.0039  0.7027
 7438TIP3   OH243804   0.808   4.714  11.477 -0.0720 -0.0007  0.0434
 7438TIP3    H143805   0.750   4.778  11.516 -1.1415 -0.9421  0.0425
 7438TIP3    H243806   0.852   4.761  11.406 -2.0789  0.3121 -1.0518
 7439TIP3   OH243807   0.451   6.155   5.497 -0.6009  0.2453  0.1201
 7439TIP3    H143808   0.484   6.076   5.453 -0.4587 -0.9658  2.2425
 7439TIP3    H243809   0.496   6.227   5.454  2.2154 -1.1066  0.5809
 7440TIP3   OH243810   5.977   5.476  12.600  0.3391  0.2864  0.3371
 7440TIP3    H143811   6.066   5.499  12.627  0.1407  1.4041  0.0664
 7440TIP3    H243812   5.979   5.482  12.504  0.2241 -0.6479  0.2666
 7441TIP3   OH243813   6.123   4.280   1.328  0.2169  0.1900 -0.0952
 7441TIP3    H143814   6.141   4.206   1.385  0.8190  1.9448  2.1009
 7441TIP3    H243815   6.034   4.307   1.351  0.7448  1.3870  0.6377
 7442TIP3   OH243816   0.108   1.942  14.933  0.3763  0.8406 -0.5851
 7442TIP3    H143817   0.043   1.992  14.882  0.5384  2.0646  0.3447
 7442TIP3    H243818   0.169   2.009  14.965 -0.5140  0.3852  2.3801
 7443TIP3   OH243819   5.310   5.403  14.027  0.0004 -0.2231  0.4693
 7443TIP3    H143820   5.373   5.367  13.965 -1.2376  0.1971 -1.0905
 7443TIP3    H243821   5.261   5.468  13.977  0.0228  1.3473  2.3394
 7444TIP3   OH243822   4.829   6.419  11.149 -0.3529  0.6506 -0.0937
 7444TIP3    H143823   4.830   6.418  11.245 -0.8565  1.4507 -0.0598
 7444TIP3    H243824   4.786   6.337  11.125  0.2743  0.1831  0.3413
 7445TIP3   OH243825   3.203   0.910   2.019 -0.4963  0.8330 -0.0599
 7445TIP3    H143826   3.227   0.980   2.079  1.0558 -0.8975  1.4909
 7445TIP3    H243827   3.142   0.856   2.068 -1.7815  1.1280 -1.2815
 7446TIP3   OH243828   5.884   0.922   0.379 -0.3409  0.1255  0.2621
 7446TIP3    H143829   5.810   0.895   0.432  0.5977  0.4090  1.7912
 7446TIP3    H243830   5.915   0.842   0.337 -1.1693 -0.0838  0.0337
 7447TIP3   OH243831   5.447   3.470  14.819  0.6854 -0.4538 -0.1121
 7447TIP3    H143832   5.410   3.487  14.905  0.1017  0.4606 -0.5322
 7447TIP3    H243833   5.453   3.556  14.777 -1.6755 -1.1359 -2.0319
 7448TIP3   OH243834   4.725   1.733   5.312 -0.1770 -0.3446 -0.5910
 7448TIP3    H143835   4.776   1.785   5.374 -1.2054 -1.7194  1.5477
 7448TIP3    H243836   4.714   1.648   5.355 -1.2903 -1.2543 -2.5155
 7449TIP3   OH243837   0.100   0.461   2.190 -0.1050 -0.2952  0.7349
 7449TIP3    H143838   0.092   0.405   2.267 -0.2666  0.5698  1.3711
 7449TIP3    H243839   0.018   0.510   2.187  0.2866  0.3709  0.5827
 7450TIP3   OH243840   2.696   6.774  12.639  0.1986  0.2056  0.1593
 7450TIP3    H143841   2.612   6.754  12.682  0.4209  0.1438  0.5710
 7450TIP3    H243842   2.679   6.854  12.589 -0.2007  0.0012 -0.0329
 7451TIP3   OH243843   5.277   3.845   0.671  0.8134  0.0273  0.1801
 7451TIP3    H143844   5.281   3.789   0.593  1.2829  0.8832 -0.4375
 7451TIP3    H243845   5.185   3.843   0.697  0.4676  0.4022 -0.9269
 7452TIP3   OH243846   3.747   6.000  13.406 -0.2376  0.7262 -0.4454
 7452TIP3    H143847   3.729   5.908  13.420 -1.0365  0.5668 -2.2064
 7452TIP3    H243848   3.841   6.009  13.417 -0.3139 -0.0252  0.9926
 7453TIP3   OH243849   0.432   4.808  13.962 -0.1305 -0.2849 -0.0531
 7453TIP3    H143850   0.496   4.743  13.933 -0.0159 -0.5963  0.8687
 7453TIP3    H243851   0.350   4.780  13.921 -0.2996 -1.6106  1.0895
 7454TIP3   OH243852   6.327   6.347   0.538  0.4323 -0.1958  0.2619
 7454TIP3    H143853   6.412   6.386   0.555  0.3261 -0.7297  2.1711
 7454TIP3    H243854   6.265   6.400   0.587 -0.1440 -0.7431  0.1386
 7455TIP3   OH243855   6.318   0.377   5.538  0.4932  0.4261 -0.5454
 7455TIP3    H143856   6.240   0.323   5.547 -1.5686  3.0666 -1.0969
 7455TIP3    H243857   6.344   0.368   5.447 -0.1055  0.6933 -0.7446
 7456TIP3   OH243858   0.007   5.494  16.467 -0.1870  0.4747  0.0971
 7456TIP3    H143859  -0.053   5.523  16.536  0.1308  1.1462  0.1025
 7456TIP3    H243860   0.037   5.575  16.426 -0.4977  0.0831 -0.9444
 7457TIP3   OH243861   4.387   2.989   2.861  0.0284 -0.0649 -0.7725
 7457TIP3    H143862   4.313   2.929   2.872  0.2404  0.0037  1.4565
 7457TIP3    H243863   4.350   3.064   2.816 -2.0880  1.2108  2.7031
 7458TIP3   OH243864   3.789   0.283  14.406  0.0281  0.1150  0.4696
 7458TIP3    H143865   3.708   0.321  14.440  1.5590  2.5383  1.6459
 7458TIP3    H243866   3.834   0.355  14.363  0.8844 -1.5587 -1.6589
 7459TIP3   OH243867   0.143   0.403  15.238 -0.0162  0.4748  0.7434
 7459TIP3    H143868   0.185   0.489  15.230 -0.5933  0.6751 -0.2719
 7459TIP3    H243869   0.200   0.343  15.190 -0.8496  0.7523 -0.6613
 7460TIP3   OH243870   0.687   5.869   3.102  0.2836  0.1172 -0.0569
 7460TIP3    H143871   0.646   5.956   3.097  2.8013  1.3385 -1.7022
 7460TIP3    H243872   0.697   5.842   3.011  1.8720 -0.6821  0.3150
 7461TIP3   OH243873   5.592   0.504  14.313 -0.5047  0.5363 -0.2029
 7461TIP3    H143874   5.533   0.447  14.263 -0.6295  1.1167 -0.7347
 7461TIP3    H243875   5.664   0.523  14.253 -0.5639  1.0959 -0.1053
 7462TIP3   OH243876   1.446   6.576   6.818  0.2689 -0.2088 -0.0289
 7462TIP3    H143877   1.376   6.589   6.755  1.4851  0.8470 -1.2376
 7462TIP3    H243878   1.521   6.547   6.766  1.1261  0.0715  1.0004
 7463TIP3   OH243879   3.569   3.172  14.454 -0.0996  0.1166  0.0981
 7463TIP3    H143880   3.616   3.150  14.374  0.2867  0.0663  0.3388
 7463TIP3    H243881   3.512   3.245  14.428  0.0979  0.1712 -0.1965
 7464TIP3   OH243882   1.758   6.444   1.255  0.0129 -0.3160  0.1443
 7464TIP3    H143883   1.812   6.512   1.296 -0.5921  0.4549 -0.3125
 7464TIP3    H243884   1.732   6.482   1.171  1.1602 -1.8297 -0.9588
 7465TIP3   OH243885   6.589   3.341   4.735 -0.4895 -0.4364  0.3022
 7465TIP3    H143886   6.536   3.401   4.787 -1.8753 -1.3930  0.0694
 7465TIP3    H243887   6.626   3.280   4.799 -1.9891 -1.4585  0.2602
 7466TIP3   OH243888   0.228   2.393  13.042 -0.1591 -0.2396  0.3089
 7466TIP3    H143889   0.253   2.459  12.977  3.6470 -0.0042  1.7778
 7466TIP3    H243890   0.213   2.443  13.122  0.3389 -0.9675  0.8613
 7467TIP3   OH243891   0.021   5.511  14.438 -0.0004 -0.0835 -0.3730
 7467TIP3    H143892   0.041   5.599  14.407  0.9629 -0.8633 -2.0735
 7467TIP3    H243893  -0.075   5.505  14.432 -0.0131  0.5892 -0.9906
 7468TIP3   OH243894   0.750   1.512   1.164  0.6055 -0.0830  0.3168
 7468TIP3    H143895   0.778   1.458   1.238 -1.4833 -0.7154  0.6869
 7468TIP3    H243896   0.718   1.449   1.099  0.3100  0.5948 -0.2019
 7469TIP3   OH243897   4.170   5.451   4.344  0.5866 -0.4673 -0.1362
 7469TIP3    H143898   4.117   5.419   4.271 -0.8623  0.9002  0.2736
 7469TIP3    H243899   4.257   5.467   4.306  0.5988 -2.2271 -0.9351
 7470TIP3   OH243900   0.321   4.631  16.345 -0.5377 -0.5341 -0.2379
 7470TIP3    H143901   0.246   4.572  16.343 -1.3022  0.4025 -0.0267
 7470TIP3    H243902   0.323   4.669  16.257  0.3155 -1.3102 -0.5629
 7471TIP3   OH243903   5.916   4.923   1.371 -0.1942 -0.2718  0.1193
 7471TIP3    H143904   5.831   4.968   1.372  0.6838  1.4832  0.9074
 7471TIP3    H243905   5.897   4.835   1.339 -2.0759  0.5251 -1.0788
 7472TIP3   OH243906   5.542   5.162  16.591 -0.9985 -0.2027  0.3490
 7472TIP3    H143907   5.607   5.201  16.533  0.7118  0.0623  2.3367
 7472TIP3    H243908   5.490   5.237  16.623 -1.8198 -0.3283 -0.6461
 7473TIP3   OH243909   5.566   6.456  13.970  0.0799  0.2168  0.0726
 7473TIP3    H143910   5.619   6.384  13.937  1.0020  0.9770 -0.1703
 7473TIP3    H243911   5.544   6.430  14.060  0.7290 -0.1921  0.1219
 7474TIP3   OH243912   3.258   2.364  16.597 -0.4111  0.0387  0.3851
 7474TIP3    H143913   3.220   2.431  16.539  0.1472  0.3407  0.3614
 7474TIP3    H243914   3.248   2.282  16.548  1.5530  0.4993 -0.9203
 7475TIP3   OH243915   5.993   1.745   1.952  0.5463  0.1433  0.4052
 7475TIP3    H143916   5.992   1.655   1.920 -0.0726  0.5106 -0.6841
 7475TIP3    H243917   6.039   1.741   2.036 -1.2944 -1.5298  1.4143
 7476TIP3   OH243918   3.254   4.149  15.016 -0.3090  0.4168 -0.2043
 7476TIP3    H143919   3.197   4.132  15.091 -0.5152 -0.0116 -0.4585
 7476TIP3    H243920   3.331   4.193  15.054 -0.2051 -0.2024  0.3257
 7477TIP3   OH243921   0.008   5.794  14.387 -0.6417 -0.0075 -0.5866
 7477TIP3    H143922   0.008   5.826  14.297  3.5017  1.1250 -0.3801
 7477TIP3    H243923  -0.039   5.860  14.436 -1.1696  0.4043 -1.6124
 7478TIP3   OH243924   3.263   6.563   5.520  0.4299 -0.3487 -0.2175
 7478TIP3    H143925   3.327   6.602   5.461 -0.4941  0.5005 -0.6907
 7478TIP3    H243926   3.269   6.618   5.599 -1.0390  0.9788 -0.9710
 7479TIP3   OH243927   5.603   2.611  14.742 -0.8391  0.0419  0.0593
 7479TIP3    H143928   5.611   2.516  14.746 -2.3611 -0.1305 -0.3593
 7479TIP3    H243929   5.553   2.634  14.820  1.3362  0.7829  1.3309
 7480TIP3   OH243930   3.941   3.540  12.984  0.0253  0.0705 -0.2372
 7480TIP3    H143931   3.985   3.513  12.903 -0.6091  0.6660 -0.7904
 7480TIP3    H243932   3.881   3.468  13.003  1.7218 -1.1059  0.9393
 7481TIP3   OH243933   5.233   3.052  10.899  0.0089  0.3404  0.0451
 7481TIP3    H143934   5.216   3.038  10.992 -0.4528 -1.2766 -0.2568
 7481TIP3    H243935   5.309   3.111  10.897  2.6563 -2.7158  1.5343
 7482TIP3   OH243936   3.073   2.839   3.322  0.6782  0.7915 -0.5603
 7482TIP3    H143937   3.007   2.870   3.383 -1.4536 -1.9306 -1.3187
 7482TIP3    H243938   3.053   2.884   3.240  1.3327  1.7831 -0.1938
 7483TIP3   OH243939   1.565   1.645   1.729  0.1770 -0.0703  0.2460
 7483TIP3    H143940   1.504   1.666   1.658 -0.8111 -1.5173  0.6075
 7483TIP3    H243941   1.509   1.631   1.806  0.8207 -2.2512  0.3975
 7484TIP3   OH243942   2.654   5.447  13.945  0.1268  0.5224  0.1323
 7484TIP3    H143943   2.738   5.456  13.901  0.5374  1.6788  1.1081
 7484TIP3    H243944   2.591   5.435  13.873  1.1950 -1.3110 -0.5680
 7485TIP3   OH243945   2.113   5.656   1.238  0.3326 -0.3805 -0.7605
 7485TIP3    H143946   2.167   5.636   1.315  1.8218  2.1553 -1.0481
 7485TIP3    H243947   2.044   5.713   1.272  1.1307  0.9395 -1.3105
 7486TIP3   OH243948   5.979   1.125  11.469  0.0104 -0.4545 -1.0355
 7486TIP3    H143949   5.964   1.219  11.456  0.3234 -0.4924 -1.7423
 7486TIP3    H243950   5.935   1.105  11.551  0.3017  0.3961 -0.6626
 7487TIP3   OH243951   3.195   3.252   0.579  0.2709  0.3179 -0.9633
 7487TIP3    H143952   3.119   3.309   0.570 -0.2732 -0.5112 -1.9572
 7487TIP3    H243953   3.270   3.309   0.561 -0.3235  0.5327 -3.0403
 7488TIP3   OH243954   0.377   2.288  13.563 -0.2881 -0.1195  0.4661
 7488TIP3    H143955   0.399   2.368  13.612 -1.3086 -0.1430  0.9872
 7488TIP3    H243956   0.343   2.228  13.629  1.1608 -1.2921  0.2029
 7489TIP3   OH243957   1.667   2.182  11.870 -0.8133  0.1617 -0.0740
 7489TIP3    H143958   1.743   2.185  11.928 -0.8001 -0.9530 -0.0247
 7489TIP3    H243959   1.692   2.237  11.795  0.7637 -1.5577 -0.8899
 7490TIP3   OH243960   0.895   6.203   2.957 -0.5218  0.1001 -0.0546
 7490TIP3    H143961   0.987   6.187   2.938 -0.2866  0.6203  0.6211
 7490TIP3    H243962   0.880   6.161   3.042 -1.2000 -0.9569 -0.6708
 7491TIP3   OH243963   5.295   4.251   0.023 -0.3307  0.4027  0.0865
 7491TIP3    H143964   5.227   4.223  -0.038 -1.8045  2.1294  0.8425
 7491TIP3    H243965   5.349   4.311  -0.028 -2.0771  2.5365  0.6006
 7492TIP3   OH243966   4.719   6.192  12.295 -0.5239 -0.4020  0.4383
 7492TIP3    H143967   4.727   6.164  12.203 -1.8268  0.5301  0.0128
 7492TIP3    H243968   4.725   6.288  12.291 -0.3798 -0.3643  1.3587
 7493TIP3   OH243969   2.403   3.042  12.414  0.1815  0.3063 -0.4788
 7493TIP3    H143970   2.355   3.035  12.331  0.4936 -0.6130 -0.5942
 7493TIP3    H243971   2.482   3.090  12.391  0.0558  0.4515 -0.6160
 7494TIP3   OH243972   4.636   1.438  14.815  0.5762 -0.2743 -0.1088
 7494TIP3    H143973   4.583   1.433  14.894  0.5009 -1.8623 -0.2293
 7494TIP3    H243974   4.655   1.347  14.792  1.8941  0.1932 -1.0525
 7495TIP3   OH243975   4.919   6.436  12.444  0.2975 -0.3328 -0.5393
 7495TIP3    H143976   4.956   6.445  12.532  0.4280  0.7778 -0.6912
 7495TIP3    H243977   4.831   6.471  12.450 -0.0353 -1.1284 -0.6444
 7496TIP3   OH243978   3.079   1.664   5.853 -0.2116 -0.4860 -0.5520
 7496TIP3    H143979   3.102   1.729   5.918  0.3466 -0.4143 -0.8182
 7496TIP3    H243980   3.161   1.643   5.809 -0.6476 -0.1809 -1.5488
 7497TIP3   OH243981   0.939   3.741  15.814  0.0467 -0.0757  0.7306
 7497TIP3    H143982   0.984   3.719  15.732  0.2694 -0.4908  0.9598
 7497TIP3    H243983   0.967   3.672  15.875 -0.0116  0.3091  1.1920
 7498TIP3   OH243984   2.276   6.555  13.789  0.2104  0.4517 -0.1849
 7498TIP3    H143985   2.368   6.561  13.814  0.1029 -1.8415  1.0497
 7498TIP3    H243986   2.236   6.502  13.858 -1.5814 -0.4161 -1.7910
 7499TIP3   OH243987   4.067   6.724  14.725  0.3616  0.0578 -0.1175
 7499TIP3    H143988   4.104   6.683  14.803 -0.7427 -0.2116  0.2938
 7499TIP3    H243989   4.053   6.651  14.664 -0.8109 -0.0743  0.2870
 7500TIP3   OH243990   3.784   1.305  16.641  0.6470  0.0457 -0.4748
 7500TIP3    H143991   3.875   1.289  16.664  0.9118  1.3523 -0.5632
 7500TIP3    H243992   3.774   1.264  16.555  0.9478 -0.7289 -0.1456
 7501TIP3   OH243993   0.390   1.931   0.397 -0.2322  0.0301 -0.3501
 7501TIP3    H143994   0.476   1.893   0.414 -0.2850  0.8355  2.0158
 7501TIP3    H243995   0.343   1.862   0.349  1.2391 -0.9877 -0.4055
 7502TIP3   OH243996   5.222   6.690   4.871  0.5477 -0.3520 -0.8230
 7502TIP3    H143997   5.297   6.631   4.862  0.3100 -0.9946  0.9513
 7502TIP3    H243998   5.204   6.691   4.965 -0.8691  0.8126 -1.0743
 7503TIP3   OH243999   2.144   2.892   2.197  0.0772 -0.6389 -0.0536
 7503TIP3    H144000   2.111   2.855   2.278  0.4221 -1.0232 -0.0842
 7503TIP3    H244001   2.206   2.827   2.164  0.1405 -0.3666 -0.4871
 7504TIP3   OH244002   3.149   5.687   5.363 -0.0917 -0.1282  0.0521
 7504TIP3    H144003   3.163   5.670   5.270  0.4915 -1.5357  0.3592
 7504TIP3    H244004   3.122   5.778   5.368  1.6003  0.5000 -1.3490
 7505TIP3   OH244005   5.462   6.847   5.465  0.3078  0.1556 -0.6148
 7505TIP3    H144006   5.393   6.784   5.443 -0.9840  1.5710 -0.7876
 7505TIP3    H244007   5.431   6.930   5.428  1.6089  1.0583  0.2418
 7506TIP3   OH244008   1.331   6.640  15.920 -0.1869 -0.6235  0.4825
 7506TIP3    H144009   1.261   6.696  15.884 -0.5927 -1.1479  0.4450
 7506TIP3    H244010   1.294   6.607  16.002  0.6859  0.4710  1.3441
 7507TIP3   OH244011   2.456   1.567   0.003 -0.0227 -0.1166 -0.4048
 7507TIP3    H144012   2.365   1.553  -0.023 -0.0707 -3.3142  0.9639
 7507TIP3    H244013   2.457   1.652   0.047 -2.3519 -0.0652 -0.3562
 7508TIP3   OH244014   2.803   4.888  10.992 -0.2626 -0.6996 -0.1170
 7508TIP3    H144015   2.806   4.797  10.962  0.8149 -0.9721  0.7650
 7508TIP3    H244016   2.712   4.902  11.019 -0.4277 -1.5209 -0.2357
 7509TIP3   OH244017   1.055   4.500   4.908  0.0983 -0.7168  0.1220
 7509TIP3    H144018   1.119   4.570   4.917 -0.7213  0.1759 -0.7835
 7509TIP3    H244019   1.062   4.473   4.816 -1.4068 -0.0172 -0.2135
 7510TIP3   OH244020   3.975   3.005   5.056  0.2052 -0.2339  0.3617
 7510TIP3    H144021   3.897   2.962   5.091  0.8157  0.3905  2.6592
 7510TIP3    H244022   4.048   2.954   5.090  0.8474  0.3439 -0.1180
 7511TIP3   OH244023   0.350   3.081   1.674  0.2565  0.4183 -0.6541
 7511TIP3    H144024   0.318   3.030   1.748 -0.5067  1.6578 -0.1142
 7511TIP3    H244025   0.343   3.021   1.599  0.3284 -0.5886  0.1219
 7512TIP3   OH244026   0.935   4.873  15.111  0.0094  0.3833 -0.5883
 7512TIP3    H144027   0.849   4.916  15.108  0.3317  0.9949 -1.5507
 7512TIP3    H244028   0.995   4.942  15.139 -0.2245 -0.8331  3.5168
 7513TIP3   OH244029   2.544   3.356   4.299  0.3281 -0.0191 -0.1035
 7513TIP3    H144030   2.612   3.420   4.274  0.9306 -1.3938 -2.2857
 7513TIP3    H244031   2.467   3.410   4.315  0.9801  1.3508 -1.2330
 7514TIP3   OH244032   0.236   5.232  15.002 -0.5324 -0.1511  0.5222
 7514TIP3    H144033   0.229   5.275  14.917 -0.0175 -1.4479 -0.1868
 7514TIP3    H244034   0.214   5.141  14.986  0.0532 -0.5200  1.6904
 7515TIP3   OH244035   0.069   3.904   1.625  0.5558  0.0260  0.1314
 7515TIP3    H144036   0.153   3.875   1.588  0.8744  0.0136  0.8554
 7515TIP3    H244037   0.048   3.838   1.691  0.7069  0.8045  0.9772
 7516TIP3   OH244038   2.955   3.597  11.445 -0.0124  0.0032 -0.3159
 7516TIP3    H144039   2.995   3.562  11.524 -0.8598  1.9931  1.0823
 7516TIP3    H244040   3.029   3.626  11.391  0.5584 -0.8749 -0.0237
 7517TIP3   OH244041   6.049   2.822   6.059 -0.1662  0.5977 -0.1433
 7517TIP3    H144042   6.119   2.757   6.054  1.5022  2.3285 -0.3339
 7517TIP3    H244043   6.001   2.813   5.977  0.0246 -0.3785 -0.1579
 7518TIP3   OH244044   1.571   4.474  15.872 -0.2889 -0.0306 -0.0857
 7518TIP3    H144045   1.657   4.432  15.874 -0.7657 -1.0685  2.3083
 7518TIP3    H244046   1.562   4.517  15.957 -2.3404 -0.4505 -0.0225
 7519TIP3   OH244047   0.386   6.342   3.967 -0.5261  0.1933 -0.3860
 7519TIP3    H144048   0.416   6.314   4.053  0.1732  2.6437  0.2273
 7519TIP3    H244049   0.298   6.304   3.959 -0.6400 -0.0137  1.4391
 7520TIP3   OH244050   2.244   2.595   3.317 -0.2143  0.6044  0.9877
 7520TIP3    H144051   2.152   2.592   3.291 -0.0600 -0.6069  0.5088
 7520TIP3    H244052   2.289   2.632   3.241  0.1274 -2.1795 -0.3320
 7521TIP3   OH244053   3.698   0.115  11.704 -0.2145 -0.0121  0.6889
 7521TIP3    H144054   3.659   0.045  11.755 -2.4308  0.7888  0.2042
 7521TIP3    H244055   3.752   0.070  11.638 -1.6169 -1.2866  0.3625
 7522TIP3   OH244056   2.974   6.389   2.191 -0.7656  0.3728  0.4199
 7522TIP3    H144057   3.063   6.421   2.206 -0.4163 -1.2646  2.1685
 7522TIP3    H244058   2.985   6.318   2.128 -0.7036 -0.3265  1.2010
 7523TIP3   OH244059   1.576   0.210   4.153 -0.3782 -0.0535  0.1383
 7523TIP3    H144060   1.577   0.185   4.246  2.2404  0.2374  0.2512
 7523TIP3    H244061   1.657   0.258   4.140 -2.4378  3.3287 -1.4724
 7524TIP3   OH244062   5.048   1.322   3.473 -0.0108  0.3697 -0.0723
 7524TIP3    H144063   5.122   1.265   3.450 -0.4557 -0.5571  0.7483
 7524TIP3    H244064   5.089   1.403   3.502  0.8424 -0.8784  2.5354
 7525TIP3   OH244065   5.553   6.409  12.253 -0.0141  0.2451  0.5456
 7525TIP3    H144066   5.545   6.500  12.282 -2.2458  0.4493 -0.4645
 7525TIP3    H244067   5.496   6.360  12.313  0.0676 -0.2576  0.2194
 7526TIP3   OH244068   5.652   5.998   5.431 -0.3588  0.2609  0.3029
 7526TIP3    H144069   5.692   5.912   5.419  1.1186  0.6018  2.4034
 7526TIP3    H244070   5.629   6.002   5.523  0.5429  2.5046  0.4948
 7527TIP3   OH244071   6.798   6.334   0.525  0.5080 -0.4691  0.1259
 7527TIP3    H144072   6.855   6.257   0.529  0.4188 -0.6314 -1.3796
 7527TIP3    H244073   6.754   6.335   0.610  1.5020 -1.3066  0.6718
 7528TIP3   OH244074   0.307   1.542  13.334  0.4819  0.0363 -0.6373
 7528TIP3    H144075   0.329   1.635  13.335  1.0042 -0.0572 -1.7872
 7528TIP3    H244076   0.235   1.535  13.272 -0.7704 -0.1068  0.7626
 7529TIP3   OH244077   6.492   0.444   3.293  0.1328 -0.0194  0.0953
 7529TIP3    H144078   6.492   0.362   3.244  3.4733  0.2644 -0.6167
 7529TIP3    H244079   6.497   0.417   3.385  3.4450 -0.8005 -0.1856
 7530TIP3   OH244080   3.119   0.756   4.770 -0.1515 -0.3750  0.1593
 7530TIP3    H144081   3.155   0.668   4.764 -1.6197 -1.0742  0.9256
 7530TIP3    H244082   3.109   0.785   4.680 -1.4291 -1.7858 -0.1901
 7531TIP3   OH244083   3.796   2.783  15.628 -0.3287  0.3474 -0.3414
 7531TIP3    H144084   3.721   2.744  15.584  0.5271 -2.1486  0.2578
 7531TIP3    H244085   3.839   2.710  15.672  2.2175  1.7550 -0.2988
 7532TIP3   OH244086   4.659   6.594   5.303 -0.5412  0.3076 -0.4487
 7532TIP3    H144087   4.601   6.548   5.242  1.1014  0.1512 -1.9646
 7532TIP3    H244088   4.727   6.531   5.325 -0.0023  1.0191 -0.0345
 7533TIP3   OH244089   0.227   1.805  15.327  0.3268 -0.4841 -0.5591
 7533TIP3    H144090   0.260   1.809  15.417  1.0767  0.7779 -0.8670
 7533TIP3    H244091   0.298   1.841  15.274 -0.3198 -0.7082 -1.6003
 7534TIP3   OH244092   3.001   4.156   0.084 -0.3398 -0.3858 -0.3829
 7534TIP3    H144093   3.000   4.228   0.148 -0.8092 -0.1326 -0.6711
 7534TIP3    H244094   3.087   4.116   0.095 -0.3232 -0.1910  0.2420
 7535TIP3   OH244095   6.502   6.735   0.347  0.2585 -0.4633  0.0656
 7535TIP3    H144096   6.540   6.796   0.284  2.7796  1.1455  2.8785
 7535TIP3    H244097   6.568   6.667   0.357 -0.7242 -1.4541 -0.0002
 7536TIP3   OH244098   2.232   6.067  15.254  0.3948  0.4033  0.0309
 7536TIP3    H144099   2.256   6.113  15.173 -0.4321 -0.1284 -0.5270
 7536TIP3    H244100   2.255   6.129  15.324 -0.2594  1.4829 -0.6773
 7537TIP3   OH244101   1.860   3.694  14.817 -0.0342  0.0969 -0.0224
 7537TIP3    H144102   1.766   3.691  14.839  0.3436 -0.5731  1.6957
 7537TIP3    H244103   1.903   3.655  14.893  1.5990 -0.3582 -1.1291
 7538TIP3   OH244104   5.815   2.052  13.652 -0.3577 -0.1652  0.2665
 7538TIP3    H144105   5.837   2.144  13.639 -0.6013  0.0894  1.4552
 7538TIP3    H244106   5.885   2.003  13.608 -0.4434  0.5728 -0.7235
 7539TIP3   OH244107   4.882   0.316   3.634 -0.3340 -0.4787 -0.2310
 7539TIP3    H144108   4.866   0.287   3.723  0.2113  0.3065  0.1390
 7539TIP3    H244109   4.806   0.370   3.611  0.6785  1.4791  0.7399
 7540TIP3   OH244110   1.562   6.548   1.460 -0.3316 -0.3684  0.0206
 7540TIP3    H144111   1.571   6.643   1.459  0.2917 -0.4106  0.8199
 7540TIP3    H244112   1.503   6.528   1.387 -1.1173  0.6904  0.3504
 7541TIP3   OH244113   4.436   4.819  13.948 -0.2176 -0.5924  0.4390
 7541TIP3    H144114   4.383   4.771  14.012 -1.7204  0.3985 -0.0253
 7541TIP3    H244115   4.385   4.815  13.867  0.5195  0.2277 -0.0746
 7542TIP3   OH244116   5.711   6.605   1.027 -0.3118 -0.5453  0.3383
 7542TIP3    H144117   5.707   6.545   0.952 -2.9644  1.0295 -0.9681
 7542TIP3    H244118   5.650   6.568   1.091 -2.2819  0.8207 -0.6451
 7543TIP3   OH244119   1.551   2.221  11.028  0.5321  0.8929  0.1333
 7543TIP3    H144120   1.462   2.210  10.993  1.1526  0.1244 -1.2609
 7543TIP3    H244121   1.609   2.195  10.957  1.8685 -0.6790  1.6879
 7544TIP3   OH244122   1.671   2.004   2.352  0.3358 -0.6474  0.2779
 7544TIP3    H144123   1.623   2.060   2.414 -0.9275  1.3402 -2.2691
 7544TIP3    H244124   1.603   1.949   2.313  0.5760  0.1397 -1.3079
 7545TIP3   OH244125   2.269   0.290  12.940 -0.1928  0.1817 -0.3250
 7545TIP3    H144126   2.362   0.312  12.945 -0.6423  2.1558  0.4013
 7545TIP3    H244127   2.256   0.224  13.008  0.7076 -0.2469 -0.5610
 7546TIP3   OH244128   3.350   2.042  10.506 -0.2252 -0.1586  0.4302
 7546TIP3    H144129   3.334   2.063  10.598  2.3147  0.6964  0.7684
 7546TIP3    H244130   3.330   2.122  10.459  2.1570  0.7022  0.7743
 7547TIP3   OH244131   0.577   6.767   0.859  0.5831  0.1889  0.4227
 7547TIP3    H144132   0.603   6.854   0.831  0.2379  0.9244  2.2353
 7547TIP3    H244133   0.635   6.748   0.933  0.4277 -0.9869  0.2583
 7548TIP3   OH244134   4.007   0.949  11.410  0.4369  0.1850 -0.5135
 7548TIP3    H144135   3.968   0.888  11.347  1.2417 -1.6347  0.6624
 7548TIP3    H244136   3.953   0.941  11.488 -0.8829  2.8295 -1.0385
 7549TIP3   OH244137   5.120   0.993   5.205 -0.5844  0.5556 -0.2983
 7549TIP3    H144138   5.098   0.912   5.252 -0.0801  0.4533 -0.2364
 7549TIP3    H244139   5.202   1.022   5.245  0.9469 -0.5986 -2.4314
 7550TIP3   OH244140   3.269   1.040   1.782 -0.6771 -0.2939 -0.4856
 7550TIP3    H144141   3.261   0.983   1.858 -0.6310  0.6895  0.2734
 7550TIP3    H244142   3.265   0.980   1.707  0.6174 -1.4235  0.3054
 7551TIP3   OH244143   0.547   2.220  10.594 -0.3355  0.0169  0.0225
 7551TIP3    H144144   0.570   2.288  10.657  0.4183  0.5339 -0.7836
 7551TIP3    H244145   0.603   2.146  10.618 -0.6898 -0.1085  0.4941
 7552TIP3   OH244146   6.830   5.516  15.676  0.5766  0.0554 -0.1674
 7552TIP3    H144147   6.737   5.493  15.683  0.1028  1.7610 -0.4147
 7552TIP3    H244148   6.844   5.532  15.583  1.1299 -0.2210 -0.1325
 7553TIP3   OH244149   5.131   3.990   5.015 -0.3188 -0.1369 -0.0299
 7553TIP3    H144150   5.091   3.986   4.928  1.8614 -0.7439 -1.0779
 7553TIP3    H244151   5.116   4.080   5.045  1.7182  1.1636 -2.5358
 7554TIP3   OH244152   0.224   0.690  14.708 -0.2042 -1.0209 -0.1290
 7554TIP3    H144153   0.156   0.660  14.770 -0.5830 -0.6427 -0.3553
 7554TIP3    H244154   0.178   0.751  14.650  0.3451 -0.7194 -0.2528
 7555TIP3   OH244155   5.525   3.998   3.086 -0.2960 -0.0824  0.4947
 7555TIP3    H144156   5.615   3.995   3.054 -0.4565  0.1658  0.0041
 7555TIP3    H244157   5.493   3.908   3.076 -0.4304  0.0466 -0.3199
 7556TIP3   OH244158   1.801   6.333  12.228  0.1248 -0.1474 -0.3261
 7556TIP3    H144159   1.721   6.370  12.191 -0.0705 -0.4046 -0.1688
 7556TIP3    H244160   1.774   6.249  12.265  0.3397  0.0390  0.2775
 7557TIP3   OH244161   5.012   3.428  16.136 -0.6219  0.5722 -0.2399
 7557TIP3    H144162   4.996   3.458  16.046  0.1940 -0.4717 -0.7426
 7557TIP3    H244163   5.105   3.447  16.151 -0.6220  0.2282  0.1932
 7558TIP3   OH244164   3.189   6.641   1.367 -0.2487 -0.6508 -0.3785
 7558TIP3    H144165   3.182   6.574   1.299 -3.4675 -1.4962  0.6160
 7558TIP3    H244166   3.231   6.596   1.440  1.2858 -0.3493 -1.0417
 7559TIP3   OH244167   4.693   2.595  10.637 -0.0569 -0.0414  0.0457
 7559TIP3    H144168   4.736   2.525  10.686  0.0534 -1.4936 -1.9880
 7559TIP3    H244169   4.674   2.662  10.702  0.3337 -1.7194  1.9858
 7560TIP3   OH244170   2.657   6.321   2.153 -0.3235  0.5295  0.0967
 7560TIP3    H144171   2.751   6.331   2.172 -0.1657  0.0544 -0.4003
 7560TIP3    H244172   2.628   6.408   2.128  0.4858  0.2919 -1.8653
 7561TIP3   OH244173   0.241   3.536   3.680  0.4609  0.1377  0.2585
 7561TIP3    H144174   0.247   3.522   3.775 -0.1176  0.7080  0.3901
 7561TIP3    H244175   0.172   3.602   3.670  2.5462  2.4015 -0.3307
 7562TIP3   OH244176   2.944   1.842  13.374 -0.5421 -0.1980  0.4473
 7562TIP3    H144177   3.000   1.832  13.297 -0.3955  0.7585  0.4128
 7562TIP3    H244178   2.935   1.937  13.384 -1.1538 -0.3282  1.1808
 7563TIP3   OH244179   3.294   2.537   1.995 -0.3008 -0.0494 -0.7732
 7563TIP3    H144180   3.252   2.550   2.079  3.0736  2.9568  0.7167
 7563TIP3    H244181   3.355   2.464   2.010  0.9202  1.0479 -0.2821
 7564TIP3   OH244182   0.104   6.579  15.095 -0.1308  0.5186  0.2715
 7564TIP3    H144183   0.113   6.662  15.050  0.3863  0.6119  0.5390
 7564TIP3    H244184   0.081   6.516  15.026  0.9093  0.6067 -0.1812
 7565TIP3   OH244185   4.622   6.595   2.318 -0.0320 -0.1324  0.5035
 7565TIP3    H144186   4.684   6.639   2.376  0.2285  1.7795 -1.1483
 7565TIP3    H244187   4.537   6.610   2.358  0.0451  1.9720  0.0106
 7566TIP3   OH244188   0.535   4.495  16.925  0.3968  0.5530 -0.5977
 7566TIP3    H144189   0.462   4.475  16.984  1.2691  1.1872  0.7210
 7566TIP3    H244190   0.594   4.421  16.934  1.4017  1.4817  0.7475
 7567TIP3   OH244191   1.582   1.056  12.319 -0.5878 -0.2083 -0.5092
 7567TIP3    H144192   1.519   1.120  12.286  0.6515  1.7553  0.7508
 7567TIP3    H244193   1.664   1.078  12.276  0.1312 -0.1409  0.8497
 7568TIP3   OH244194   2.224   0.696   0.152 -0.3157  0.0527 -0.2417
 7568TIP3    H144195   2.245   0.772   0.098  0.1530  0.1517  0.0764
 7568TIP3    H244196   2.150   0.655   0.108  0.0252  0.1668 -0.9261
 7569TIP3   OH244197   1.495   6.209  12.147  0.1792 -0.2383  0.1819
 7569TIP3    H144198   1.541   6.143  12.198  1.5976  0.6182  0.0771
 7569TIP3    H244199   1.449   6.159  12.079  1.1677 -1.1282  0.1359
 7570TIP3   OH244200   4.212   4.140  12.588  0.6727 -0.2038  0.0620
 7570TIP3    H144201   4.269   4.196  12.641  0.9695  0.6564 -1.1207
 7570TIP3    H244202   4.271   4.100  12.525  0.2333 -0.7654 -0.0018
 7571TIP3   OH244203   2.707   3.538   2.399  0.0620  0.7795 -0.3688
 7571TIP3    H144204   2.730   3.613   2.344  0.1942  0.6275 -0.5274
 7571TIP3    H244205   2.705   3.464   2.337 -0.4767  0.7241 -0.2863
 7572TIP3   OH244206   6.591   2.997   5.801 -0.0341  0.1073  0.4842
 7572TIP3    H144207   6.555   2.934   5.864  2.0462 -0.1105  1.5538
 7572TIP3    H244208   6.545   3.078   5.820 -1.6890 -0.6988  0.1134
 7573TIP3   OH244209   2.222   3.911   1.073  0.3403  0.1342  0.1164
 7573TIP3    H144210   2.216   3.816   1.087  1.8123 -0.0987 -0.6920
 7573TIP3    H244211   2.225   3.921   0.977 -0.3336  1.0550  0.1718
 7574TIP3   OH244212   1.559   6.784   1.284  0.7154  0.0033  0.3154
 7574TIP3    H144213   1.651   6.800   1.267  0.6153 -0.0443 -0.2693
 7574TIP3    H244214   1.544   6.821   1.371  1.5413 -0.9643  0.8932
 7575TIP3   OH244215   4.193   3.893  12.686  0.8164  0.1454 -0.1716
 7575TIP3    H144216   4.213   3.899  12.779 -0.6799  0.1943  0.1722
 7575TIP3    H244217   4.188   3.984  12.656 -1.1699  0.2254  0.2931
 7576TIP3   OH244218   5.535   3.987   1.860  0.2423  0.3998  0.0042
 7576TIP3    H144219   5.630   3.974   1.872  0.4063  2.1877  0.9800
 7576TIP3    H244220   5.495   3.918   1.913  0.9924 -0.2751 -0.2817
 7577TIP3   OH244221   3.576   5.022   0.299 -0.3053 -0.2752 -0.4668
 7577TIP3    H144222   3.661   5.065   0.296 -1.4598  2.1612 -2.1854
 7577TIP3    H244223   3.593   4.932   0.272  1.9559 -0.4241  1.2488
 7578TIP3   OH244224   5.171   4.525   4.658  0.6237 -0.0112 -0.0668
 7578TIP3    H144225   5.252   4.545   4.612 -0.6136  0.8574 -2.0172
 7578TIP3    H244226   5.146   4.607   4.700 -0.8293  0.7354 -2.1918
 7579TIP3   OH244227   6.465   5.241  16.240 -0.4006 -0.5739 -0.5702
 7579TIP3    H144228   6.508   5.261  16.158 -0.6039  0.3234 -0.4694
 7579TIP3    H244229   6.516   5.170  16.278  1.4663  0.9521 -0.0972
 7580TIP3   OH244230   3.566   0.716   4.534 -0.4711  0.3002 -0.1068
 7580TIP3    H144231   3.514   0.648   4.577 -0.0297 -1.0986 -1.6703
 7580TIP3    H244232   3.522   0.730   4.450  1.4245 -0.7026 -1.3478
 7581TIP3   OH244233   1.982   4.434   1.369 -0.3697  0.0045  0.6192
 7581TIP3    H144234   1.941   4.411   1.452 -0.2130 -1.6428  0.2759
 7581TIP3    H244235   2.015   4.351   1.334  0.3809  0.7940 -0.6587
 7582TIP3   OH244236   3.197   4.318   4.273  0.7082 -0.4941  0.0160
 7582TIP3    H144237   3.278   4.266   4.277  0.3309 -1.1082 -0.1030
 7582TIP3    H244238   3.130   4.254   4.251  0.6083  0.4493 -2.8902
 7583TIP3   OH244239   5.302   3.402   1.759  0.2325  0.4188  0.7745
 7583TIP3    H144240   5.332   3.459   1.830  0.7024  0.4385  0.5625
 7583TIP3    H244241   5.283   3.319   1.802  0.7344  0.3619  0.8933
 7584TIP3   OH244242   6.296   0.861   0.305 -0.0678 -0.7605 -0.5442
 7584TIP3    H144243   6.370   0.844   0.363 -0.8177 -0.8213  0.4179
 7584TIP3    H244244   6.267   0.949   0.329  2.0871  1.0111 -3.6183
 7585TIP3   OH244245   5.973   2.762  15.096  0.1553 -0.0564  0.5629
 7585TIP3    H144246   5.919   2.745  15.019 -1.5926 -1.1866  1.9589
 7585TIP3    H244247   5.927   2.832  15.142  0.2253 -0.5850  1.4498
 7586TIP3   OH244248   2.359   3.824  16.440 -0.0824  0.0097  0.8575
 7586TIP3    H144249   2.365   3.728  16.443 -1.5686 -0.0833  1.4899
 7586TIP3    H244250   2.354   3.851  16.532 -3.6712  0.3526  0.6888
 7587TIP3   OH244251   1.716   4.773   4.893  0.0657 -0.6994 -0.1198
 7587TIP3    H144252   1.693   4.706   4.957  1.1036 -1.7930 -0.8534
 7587TIP3    H244253   1.664   4.849   4.918 -2.2455 -2.2011 -0.1270
 7588TIP3   OH244254   0.849   1.859  11.696  0.3400  0.3231  0.3790
 7588TIP3    H144255   0.922   1.851  11.758  1.3536  2.2653 -0.4526
 7588TIP3    H244256   0.774   1.820  11.741  2.1531 -3.2438  0.6590
 7589TIP3   OH244257   5.293   0.799   3.934 -0.0063  0.0943  0.5996
 7589TIP3    H144258   5.306   0.892   3.914  0.5283 -0.3108 -1.0563
 7589TIP3    H244259   5.310   0.793   4.028 -0.8211  1.8006  0.8949
 7590TIP3   OH244260   5.929   6.620  15.026  0.0985 -0.1359  0.1048
 7590TIP3    H144261   5.950   6.713  15.013 -2.1009  0.6246  1.3512
 7590TIP3    H244262   5.878   6.596  14.949  1.3331 -0.5643 -0.5955
 7591TIP3   OH244263   3.134   5.583  16.161 -0.0502 -0.3404 -0.4161
 7591TIP3    H144264   3.163   5.590  16.070  0.7285 -0.6291 -0.1895
 7591TIP3    H244265   3.139   5.490  16.181  1.4986 -0.0925  0.4795
 7592TIP3   OH244266   1.245   1.513   2.844  0.0984  0.4654 -0.0204
 7592TIP3    H144267   1.293   1.442   2.886 -0.5380 -0.2509 -0.4936
 7592TIP3    H244268   1.193   1.552   2.914 -0.1590 -0.0503  0.0763
 7593TIP3   OH244269   3.943   0.281  16.369 -0.1807  0.0477 -0.1314
 7593TIP3    H144270   3.934   0.365  16.324 -1.6857  0.1205  0.2615
 7593TIP3    H244271   3.870   0.278  16.431 -0.0011 -1.4295  0.0579
 7594TIP3   OH244272   4.512   3.950  13.727  0.2806 -0.1816 -0.3543
 7594TIP3    H144273   4.446   3.997  13.676  0.0557 -1.4156 -1.2191
 7594TIP3    H244274   4.564   3.903  13.663  1.7630  0.4226  0.3489
 7595TIP3   OH244275   1.125   3.005   3.184  0.1839  0.2906 -0.2584
 7595TIP3    H144276   1.077   3.042   3.258 -0.0492  0.2633 -0.3946
 7595TIP3    H244277   1.070   3.024   3.108  1.2629  1.9080 -0.6804
 7596TIP3   OH244278   0.368   5.929   5.788  0.2243  0.0286 -0.0824
 7596TIP3    H144279   0.316   5.872   5.732  2.5697 -0.6295 -1.7914
 7596TIP3    H244280   0.339   6.017   5.767 -2.1373 -0.3736  1.1856
 7597TIP3   OH244281   2.414   0.916   0.895 -0.1127 -0.1714  0.1319
 7597TIP3    H144282   2.377   0.883   0.813 -0.2136  1.8406 -0.6785
 7597TIP3    H244283   2.338   0.946   0.945  0.0912  0.2016  0.2203
 7598TIP3   OH244284   5.713   0.420   1.343  0.1136  0.0827  0.2334
 7598TIP3    H144285   5.655   0.412   1.268  1.0444  1.1152 -0.6275
 7598TIP3    H244286   5.752   0.333   1.353  0.5232  0.1111 -0.9493
 7599TIP3   OH244287   4.511   0.019   1.217  0.2373 -0.4364  0.3220
 7599TIP3    H144288   4.494   0.091   1.279  0.8712  1.5478 -1.6770
 7599TIP3    H244289   4.577  -0.034   1.261  0.3171  0.6163  1.5608
 7600TIP3   OH244290   0.692   1.235  14.555  0.4494  0.3975  0.0999
 7600TIP3    H144291   0.787   1.248  14.551  0.8209 -2.0097 -1.8538
 7600TIP3    H244292   0.675   1.210  14.646  1.5199  1.7435  0.6964
 7601TIP3   OH244293   2.154   3.687   3.048 -0.6996 -0.4989 -0.7063
 7601TIP3    H144294   2.121   3.628   3.116  4.9845 -2.7152  0.7424
 7601TIP3    H244295   2.171   3.631   2.973 -2.4190  1.0307 -2.3463
 7602TIP3   OH244296   5.976   0.843  15.941 -0.0145  0.4043  0.0047
 7602TIP3    H144297   5.912   0.861  15.871  0.7860 -2.0555 -1.4969
 7602TIP3    H244298   5.922   0.818  16.016 -0.9080 -0.7484 -0.9649
 7603TIP3   OH244299   3.428   1.246   1.925 -0.2616 -0.1888  0.6226
 7603TIP3    H144300   3.383   1.199   1.854 -2.0977  0.8074  1.0589
 7603TIP3    H244301   3.407   1.197   2.004  1.1787 -0.8733  0.6251
 7604TIP3   OH244302   1.030   5.666   3.101  0.2556 -0.4494 -0.5051
 7604TIP3    H144303   0.997   5.645   3.014  0.3172  0.6009 -0.8059
 7604TIP3    H244304   1.104   5.726   3.085  1.6267 -1.8899  0.1992
 7605TIP3   OH244305   4.746   0.528   4.290  0.2872  0.2692  0.2730
 7605TIP3    H144306   4.695   0.447   4.281  0.9883 -0.6469  3.2202
 7605TIP3    H244307   4.689   0.586   4.341  0.7401  0.6845  0.3081
 7606TIP3   OH244308   3.744   1.092  13.961  0.0974  0.4374 -0.6345
 7606TIP3    H144309   3.790   1.026  14.012  0.0379  0.1998 -0.8841
 7606TIP3    H244310   3.808   1.121  13.895 -0.1594 -0.0167 -1.0904
 7607TIP3   OH244311   4.416   4.130   2.739 -0.1391  0.3726 -0.6921
 7607TIP3    H144312   4.364   4.050   2.743  0.0753  0.1054 -2.4470
 7607TIP3    H244313   4.414   4.164   2.828 -2.7978  0.0630 -0.5442
 7608TIP3   OH244314   0.387   1.818  15.012 -0.0739 -0.1822 -0.2517
 7608TIP3    H144315   0.462   1.867  15.046 -0.9042 -0.1640  1.6525
 7608TIP3    H244316   0.350   1.875  14.944  0.9167  0.3403 -0.3711
 7609TIP3   OH244317   5.504   4.540   6.747 -0.4436 -0.3754  0.0698
 7609TIP3    H144318   5.484   4.478   6.817  0.3607  0.1236  0.7676
 7609TIP3    H244319   5.592   4.515   6.717 -1.2193 -1.2940 -1.5692
 7610TIP3   OH244320   6.499   0.309  10.902  0.2534 -0.2944 -0.4745
 7610TIP3    H144321   6.504   0.349  10.988  1.5350 -0.2717 -0.5488
 7610TIP3    H244322   6.568   0.351  10.851  0.8745 -1.7618 -0.8968
 7611TIP3   OH244323   5.374   6.212   4.215  0.0105  0.4177  0.7135
 7611TIP3    H144324   5.424   6.169   4.145  0.0057  0.3101  0.7766
 7611TIP3    H244325   5.375   6.305   4.191 -0.4697  0.3138  0.2671
 7612TIP3   OH244326   1.526   5.477  16.114 -0.3218 -0.1951 -0.2085
 7612TIP3    H144327   1.512   5.529  16.194  2.4094  0.8794 -0.3160
 7612TIP3    H244328   1.608   5.431  16.130 -0.0344 -0.4432 -2.1679
 7613TIP3   OH244329   5.196   1.547  11.714  0.2432 -0.0155  0.5708
 7613TIP3    H144330   5.292   1.545  11.710  0.2588 -0.6302  0.9820
 7613TIP3    H244331   5.168   1.535  11.624  0.5472  1.1149  0.3068
 7614TIP3   OH244332   4.308   1.871   5.773 -0.5426 -0.2878  0.2266
 7614TIP3    H144333   4.374   1.828   5.826  0.6380  0.5623 -0.4983
 7614TIP3    H244334   4.276   1.942   5.828  1.5931  1.3952 -0.5537
 7615TIP3   OH244335   0.304   5.667  12.390 -0.0600 -0.0155  0.3295
 7615TIP3    H144336   0.339   5.700  12.473  1.4940  0.8262 -0.6342
 7615TIP3    H244337   0.378   5.667  12.330 -1.1019 -0.8412 -1.0268
 7616TIP3   OH244338   1.437   6.232  16.689 -0.2488  0.6609  0.1108
 7616TIP3    H144339   1.517   6.257  16.642 -0.9433 -1.2159 -2.2729
 7616TIP3    H244340   1.448   6.138  16.706 -2.3604  0.1136 -1.2377
 7617TIP3   OH244341   0.054   0.019  16.820  0.0039 -0.0667 -0.3317
 7617TIP3    H144342   0.046  -0.060  16.874  0.3710  0.3955  0.3999
 7617TIP3    H244343  -0.011   0.006  16.751 -1.6683  0.0767  1.1367
 7618TIP3   OH244344   1.049   0.324  12.172 -0.1990  0.1240 -0.5716
 7618TIP3    H144345   1.108   0.328  12.247  1.1087  1.7282 -1.6112
 7618TIP3    H244346   0.961   0.322  12.210  0.4654 -0.5796  0.9963
 7619TIP3   OH244347   1.934   4.383   0.566  0.8061  0.3263 -0.4188
 7619TIP3    H144348   2.027   4.398   0.583  0.5727  0.5572  0.6900
 7619TIP3    H244349   1.904   4.332   0.641 -0.3285  1.6554  0.0656
 7620TIP3   OH244350   2.223   1.353   5.316  0.8573  0.3056  0.4499
 7620TIP3    H144351   2.165   1.404   5.259  1.5518 -0.3853 -0.9469
 7620TIP3    H244352   2.164   1.300   5.369  0.1678 -0.1295 -0.7060
 7621TIP3   OH244353   1.368   2.588  15.977  0.4350  0.1037 -0.2034
 7621TIP3    H144354   1.322   2.644  16.040 -0.5258 -0.0811 -0.7264
 7621TIP3    H244355   1.378   2.644  15.900  1.0736  0.1295 -0.1098
 7622TIP3   OH244356   1.941   3.572   1.544  0.2901 -0.0328 -0.4999
 7622TIP3    H144357   1.940   3.478   1.563 -0.0158 -0.1506 -1.0780
 7622TIP3    H244358   1.990   3.580   1.462 -1.3108  0.0938 -1.4904
 7623TIP3   OH244359   0.062   0.957   1.969 -0.0304  0.0648  0.1471
 7623TIP3    H144360  -0.016   1.012   1.957 -0.5690 -1.0330 -1.9787
 7623TIP3    H244361   0.028   0.872   1.997  0.4127 -0.2977 -0.3871
 7624TIP3   OH244362   6.470   6.718  16.197  0.0661 -0.3946 -0.0887
 7624TIP3    H144363   6.488   6.714  16.103  0.0334  0.2277 -0.1205
 7624TIP3    H244364   6.482   6.627  16.227  0.2780 -0.5564 -0.6520
 7625TIP3   OH244365   1.491   1.357  16.294  0.0846 -0.3092 -0.2229
 7625TIP3    H144366   1.550   1.315  16.231  1.0177  0.4243  0.1394
 7625TIP3    H244367   1.457   1.285  16.347  1.1355 -0.6760 -0.0382
 7626TIP3   OH244368   0.564   2.833   4.764 -0.1427  1.1192 -0.3388
 7626TIP3    H144369   0.573   2.814   4.857  0.9758 -0.1263 -0.6571
 7626TIP3    H244370   0.651   2.864   4.738 -0.4141  1.3485 -0.9802
 7627TIP3   OH244371   5.547   0.454   1.127 -0.7571 -0.1221  0.3079
 7627TIP3    H144372   5.463   0.458   1.081 -0.7888 -0.2803  0.3522
 7627TIP3    H244373   5.609   0.423   1.061 -0.7114  0.0940  0.2466
 7628TIP3   OH244374   3.066   1.798   3.747 -0.2506 -0.3348  0.5991
 7628TIP3    H144375   3.009   1.767   3.818 -0.6892 -1.5268 -0.2332
 7628TIP3    H244376   3.070   1.724   3.686  1.1208  0.2175 -0.0212
 7629TIP3   OH244377   1.526   5.748  16.912 -0.3273  0.7525  0.4987
 7629TIP3    H144378   1.512   5.653  16.911 -0.0085  0.6591 -1.8594
 7629TIP3    H244379   1.564   5.766  16.998 -0.4852 -1.2366  1.0363
 7630TIP3   OH244380   5.711   5.730   3.715 -0.2719 -0.0542 -0.0245
 7630TIP3    H144381   5.799   5.721   3.752 -0.5356 -0.8064  0.4177
 7630TIP3    H244382   5.689   5.643   3.684 -0.5582  0.2998 -0.8426
 7631TIP3   OH244383   2.014   2.543   2.519 -0.3122 -0.1175 -0.1253
 7631TIP3    H144384   2.099   2.569   2.482  0.2799 -0.3628  1.0056
 7631TIP3    H244385   1.960   2.523   2.443  1.3371 -2.1149 -0.8605
 7632TIP3   OH244386   1.903   0.933  14.997  0.1041 -0.0363 -0.2306
 7632TIP3    H144387   1.842   0.998  15.032  2.0346  2.0412 -0.5071
 7632TIP3    H244388   1.927   0.880  15.073 -0.5308  0.3591  0.2620
 7633TIP3   OH244389   2.738   1.680  16.179  0.3192  0.2253 -0.4484
 7633TIP3    H144390   2.766   1.771  16.186  0.3450  0.3006 -1.3805
 7633TIP3    H244391   2.783   1.647  16.102 -0.1474 -0.4008 -0.4620
 7634TIP3   OH244392   0.310   1.538   3.508  0.3798 -0.3040  0.7469
 7634TIP3    H144393   0.325   1.444   3.513  1.5883 -0.1416  0.5116
 7634TIP3    H244394   0.356   1.573   3.585  1.4327  0.2476 -0.1098
 7635TIP3   OH244395   0.339   3.285   3.185 -0.3442 -0.1082 -0.4657
 7635TIP3    H144396   0.368   3.238   3.263  0.4817  3.0489  1.2721
 7635TIP3    H244397   0.413   3.280   3.125 -0.7518 -2.0087 -0.8990
 7636TIP3   OH244398   3.699   4.063   1.741 -0.0016  0.2257 -0.7013
 7636TIP3    H144399   3.730   4.048   1.652 -0.3839  0.5764 -0.8989
 7636TIP3    H244400   3.622   4.120   1.730 -0.2612 -0.0189 -0.1754
 7637TIP3   OH244401   4.183   2.330  16.860 -0.1970 -0.3840  0.3918
 7637TIP3    H144402   4.248   2.261  16.849 -0.1888 -0.0630 -2.2568
 7637TIP3    H244403   4.118   2.313  16.792 -0.2541  2.0836 -0.2682
 7638TIP3   OH244404   1.659   3.805   6.418  0.5001 -0.2632  0.3845
 7638TIP3    H144405   1.568   3.794   6.389  0.9089  0.2008 -1.1709
 7638TIP3    H244406   1.652   3.825   6.512 -0.9754 -0.5266  0.3569
 7639TIP3   OH244407   1.439   6.161   4.239 -0.2849  0.4160  1.0799
 7639TIP3    H144408   1.501   6.094   4.208 -1.8217 -0.1288 -1.0713
 7639TIP3    H244409   1.476   6.244   4.208 -1.3835 -0.0567 -1.7821
 7640TIP3   OH244410   1.161   4.223   0.219 -0.8099  0.4993  0.2939
 7640TIP3    H144411   1.133   4.142   0.261  0.8243 -0.4618 -0.3784
 7640TIP3    H244412   1.080   4.261   0.184 -1.3212 -2.4154 -2.0790
 7641TIP3   OH244413   2.747   4.845  15.323  0.4120  0.2805  0.6074
 7641TIP3    H144414   2.755   4.861  15.417 -0.2065  1.7376  0.4479
 7641TIP3    H244415   2.734   4.932  15.285  1.4621 -0.1842 -0.9293
 7642TIP3   OH244416   5.093   5.938  13.062 -0.2883  0.6667 -0.1063
 7642TIP3    H144417   5.187   5.940  13.041 -0.2482  0.8460  0.0914
 7642TIP3    H244418   5.051   5.915  12.979  0.0804 -1.5849  0.2627
 7643TIP3   OH244419   4.470   4.839   3.095 -0.3129  0.3764 -0.5722
 7643TIP3    H144420   4.541   4.900   3.073 -1.3555  3.6076  3.7039
 7643TIP3    H244421   4.390   4.889   3.081 -1.5049 -1.4264 -0.5383
 7644TIP3   OH244422   2.278   1.515  11.116  0.3334  0.6092 -0.3038
 7644TIP3    H144423   2.333   1.498  11.192 -0.2972  1.5293  0.3833
 7644TIP3    H244424   2.339   1.541  11.047  0.8413  0.6451  0.1573
 7645TIP3   OH244425   4.774   6.566  10.928 -0.1649 -0.2342 -0.0625
 7645TIP3    H144426   4.793   6.525  11.012  0.7117  0.4737  0.0969
 7645TIP3    H244427   4.691   6.611  10.942  1.4496  2.5348  1.4521
 7646TIP3   OH244428   5.456   6.205  15.302 -0.3407  0.1879  0.5673
 7646TIP3    H144429   5.421   6.247  15.380  2.4547 -0.1188  2.1211
 7646TIP3    H244430   5.512   6.271  15.261 -1.3387  0.1638 -0.9264
 7647TIP3   OH244431   6.243   4.772  14.849  0.5770  0.0767 -0.3901
 7647TIP3    H144432   6.335   4.752  14.864  0.4499  0.3823  0.8479
 7647TIP3    H244433   6.212   4.809  14.931 -0.7760 -0.4711 -0.6267
 7648TIP3   OH244434   0.427   0.568  11.583  0.3238 -0.1642 -0.1314
 7648TIP3    H144435   0.504   0.513  11.567 -0.3682 -0.9626 -0.8332
 7648TIP3    H244436   0.367   0.511  11.631 -0.6083 -0.2251 -1.3199
 7649TIP3   OH244437   5.349   0.769  12.007 -0.3300 -0.5352 -0.1130
 7649TIP3    H144438   5.438   0.768  11.973 -0.6842 -0.4404 -1.0748
 7649TIP3    H244439   5.308   0.845  11.964 -0.7759 -0.3787  0.5739
 7650TIP3   OH244440   1.992   4.152  13.955  0.0362 -0.0662 -0.1096
 7650TIP3    H144441   1.921   4.091  13.937  0.5287 -0.7301  0.1490
 7650TIP3    H244442   1.953   4.239  13.943 -1.3361 -0.3474  1.8607
 7651TIP3   OH244443   6.139   5.245  15.255 -0.0608 -0.2973 -0.4207
 7651TIP3    H144444   6.149   5.300  15.332  0.8931  0.3837 -1.0140
 7651TIP3    H244445   6.229   5.226  15.227 -0.3954 -0.1077 -1.6653
 7652TIP3   OH244446   4.517   4.181   5.749  0.4623  0.0839  0.2166
 7652TIP3    H144447   4.438   4.231   5.770  0.9360  1.4581 -1.0695
 7652TIP3    H244448   4.519   4.180   5.653  1.8270 -0.2118  0.2352
 7653TIP3   OH244449   4.520   4.893   2.533 -0.3438 -0.1172  0.2885
 7653TIP3    H144450   4.594   4.834   2.547 -0.6242 -0.4893  0.2318
 7653TIP3    H244451   4.444   4.835   2.531 -0.6041  0.2295  0.0385
 7654TIP3   OH244452   3.536   4.223  16.337 -0.0626 -0.1284  0.0268
 7654TIP3    H144453   3.557   4.315  16.357 -0.7329 -0.0870  0.5741
 7654TIP3    H244454   3.441   4.222  16.326  0.0168 -0.6385 -0.6586
 7655TIP3   OH244455   6.575   5.747   4.052 -0.1066 -0.3510 -0.1311
 7655TIP3    H144456   6.547   5.835   4.079  0.3872 -0.1758 -0.1862
 7655TIP3    H244457   6.662   5.759   4.015  0.0584 -0.8978  0.0608
 7656TIP3   OH244458   2.063   0.178  14.712 -0.5203  0.4476 -0.1096
 7656TIP3    H144459   2.033   0.194  14.623  0.3740 -0.2753 -0.5566
 7656TIP3    H244460   2.144   0.229  14.721  1.2812 -2.0541 -0.9078
 7657TIP3   OH244461   2.536   1.150   4.273  0.6907 -0.0864 -0.3539
 7657TIP3    H144462   2.471   1.170   4.206  0.1399 -0.3998  0.0783
 7657TIP3    H244463   2.606   1.214   4.259 -0.2878  1.0959 -0.0093
 7658TIP3   OH244464   5.631   4.284  16.875 -0.0170 -0.6064 -0.0203
 7658TIP3    H144465   5.630   4.333  16.793 -0.0852 -1.3554 -0.4722
 7658TIP3    H244466   5.585   4.341  16.937  1.2877  0.5952 -0.1117
 7659TIP3   OH244467   1.710   5.199   3.537 -0.0036 -0.1307  0.4763
 7659TIP3    H144468   1.648   5.260   3.575 -0.0524  0.5261 -0.6005
 7659TIP3    H244469   1.765   5.170   3.610 -1.4671 -0.6242  1.4201
 7660TIP3   OH244470   2.286   4.584   1.999 -0.4395  0.0415 -0.3540
 7660TIP3    H144471   2.310   4.583   2.092 -1.6017 -0.5947 -0.0394
 7660TIP3    H244472   2.305   4.674   1.971  1.5506 -0.1993  0.0215
 7661TIP3   OH244473   3.831   3.921  14.847  0.9150  0.8515 -0.5519
 7661TIP3    H144474   3.898   3.892  14.908  0.2057  0.1329 -0.0783
 7661TIP3    H244475   3.872   3.914  14.760  1.0118 -1.0008 -0.4047
 7662TIP3   OH244476   4.092   4.811  15.760  0.3287 -0.5828  0.4155
 7662TIP3    H144477   4.165   4.812  15.698  0.3928  1.2695  0.4618
 7662TIP3    H244478   4.014   4.810  15.705  0.3775  1.7205  0.2426
 7663TIP3   OH244479   2.693   6.135  12.582  0.1988  0.0598 -0.0629
 7663TIP3    H144480   2.694   6.225  12.614 -2.3117  0.0061  0.3623
 7663TIP3    H244481   2.661   6.141  12.492 -2.6857 -0.4896  0.7980
 7664TIP3   OH244482   1.405   1.042   6.550  0.0830 -0.2792 -0.1719
 7664TIP3    H144483   1.422   0.981   6.479  0.6396  1.1748 -1.3434
 7664TIP3    H244484   1.310   1.050   6.552  0.1000  1.4749 -2.4350
 7665TIP3   OH244485   4.173   1.506   0.159 -0.2291  0.2016  0.3621
 7665TIP3    H144486   4.266   1.489   0.175 -0.8503 -0.9701  3.5874
 7665TIP3    H244487   4.146   1.562   0.232 -2.1629  0.0257 -0.1591
 7666TIP3   OH244488   3.706   0.208   3.435  0.1672  0.1275 -0.1305
 7666TIP3    H144489   3.644   0.137   3.453 -0.0909  0.6318  1.0839
 7666TIP3    H244490   3.760   0.213   3.514  2.6463 -1.1438 -1.6567
 7667TIP3   OH244491   2.398   4.108   0.199 -0.2927 -0.1114  0.0267
 7667TIP3    H144492   2.355   4.119   0.284  1.4099 -1.0836  1.0759
 7667TIP3    H244493   2.354   4.033   0.160  0.6825 -1.3711  1.2726
 7668TIP3   OH244494   6.026   2.912   1.288 -0.1064 -0.1422  0.4642
 7668TIP3    H144495   6.117   2.919   1.316 -0.1731 -0.6489  0.8313
 7668TIP3    H244496   5.975   2.923   1.368 -0.3501 -0.3185  0.3361
 7669TIP3   OH244497   2.576   1.931   2.684 -0.1669  0.1184  0.1178
 7669TIP3    H144498   2.647   1.899   2.740 -0.9531 -2.9252 -0.4292
 7669TIP3    H244499   2.499   1.882   2.712 -1.7685  2.2617 -0.2937
 7670TIP3   OH244500   4.965   4.996   5.525  0.1267 -0.3398  0.4146
 7670TIP3    H144501   5.046   5.044   5.505  0.1916 -0.4869  0.3263
 7670TIP3    H244502   4.903   5.025   5.459  0.5206 -1.2921 -0.3907
 7671TIP3   OH244503   1.251   6.655   4.937  0.1343  0.0250  0.0279
 7671TIP3    H144504   1.217   6.571   4.966 -1.4391  0.7159  0.3178
 7671TIP3    H244505   1.346   6.644   4.937  0.0571 -1.1433  1.9630
 7672TIP3   OH244506   5.240   3.225   1.098 -0.5812  0.0679 -0.1542
 7672TIP3    H144507   5.153   3.185   1.102 -0.3885 -0.2391  1.7405
 7672TIP3    H244508   5.226   3.317   1.118 -0.2816 -0.3707  2.3662
 7673TIP3   OH244509   6.358   0.288  12.077  0.1917 -0.4537 -0.1636
 7673TIP3    H144510   6.353   0.320  11.987  1.1936  1.6208  0.4613
 7673TIP3    H244511   6.432   0.228  12.077  1.3800  0.9423 -0.3862
 7674TIP3   OH244512   4.056   4.272   1.449  0.4632 -0.4915  0.1273
 7674TIP3    H144513   3.962   4.288   1.443  0.4513 -0.5617  0.1293
 7674TIP3    H244514   4.091   4.301   1.364  0.7252  1.4399  0.8329
 7675TIP3   OH244515   5.560   4.251  10.616 -0.0134  0.2162 -0.8737
 7675TIP3    H144516   5.595   4.319  10.559  2.4049 -0.1481  0.0813
 7675TIP3    H244517   5.514   4.299  10.685  2.6477  1.0281  0.4389
 7676TIP3   OH244518   6.134   1.351  14.970  0.0422  0.6145 -0.5332
 7676TIP3    H144519   6.109   1.301  15.048  0.6040  0.9943 -0.0981
 7676TIP3    H244520   6.103   1.298  14.897 -0.8209  0.4244 -0.0483
 7677TIP3   OH244521   3.934   5.871   3.733  0.0640  0.0273 -0.2333
 7677TIP3    H144522   3.944   5.778   3.710  1.2887 -0.0553  0.4895
 7677TIP3    H244523   4.002   5.886   3.800  0.0450  1.5005 -0.5121
 7678TIP3   OH244524   2.584   0.534   2.398 -0.4177 -0.4992 -0.4440
 7678TIP3    H144525   2.633   0.453   2.383  1.6944  0.9554 -2.0696
 7678TIP3    H244526   2.588   0.548   2.492 -0.3519 -1.9688 -0.2000
 7679TIP3   OH244527   6.408   2.069   2.671 -0.5144  0.1607 -0.2137
 7679TIP3    H144528   6.406   2.150   2.721  1.2480  1.0813 -1.5325
 7679TIP3    H244529   6.494   2.032   2.688 -0.0542  0.2507 -2.1267
 7680TIP3   OH244530   3.841   3.670  15.118  0.4905  0.4210 -0.1190
 7680TIP3    H144531   3.857   3.576  15.124  1.5103  0.5949  0.2104
 7680TIP3    H244532   3.791   3.681  15.037  0.7602 -0.3578 -0.4012
 7681TIP3   OH244533   1.264   2.470  14.813  0.0558  0.3797  0.2057
 7681TIP3    H144534   1.234   2.508  14.731  1.4180  0.0359 -0.4866
 7681TIP3    H244535   1.357   2.451  14.798 -0.5005 -3.2436  0.4895
 7682TIP3   OH244536   6.302   6.022  12.341 -0.2326  0.0610 -0.3095
 7682TIP3    H144537   6.315   6.105  12.387 -0.8933 -0.8149  1.5570
 7682TIP3    H244538   6.325   6.041  12.250  1.0451  1.8951  0.3440
 7683TIP3   OH244539   3.078   2.482  13.741  0.2003 -0.3960  0.2505
 7683TIP3    H144540   3.135   2.425  13.793 -0.6722 -1.2073  0.3416
 7683TIP3    H244541   3.039   2.542  13.805  2.1323  1.2594 -0.0031
 7684TIP3   OH244542   2.716   3.505   2.121 -0.0089 -0.0699 -0.4781
 7684TIP3    H144543   2.654   3.560   2.074 -1.0113 -0.4548  0.3669
 7684TIP3    H244544   2.691   3.415   2.098 -1.0261 -0.2967  1.3610
 7685TIP3   OH244545   4.761   1.570   6.020  0.0005  0.1677 -0.3406
 7685TIP3    H144546   4.696   1.505   5.992  0.9841 -0.4895 -1.1977
 7685TIP3    H244547   4.843   1.520   6.027  0.6463  1.1908 -0.4065
 7686TIP3   OH244548   6.576   3.182   3.824  1.0490 -0.5126 -0.0431
 7686TIP3    H144549   6.571   3.105   3.767 -0.7501 -0.1727 -0.3724
 7686TIP3    H244550   6.551   3.256   3.769  1.3430  0.1219  0.6471
 7687TIP3   OH244551   6.022   1.478   1.858  0.0854  0.0239 -0.5426
 7687TIP3    H144552   6.014   1.403   1.798 -3.5380  0.1227 -0.3929
 7687TIP3    H244553   6.035   1.438   1.944 -1.2751 -0.4867 -0.5426
 7688TIP3   OH244554   2.479   1.175  12.501  0.5941 -0.0170 -0.5683
 7688TIP3    H144555   2.493   1.081  12.512  1.0478 -0.2155 -2.4256
 7688TIP3    H244556   2.538   1.216  12.564 -0.1991 -0.9644  0.8310
 7689TIP3   OH244557   2.079   5.461  11.639 -0.2740 -0.0109 -0.0907
 7689TIP3    H144558   2.147   5.527  11.653 -1.1674  0.8064  0.4895
 7689TIP3    H244559   2.000   5.500  11.675 -1.2914 -0.5143 -1.6751
 7690TIP3   OH244560   0.112   3.442  13.817  0.2242  0.8687 -0.2071
 7690TIP3    H144561   0.050   3.470  13.884 -0.9909  0.0933 -0.9750
 7690TIP3    H244562   0.079   3.481  13.736  0.4674  0.0559 -0.7063
 7691TIP3   OH244563   2.213   0.430  17.023 -0.2313 -0.3267 -0.0572
 7691TIP3    H144564   2.198   0.382  16.942  1.0087  1.1936 -1.2434
 7691TIP3    H244565   2.227   0.520  16.996 -1.1969  0.5115  1.9868
 7692TIP3   OH244566   3.819   2.302   1.104 -0.7833 -0.5460  0.6754
 7692TIP3    H144567   3.772   2.308   1.187 -3.9271  2.4322 -1.0348
 7692TIP3    H244568   3.757   2.260   1.044  0.6696 -0.9203 -0.6495
 7693TIP3   OH244569   6.567   1.691   3.455 -0.1512 -0.1060 -0.4442
 7693TIP3    H144570   6.504   1.644   3.399 -0.3209  0.4850 -0.7553
 7693TIP3    H244571   6.631   1.624   3.479 -0.1482 -0.4038 -1.2421
 7694TIP3   OH244572   3.685   1.280   1.680  0.0505 -0.7159 -0.0708
 7694TIP3    H144573   3.779   1.297   1.682 -0.2146  0.9035  1.9007
 7694TIP3    H244574   3.657   1.293   1.771 -2.4364  1.0998 -1.0134
 7695TIP3   OH244575   0.007   6.662  13.867 -0.5120  0.6539 -0.7185
 7695TIP3    H144576  -0.063   6.705  13.916  0.0422  0.5114  0.2141
 7695TIP3    H244577  -0.038   6.601  13.809 -1.1781  0.7768 -0.3365
 7696TIP3   OH244578   0.988   3.773   1.931  0.3286 -0.2062 -0.0354
 7696TIP3    H144579   1.003   3.863   1.902  2.8844 -0.2205  0.9730
 7696TIP3    H244580   1.004   3.775   2.025 -0.7532 -1.5151  0.2082
 7697TIP3   OH244581   3.786   5.424   1.416  0.1438  0.0649 -0.1500
 7697TIP3    H144582   3.820   5.351   1.364 -0.5209  0.2514 -0.8638
 7697TIP3    H244583   3.691   5.421   1.402  0.1710  1.5210 -0.8069
 7698TIP3   OH244584   2.524   0.812  15.740 -0.3047 -0.2838  0.0801
 7698TIP3    H144585   2.587   0.741  15.755  0.0258  0.2619  1.4384
 7698TIP3    H244586   2.456   0.799  15.806 -1.4471 -0.6416 -1.1277
 7699TIP3   OH244587   6.707   1.318  15.591  0.0535  0.1700 -0.1051
 7699TIP3    H144588   6.698   1.225  15.569 -0.1372 -0.1609  1.2720
 7699TIP3    H244589   6.623   1.357  15.566 -0.6375 -0.4456  1.1716
 7700TIP3   OH244590   3.797   5.547  16.875  0.0879  0.0814 -0.1076
 7700TIP3    H144591   3.766   5.561  16.785 -0.2667 -1.6062 -0.2694
 7700TIP3    H244592   3.838   5.630  16.898 -1.5873  1.2668 -1.0981
 7701TIP3   OH244593   6.601   2.674  14.231  0.6327  0.2906 -0.2839
 7701TIP3    H144594   6.656   2.735  14.182  2.0550 -1.4535 -1.0035
 7701TIP3    H244595   6.649   2.658  14.312  1.5835 -1.6658 -1.1546
 7702TIP3   OH244596   5.285   6.661   2.118 -0.1666 -0.2449 -0.0230
 7702TIP3    H144597   5.211   6.648   2.060 -0.8858  2.7136  0.0430
 7702TIP3    H244598   5.272   6.749   2.154  2.7526 -0.0729  0.9105
 7703TIP3   OH244599   2.949   5.880   3.991 -0.8291 -0.5965 -0.6890
 7703TIP3    H144600   3.042   5.856   3.994 -0.1834  1.7207 -0.1770
 7703TIP3    H244601   2.925   5.870   3.899 -0.3035 -1.8942 -0.7151
 7704TIP3   OH244602   3.339   3.246  13.766 -0.2878  0.5949 -0.0847
 7704TIP3    H144603   3.416   3.272  13.816  0.6632 -0.2023 -1.0748
 7704TIP3    H244604   3.366   3.167  13.719 -1.8327  0.0833 -0.1844
 7705TIP3   OH244605   4.360   0.048   1.810 -0.1053 -0.5447  0.1693
 7705TIP3    H144606   4.453   0.056   1.833  0.1663  0.1519 -1.0543
 7705TIP3    H244607   4.351  -0.042   1.778  0.1422 -0.6313  0.3425
 7706TIP3   OH244608   0.521   1.554   2.571 -0.0017 -0.3288 -0.0666
 7706TIP3    H144609   0.485   1.607   2.642 -1.7032 -1.3426 -0.1097
 7706TIP3    H244610   0.476   1.586   2.493  2.2801  1.1812 -0.8445
 7707TIP3   OH244611   1.105   1.037   3.018  0.3868  0.2630  0.3973
 7707TIP3    H144612   1.131   1.004   3.104  1.5248 -1.9550 -0.6976
 7707TIP3    H244613   1.069   0.960   2.973 -1.5409  1.6889 -0.6550
 7708TIP3   OH244614   2.476   3.707  12.647 -0.1985 -0.2138  0.0067
 7708TIP3    H144615   2.402   3.650  12.625 -0.7385  0.1496  0.8209
 7708TIP3    H244616   2.457   3.789  12.601  0.5771 -0.6626 -1.1634
 7709TIP3   OH244617   3.262   0.605   3.084 -0.6000 -0.9250 -0.2133
 7709TIP3    H144618   3.336   0.663   3.067 -1.4944  0.8633  1.5700
 7709TIP3    H244619   3.302   0.521   3.108  0.9708  0.4348  2.2992
 7710TIP3   OH244620   6.547   6.122   2.000  0.4920 -0.3803 -0.1583
 7710TIP3    H144621   6.456   6.102   1.981 -0.0457  1.4695  0.1939
 7710TIP3    H244622   6.579   6.046   2.049 -1.2300 -0.5561  0.7690
 7711TIP3   OH244623   0.685   5.972  13.172  0.1170 -0.0899 -0.5190
 7711TIP3    H144624   0.742   5.942  13.101 -1.7561 -1.9338 -1.3348
 7711TIP3    H244625   0.600   5.987  13.130 -0.4203  1.2177  0.9201
 7712TIP3   OH244626   5.005   6.802   3.137  0.7342  0.1629 -0.2746
 7712TIP3    H144627   4.986   6.715   3.103  0.1721 -0.3754  1.3090
 7712TIP3    H244628   4.976   6.798   3.228  3.9290  0.8546  0.9009
 7713TIP3   OH244629   0.268   6.009   6.627 -0.0376  0.1637  0.7625
 7713TIP3    H144630   0.242   5.929   6.673  1.2013  0.3485  1.8725
 7713TIP3    H244631   0.222   6.079   6.673 -1.6676  0.0875 -0.6428
 7714TIP3   OH244632   1.947   6.593   1.682 -0.8409 -0.5588 -0.6769
 7714TIP3    H144633   1.975   6.677   1.718  1.7371 -1.0600 -1.3177
 7714TIP3    H244634   1.959   6.532   1.755 -0.9189 -0.6717 -0.7601
 7715TIP3   OH244635   2.763   2.979  17.063 -0.7454  0.1310  0.2671
 7715TIP3    H144636   2.674   2.960  17.091 -1.4586  1.4835 -0.9914
 7715TIP3    H244637   2.801   2.893  17.045 -1.1065 -0.6191  2.6547
 7716TIP3   OH244638   1.185   4.672   6.403 -0.7803 -0.4503  0.3794
 7716TIP3    H144639   1.173   4.703   6.493  1.4886 -0.1592  0.6396
 7716TIP3    H244640   1.147   4.584   6.402  0.3888 -1.0204  2.0275
 7717TIP3   OH244641   6.780   0.238  16.934 -0.3663 -0.2353 -0.4981
 7717TIP3    H144642   6.820   0.302  16.874  2.5346 -1.4365  0.0033
 7717TIP3    H244643   6.812   0.153  16.904 -1.3572 -1.1528  0.9099
 7718TIP3   OH244644   2.145   1.573  11.530 -0.1754 -0.3069 -0.1981
 7718TIP3    H144645   2.179   1.514  11.597 -0.8955 -0.1480  0.3048
 7718TIP3    H244646   2.083   1.629  11.575  0.9760  1.3135 -0.5070
 7719TIP3   OH244647   2.391   5.353   3.333 -0.1405 -0.4232  0.0754
 7719TIP3    H144648   2.460   5.287   3.323 -0.8856 -1.4765  1.4742
 7719TIP3    H244649   2.346   5.329   3.414 -0.3433  1.9265  0.7386
 7720TIP3   OH244650   4.427   6.574   2.837  0.5008 -0.5976 -0.1466
 7720TIP3    H144651   4.422   6.570   2.742  0.1578 -4.8357 -0.1496
 7720TIP3    H244652   4.336   6.579   2.866  0.3836 -2.0557 -0.1465
 7721TIP3   OH244653   1.421   1.599   6.141  0.2078  0.9797 -0.1079
 7721TIP3    H144654   1.427   1.694   6.140 -0.0313  1.0152  0.7288
 7721TIP3    H244655   1.426   1.576   6.234  0.9483  0.1319 -0.3456
 7722TIP3   OH244656   6.736   4.361   2.947 -0.2731  0.2833 -0.0622
 7722TIP3    H144657   6.741   4.427   2.878 -1.2321 -0.1432 -0.5557
 7722TIP3    H244658   6.828   4.341   2.968  0.0679 -0.3768 -1.9877
 7723TIP3   OH244659   5.214   4.387   3.176 -0.4013 -0.4218  0.0929
 7723TIP3    H144660   5.300   4.345   3.169  0.4779  1.5043 -1.3615
 7723TIP3    H244661   5.209   4.413   3.268  1.8922  1.9424 -0.3238
 7724TIP3   OH244662   3.555   3.040   2.396 -0.0936  0.3139  0.3766
 7724TIP3    H144663   3.618   3.105   2.427  1.6894 -0.2031 -1.8421
 7724TIP3    H244664   3.596   2.955   2.415 -0.6508 -0.0663 -0.0770
 7725TIP3   OH244665   3.200   2.421  17.003  0.3106 -0.2996  0.3157
 7725TIP3    H144666   3.207   2.484  17.075 -0.2748 -0.7436  0.7767
 7725TIP3    H244667   3.151   2.348  17.041 -0.2309 -0.4294 -0.6108
 7726TIP3   OH244668   5.615   2.298  13.722 -0.5445  0.5284  0.9233
 7726TIP3    H144669   5.704   2.312  13.689 -0.7939 -0.6740 -0.3779
 7726TIP3    H244670   5.596   2.376  13.774  0.2831  2.0917 -0.9754
 7727TIP3   OH244671   2.104   3.145   3.263  0.2624  0.1124 -0.1660
 7727TIP3    H144672   2.175   3.103   3.215  0.4257 -1.2120  1.1610
 7727TIP3    H244673   2.145   3.174   3.345 -0.2101  1.5396 -0.3930
 7728TIP3   OH244674   5.925   6.200  16.003  0.1122 -0.0291 -0.2902
 7728TIP3    H144675   5.933   6.290  15.971 -2.2686 -0.3118 -1.9904
 7728TIP3    H244676   5.946   6.145  15.928  1.4749 -0.9512  0.7099
 7729TIP3   OH244677   2.064   3.377   6.292  0.1447 -0.2604 -0.5017
 7729TIP3    H144678   2.089   3.289   6.318  3.2594  0.7126  0.2265
 7729TIP3    H244679   2.054   3.425   6.375  1.1022  0.6772 -0.9058
 7730TIP3   OH244680   6.698   6.169   0.299  1.0667  0.0380 -0.2133
 7730TIP3    H144681   6.743   6.232   0.355  0.5461  1.3128 -1.1903
 7730TIP3    H244682   6.746   6.170   0.217  0.2919  0.1257 -0.6743
 7731TIP3   OH244683   2.346   3.218   1.902  0.2274 -0.1425 -0.0623
 7731TIP3    H144684   2.278   3.163   1.862 -0.8523  1.6194 -0.7300
 7731TIP3    H244685   2.344   3.194   1.995 -0.6541 -0.7942 -0.2337
 7732TIP3   OH244686   2.063   2.451   0.469 -0.1120  0.1125  0.6775
 7732TIP3    H144687   2.031   2.422   0.384 -0.5453 -0.2883  0.9746
 7732TIP3    H244688   1.990   2.502   0.506 -0.2731 -0.4613  1.1815
 7733TIP3   OH244689   1.204   3.826  14.600 -0.3060  0.2343  0.4546
 7733TIP3    H144690   1.246   3.903  14.561  0.5454  1.4031  3.3453
 7733TIP3    H244691   1.111   3.846  14.598 -0.2536  0.4121 -0.6211
 7734TIP3   OH244692   1.331   5.882  14.088 -0.0499 -0.2117  0.4355
 7734TIP3    H144693   1.372   5.930  14.016  0.9750 -2.0737 -0.3117
 7734TIP3    H244694   1.401   5.871  14.152 -0.2137 -0.8348  0.5098
 7735TIP3   OH244695   4.738   3.502  10.745  0.7848  0.8450  0.0102
 7735TIP3    H144696   4.767   3.551  10.822 -0.0488 -2.7174  2.8906
 7735TIP3    H244697   4.643   3.495  10.756  0.7370 -0.3139 -0.9171
 7736TIP3   OH244698   4.467   3.003   0.080  0.5158 -0.5461 -0.5747
 7736TIP3    H144699   4.461   2.907   0.078 -0.4423 -0.5236  0.4855
 7736TIP3    H244700   4.388   3.033   0.034 -1.6614 -0.2988  2.9640
 7737TIP3   OH244701   6.408   2.406   4.700 -0.1875  0.6888 -0.3513
 7737TIP3    H144702   6.363   2.322   4.706 -1.0376  1.2297  1.1098
 7737TIP3    H244703   6.487   2.386   4.648  0.2852 -1.2788  1.0052
 7738TIP3   OH244704   4.009   3.473  16.330  0.3347  0.1266  0.7333
 7738TIP3    H144705   3.950   3.537  16.371  0.2496  0.1462  0.5791
 7738TIP3    H244706   3.968   3.388  16.346 -0.6197  0.2554 -0.8267
 7739TIP3   OH244707   6.377   6.465  16.844  0.1315 -0.2598 -0.3933
 7739TIP3    H144708   6.282   6.456  16.837  0.2609 -0.9620 -1.4320
 7739TIP3    H244709   6.391   6.509  16.928 -1.0446 -1.4550  0.4716
 7740TIP3   OH244710   3.117   1.648   1.289  0.0039  0.4060  0.0637
 7740TIP3    H144711   3.118   1.632   1.195  2.8000  1.7072 -0.2405
 7740TIP3    H244712   3.197   1.606   1.322  0.7311  2.5672  1.2676
 7741TIP3   OH244713   5.255   0.374  15.321  0.3147 -0.0746  0.3607
 7741TIP3    H144714   5.221   0.288  15.295  0.5483  0.2684 -1.1902
 7741TIP3    H244715   5.346   0.373  15.292 -0.7180  2.1701 -3.7436
 7742TIP3   OH244716   3.580   0.101  16.671 -0.3467 -0.0380 -0.1068
 7742TIP3    H144717   3.610   0.035  16.607 -0.5858  0.1305 -0.3947
 7742TIP3    H244718   3.491   0.075  16.692 -0.5277  0.3384 -0.4103
 7743TIP3   OH244719   0.907   2.312   0.714  0.1294  0.0704 -0.1954
 7743TIP3    H144720   0.922   2.406   0.709  0.2678 -0.0201 -1.7722
 7743TIP3    H244721   0.834   2.295   0.656  1.3316 -1.0311 -1.4598
 7744TIP3   OH244722   0.991   0.153   2.675  0.0817 -0.3976  0.3607
 7744TIP3    H144723   1.021   0.134   2.586  1.9615 -0.0989  0.8902
 7744TIP3    H244724   0.897   0.167   2.666 -0.1345 -2.4263 -1.2390
 7745TIP3   OH244725   2.712   4.895  16.917  0.5327  0.2746 -0.1369
 7745TIP3    H144726   2.728   4.855  17.003 -1.9934  0.3627  0.4424
 7745TIP3    H244727   2.730   4.824  16.855  2.2658  0.1690  0.4322
 7746TIP3   OH244728   6.022   1.373  13.447 -0.3515 -0.0610  0.0040
 7746TIP3    H144729   6.012   1.364  13.542  3.0361  1.1876  0.6420
 7746TIP3    H244730   6.061   1.290  13.419  1.8000  0.7407  0.4018
 7747TIP3   OH244731   3.100   6.448   5.094  0.4628  0.7027 -0.3398
 7747TIP3    H144732   3.128   6.520   5.037  0.8241  0.7017 -0.1662
 7747TIP3    H244733   3.081   6.489   5.178  1.9406  0.4343  0.1575
 7748TIP3   OH244734   5.270   0.509  12.328  0.3474  0.8336 -0.3503
 7748TIP3    H144735   5.216   0.583  12.300 -1.1492 -1.0643 -2.9722
 7748TIP3    H244736   5.313   0.479  12.248  0.0148 -1.7901  0.3587
 7749TIP3   OH244737   2.130   0.375  12.698  0.2098  0.6884 -0.4092
 7749TIP3    H144738   2.206   0.370  12.756  0.6897  1.7693 -0.9283
 7749TIP3    H244739   2.127   0.466  12.669 -2.3659  1.1821  1.0106
 7750TIP3   OH244740   4.366   4.706  11.616 -0.7240 -0.2093  0.8030
 7750TIP3    H144741   4.456   4.687  11.640 -0.2048 -1.6330 -1.8730
 7750TIP3    H244742   4.367   4.711  11.520 -3.5130 -0.3814  0.6742
 7751TIP3   OH244743   6.097   4.996   4.398 -0.1890 -0.3586 -0.0341
 7751TIP3    H144744   6.166   4.989   4.332  1.7351  1.0634  1.6813
 7751TIP3    H244745   6.133   5.057   4.463 -2.7464 -0.2428  1.3852
 7752TIP3   OH244746   1.582   4.225   0.234 -0.1349 -0.3474  0.5112
 7752TIP3    H144747   1.516   4.295   0.238 -0.4204 -0.5218 -0.8429
 7752TIP3    H244748   1.533   4.147   0.210  0.6147 -0.3993 -0.9096
 7753TIP3   OH244749   3.555   5.625   1.592  1.2169  0.0646  0.3891
 7753TIP3    H144750   3.568   5.653   1.683  0.6268 -1.3496  0.9244
 7753TIP3    H244751   3.578   5.532   1.591  3.7873  0.5880 -1.4844
 7754TIP3   OH244752   4.282   6.544  16.830 -0.1202 -0.0947 -0.0591
 7754TIP3    H144753   4.222   6.486  16.877  1.5483 -2.9465 -1.1646
 7754TIP3    H244754   4.363   6.492  16.820  0.7294  1.5454 -3.1573
 7755TIP3   OH244755   6.763   6.551  14.548 -0.1148 -0.5734 -0.1334
 7755TIP3    H144756   6.734   6.461  14.563 -1.8709 -0.3481 -1.8098
 7755TIP3    H244757   6.767   6.559  14.453  1.6322  0.6781 -0.0174
 7756TIP3   OH244758   0.658   6.822   2.221  0.0435 -0.0593 -0.2047
 7756TIP3    H144759   0.573   6.847   2.187 -0.4379  0.0818  1.0587
 7756TIP3    H244760   0.645   6.735   2.259  0.5685 -0.2254 -0.3936
 7757TIP3   OH244761   4.086   2.070  10.555 -0.0372 -0.7290  0.2592
 7757TIP3    H144762   4.138   2.077  10.475 -0.5328  0.6765  0.0462
 7757TIP3    H244763   4.089   1.976  10.577  1.1654 -0.9352 -0.6741
 7758TIP3   OH244764   5.544   0.181  12.385  0.3597  0.4910 -0.1812
 7758TIP3    H144765   5.544   0.138  12.471  0.8045  0.8480 -0.0001
 7758TIP3    H244766   5.486   0.127  12.332  2.0134 -1.1747 -0.3786
 7759TIP3   OH244767   5.285   1.659   4.102 -0.0843 -0.2712  0.4773
 7759TIP3    H144768   5.366   1.617   4.073  1.4158  1.4603  1.9147
 7759TIP3    H244769   5.294   1.750   4.073 -2.1079 -0.3088 -0.3937
 7760TIP3   OH244770   5.829   3.042   0.200 -0.1149 -0.4638 -0.1704
 7760TIP3    H144771   5.891   3.030   0.128 -1.2964 -1.4890 -1.0690
 7760TIP3    H244772   5.883   3.035   0.279  1.3927  1.7146 -0.9074
 7761TIP3   OH244773   0.313   2.879   1.916 -0.3515 -0.3801 -0.7136
 7761TIP3    H144774   0.371   2.810   1.882 -0.3961 -0.6211 -0.3013
 7761TIP3    H244775   0.354   2.907   1.998 -0.6060 -0.2718 -0.6237
 7762TIP3   OH244776   1.990   3.782   5.315 -0.2536  0.5737  0.6168
 7762TIP3    H144777   1.940   3.818   5.388 -0.5740  2.1755 -0.3517
 7762TIP3    H244778   1.924   3.761   5.249  0.0041 -1.1293  0.8519
 7763TIP3   OH244779   1.552   0.289   3.523 -0.1099  0.1097 -0.0521
 7763TIP3    H144780   1.473   0.282   3.469  0.2791  0.3011 -0.6612
 7763TIP3    H244781   1.623   0.267   3.463  0.2831 -0.2388  0.5408
 7764TIP3   OH244782   4.207   3.342  13.760  0.7068  0.5919  0.5409
 7764TIP3    H144783   4.236   3.417  13.812  1.8671  0.0285  0.7475
 7764TIP3    H244784   4.128   3.312  13.804  0.2219  1.6833  0.4585
 7765TIP3   OH244785   3.776   4.220  12.152  0.1399  0.5465 -0.0083
 7765TIP3    H144786   3.740   4.131  12.149 -1.2932  0.8951  3.2857
 7765TIP3    H244787   3.863   4.209  12.189 -0.3959  0.5560  1.2937
 7766TIP3   OH244788   3.127   4.057  11.885  0.6200  0.4284 -0.7014
 7766TIP3    H144789   3.076   4.136  11.902  0.2816  0.0771 -0.0540
 7766TIP3    H244790   3.218   4.087  11.877  0.3272  1.0675 -1.9061
 7767TIP3   OH244791   0.186   3.812  11.159 -0.0966 -0.5376 -0.2900
 7767TIP3    H144792   0.263   3.812  11.102  0.2421 -0.5356  0.1643
 7767TIP3    H244793   0.216   3.853  11.240 -1.1614  1.5913 -0.8861
 7768TIP3   OH244794   0.609   3.829  16.779  0.2288 -0.0408  0.0716
 7768TIP3    H144795   0.702   3.847  16.766  0.2619  1.1775  1.7260
 7768TIP3    H244796   0.566   3.914  16.771 -0.6964 -0.5213 -0.2522
 7769TIP3   OH244797   1.887   3.805  13.982 -0.3036 -0.2094 -0.1166
 7769TIP3    H144798   1.849   3.893  13.984 -1.4429 -0.6984  0.3514
 7769TIP3    H244799   1.879   3.778  13.890  0.4630  0.3327 -0.3577
 7770TIP3   OH244800   5.616   1.448   0.714 -0.7552  0.1093 -0.4336
 7770TIP3    H144801   5.643   1.384   0.648 -1.5954 -1.5865  0.7922
 7770TIP3    H244802   5.695   1.500   0.731  0.0170 -0.7258 -1.3328
 7771TIP3   OH244803   0.733   1.073  12.446 -0.2814 -0.1367 -1.0403
 7771TIP3    H144804   0.704   1.164  12.442 -2.7057 -0.6619  1.3319
 7771TIP3    H244805   0.828   1.078  12.452 -0.4166  2.3590  0.5891
 7772TIP3   OH244806   2.328   4.708   1.517 -0.4851  0.5687 -0.4365
 7772TIP3    H144807   2.408   4.691   1.568  0.2377  0.9501 -1.4029
 7772TIP3    H244808   2.315   4.803   1.525 -1.8209  0.2891  1.0909
 7773TIP3   OH244809   1.853   1.834   0.463 -0.1963  0.2398  0.1548
 7773TIP3    H144810   1.790   1.850   0.533  0.3173  3.2328  0.0588
 7773TIP3    H244811   1.852   1.914   0.410  2.1900 -0.4000 -1.0381
 7774TIP3   OH244812   0.827   1.666   2.697  0.0065  0.1552 -0.0937
 7774TIP3    H144813   0.805   1.611   2.772  2.8019 -1.0628 -0.0215
 7774TIP3    H244814   0.832   1.605   2.624 -2.9632  1.3724 -1.4422
 7775TIP3   OH244815   3.672   1.511  16.768  0.2342  0.1304  0.3020
 7775TIP3    H144816   3.651   1.567  16.693 -0.3960 -0.3203  0.1291
 7775TIP3    H244817   3.703   1.429  16.729  2.2140  0.7225  0.5560
 7776TIP3   OH244818   4.692   5.548  15.916  0.4385  0.4067 -0.3770
 7776TIP3    H144819   4.743   5.584  15.844 -1.0546  1.4746 -0.9349
 7776TIP3    H244820   4.703   5.612  15.987 -0.4138  0.8416 -0.6280
 7777TIP3   OH244821   5.019   4.950   1.256 -0.2862  0.2573 -0.5223
 7777TIP3    H144822   5.071   4.965   1.336 -1.2289  1.2757 -0.0877
 7777TIP3    H244823   5.035   5.027   1.202 -0.8024  0.2600 -0.6748
 7778TIP3   OH244824   5.943   1.464  12.885 -0.0060  0.1736  0.1063
 7778TIP3    H144825   5.906   1.552  12.875 -1.2465 -0.3392  0.0283
 7778TIP3    H244826   5.993   1.468  12.967  0.9286  1.2550 -0.4762
 7779TIP3   OH244827   0.442   3.713  12.758 -0.1181  0.3639  0.3389
 7779TIP3    H144828   0.507   3.755  12.701 -2.6318 -0.2446 -3.2920
 7779TIP3    H244829   0.361   3.760  12.741 -1.6533 -1.8923  1.0168
 7780TIP3   OH244830   6.008   1.053   4.322  0.1830  0.5415  0.3932
 7780TIP3    H144831   6.018   0.999   4.244 -0.5554  1.3980 -0.3208
 7780TIP3    H244832   6.095   1.090   4.337 -0.3824  3.4066 -2.3528
 7781TIP3   OH244833   2.531   4.456   3.579 -0.4845  0.3959 -0.6678
 7781TIP3    H144834   2.541   4.363   3.555  0.6180  1.0700 -3.1246
 7781TIP3    H244835   2.574   4.462   3.665 -0.9206 -1.4269 -0.2646
 7782TIP3   OH244836   3.525   6.384   3.740 -0.4288  0.2121  0.6818
 7782TIP3    H144837   3.542   6.383   3.646  0.7604  0.5652  0.8825
 7782TIP3    H244838   3.508   6.292   3.762 -0.4777  0.0939  0.1716
 7783TIP3   OH244839   6.184   4.037  11.928  0.4935 -0.0279  0.4940
 7783TIP3    H144840   6.123   3.971  11.897  1.0334 -0.9100  1.2412
 7783TIP3    H244841   6.147   4.068  12.011  0.8137 -0.2321  0.7176
 7784TIP3   OH244842   5.867   0.847  12.168  0.7846  0.6039  0.0307
 7784TIP3    H144843   5.836   0.771  12.118 -1.4596  0.7133  1.1226
 7784TIP3    H244844   5.938   0.812  12.222 -0.0323 -0.6711  0.3269
 7785TIP3   OH244845   1.177   5.723   1.532 -0.2225  0.3759  0.0863
 7785TIP3    H144846   1.096   5.756   1.571 -0.4399 -0.4665  0.3688
 7785TIP3    H244847   1.148   5.668   1.459  0.0406 -0.5833  0.6797
 7786TIP3   OH244848   0.414   0.392   2.469 -0.0103  0.1936 -0.4025
 7786TIP3    H144849   0.363   0.466   2.501  1.4743  1.3719 -0.6630
 7786TIP3    H244850   0.493   0.431   2.433  0.8333 -1.5292 -0.5162
 7787TIP3   OH244851   6.513   4.652  11.166  0.0610 -0.2000  0.2083
 7787TIP3    H144852   6.522   4.691  11.253  2.4083  0.6773 -0.3441
 7787TIP3    H244853   6.469   4.569  11.181 -1.8421  1.0167  1.8882
 7788TIP3   OH244854   4.820   6.217   4.359  0.3967 -0.3671  0.9588
 7788TIP3    H144855   4.784   6.170   4.284 -0.6946  1.3501  0.3346
 7788TIP3    H244856   4.867   6.151   4.409  0.7393 -1.6698 -0.9748
 7789TIP3   OH244857   6.713   4.504  10.591 -0.0096 -0.3551  0.2223
 7789TIP3    H144858   6.740   4.417  10.563  1.2939  0.2671 -0.5462
 7789TIP3    H244859   6.729   4.561  10.516 -2.1963  0.3403  0.2031
 7790TIP3   OH244860   4.521   4.530   5.634 -0.3373 -0.3915  0.0148
 7790TIP3    H144861   4.615   4.535   5.622 -0.3848  0.5494 -0.0661
 7790TIP3    H244862   4.486   4.525   5.545 -0.5054  2.9213 -0.2556
 7791TIP3   OH244863   6.032   2.615   3.796  0.1939  0.6494  0.4119
 7791TIP3    H144864   5.964   2.612   3.864 -0.0235 -0.4989  0.1591
 7791TIP3    H244865   6.051   2.523   3.778 -0.9434  0.8653 -2.2834
 7792TIP3   OH244866   1.479   3.446  16.801  0.3917  1.1726 -0.0053
 7792TIP3    H144867   1.510   3.435  16.711 -0.1320 -0.8215  0.0063
 7792TIP3    H244868   1.413   3.515  16.796 -1.2698 -0.4323 -1.6228
 7793TIP3   OH244869   3.086   6.314  11.616  0.0852 -0.0532  0.0811
 7793TIP3    H144870   3.079   6.278  11.705  0.4839 -0.2335  0.0449
 7793TIP3    H244871   3.144   6.253  11.571  1.2018  0.9114  0.1625
 7794TIP3   OH244872   0.419   2.226   6.677  0.7175 -0.4859  0.3507
 7794TIP3    H144873   0.493   2.262   6.726  0.5186 -0.8629  0.9257
 7794TIP3    H244874   0.459   2.180   6.604  0.9785  1.1838 -0.6276
 7795TIP3   OH244875   2.599   4.553  16.409 -0.0317  0.3500  0.0179
 7795TIP3    H144876   2.525   4.539  16.349 -0.4070 -0.3501  0.6308
 7795TIP3    H244877   2.641   4.468  16.416 -1.0079 -0.0221  2.0646
 7796TIP3   OH244878   1.618   5.467   4.634 -0.2300  0.0188  0.2680
 7796TIP3    H144879   1.548   5.471   4.570 -0.5831  0.1239  0.6555
 7796TIP3    H244880   1.607   5.547   4.686  0.2801  0.1227  0.2249
 7797TIP3   OH244881   1.016   2.940  12.587 -0.1727  0.0783  0.2996
 7797TIP3    H144882   0.928   2.948  12.626  0.1092 -0.1032  0.9853
 7797TIP3    H244883   1.003   2.884  12.511 -0.7323  0.4155  0.1387
 7798TIP3   OH244884   2.112   0.973  12.510 -0.0401 -0.6070  0.5340
 7798TIP3    H144885   2.036   0.923  12.541 -0.7583  1.2707  1.9538
 7798TIP3    H244886   2.112   1.053  12.563  0.8363  1.1088 -1.8891
 7799TIP3   OH244887   2.279   2.525   2.388 -0.0753  0.1449  0.1086
 7799TIP3    H144888   2.325   2.577   2.454 -1.3477  0.2459  0.9653
 7799TIP3    H244889   2.310   2.559   2.304  2.0115 -0.3737  0.6269
 7800TIP3   OH244890   3.607   0.470  13.124 -0.4516  0.4345  0.1910
 7800TIP3    H144891   3.571   0.383  13.109  0.6171  0.1676 -0.9334
 7800TIP3    H244892   3.672   0.457  13.194  0.2301  0.1743 -0.4777
 7801TIP3   OH244893   2.253   2.818  13.268  0.6741 -0.1512  0.0367
 7801TIP3    H144894   2.247   2.878  13.342  2.0712  0.5049 -0.3445
 7801TIP3    H244895   2.263   2.731  13.307 -2.5702 -0.3966  0.6162
 7802TIP3   OH244896   6.674   2.734  16.988  0.1745  0.0400 -0.1654
 7802TIP3    H144897   6.609   2.804  16.998 -0.8062 -0.7461 -0.8921
 7802TIP3    H244898   6.690   2.729  16.894 -0.2974 -1.1655 -0.2044
 7803TIP3   OH244899   5.107   0.425  12.819 -0.4071  0.2175  0.0471
 7803TIP3    H144900   5.165   0.372  12.875 -0.3590 -0.3121 -0.4924
 7803TIP3    H244901   5.100   0.509  12.865 -0.1097 -0.0956  0.6842
 7804TIP3   OH244902   4.683   2.669  15.083  0.0779  0.4176 -0.1652
 7804TIP3    H144903   4.635   2.740  15.041 -0.0793 -0.1842 -1.0210
 7804TIP3    H244904   4.704   2.608  15.013  0.0906 -0.4573  0.5687
 7805TIP3   OH244905   1.706   5.108   3.932  0.3812 -0.4254  0.3498
 7805TIP3    H144906   1.709   5.100   4.027  1.6121 -1.1760  0.2710
 7805TIP3    H244907   1.665   5.027   3.902 -0.0172 -0.1845  0.2319
 7806TIP3   OH244908   0.302   4.082  15.301  0.0686  0.4875  0.0888
 7806TIP3    H144909   0.231   4.135  15.336 -0.2468  1.6371 -2.1353
 7806TIP3    H244910   0.263   4.036  15.227  1.3073  0.0897 -0.3392
 7807TIP3   OH244911   1.553   1.402  15.206 -0.2125  0.1150 -0.0323
 7807TIP3    H144912   1.593   1.334  15.261 -0.2310  0.5493  0.5218
 7807TIP3    H244913   1.493   1.354  15.149  0.4798 -0.4518 -0.3005
 7808TIP3   OH244914   0.134   5.229  13.063 -0.2909  0.1662 -0.1593
 7808TIP3    H144915   0.133   5.260  13.154 -1.0005 -1.2071  0.3389
 7808TIP3    H244916   0.135   5.308  13.010 -1.0735  1.0154  1.0431
 7809TIP3   OH244917   3.668   3.586  14.927  0.7400  0.1584  0.7725
 7809TIP3    H144918   3.595   3.535  14.892  0.5888 -1.2196  2.9555
 7809TIP3    H244919   3.741   3.567  14.868  0.3341 -1.5714  0.7709
 7810TIP3   OH244920   0.357   1.875   3.150 -0.0407  0.1061  0.5707
 7810TIP3    H144921   0.346   1.782   3.173  2.6215  0.3819  3.8238
 7810TIP3    H244922   0.401   1.874   3.065  1.6380 -1.7764  1.3726
 7811TIP3   OH244923   0.319   1.584   2.387 -0.0654 -0.0675 -0.5042
 7811TIP3    H144924   0.273   1.510   2.345  0.3454 -1.5484  1.5088
 7811TIP3    H244925   0.249   1.646   2.409 -0.5377 -0.2781 -1.3465
 7812TIP3   OH244926   0.139   3.157  12.055  0.1186 -0.4336 -0.3440
 7812TIP3    H144927   0.219   3.148  12.003  0.9477  0.0806  0.7891
 7812TIP3    H244928   0.169   3.151  12.146 -1.1746 -0.5043  0.0948
 7813TIP3   OH244929   1.289   5.870   2.699  0.3434  0.0953  0.4556
 7813TIP3    H144930   1.292   5.960   2.731  0.4715  0.8013 -1.4361
 7813TIP3    H244931   1.288   5.816   2.779  0.7198  1.7346  1.6148
 7814TIP3   OH244932   3.079   3.077  15.219  0.0308  0.2894  0.3351
 7814TIP3    H144933   3.122   3.160  15.199 -0.5386  0.3956 -0.4730
 7814TIP3    H244934   3.150   3.013  15.222  0.3002  0.5359 -0.5544
 7815TIP3   OH244935   4.392   1.171  10.532  0.2436  0.3767 -0.1708
 7815TIP3    H144936   4.324   1.111  10.500 -0.4047  0.6396  0.6885
 7815TIP3    H244937   4.344   1.238  10.580  1.1428  0.3304  0.8232
 7816TIP3   OH244938   3.866   4.266  11.025 -0.2773  0.8408  0.2110
 7816TIP3    H144939   3.806   4.329  10.985 -1.9032 -0.7358  0.0340
 7816TIP3    H244940   3.814   4.187  11.036  1.7946 -0.6257  0.0660
 7817TIP3   OH244941   0.863   1.640  12.077  0.0453 -0.1926 -0.1328
 7817TIP3    H144942   0.940   1.586  12.095  0.8239  0.6903 -0.7223
 7817TIP3    H244943   0.795   1.578  12.051 -0.0130 -1.1640  2.1051
 7818TIP3   OH244944   4.461   0.829  16.482 -0.0060  0.2914 -0.4003
 7818TIP3    H144945   4.412   0.753  16.451  0.4357 -0.2150  0.1211
 7818TIP3    H244946   4.548   0.820  16.444 -0.5888  1.7649 -2.2135
 7819TIP3   OH244947   6.517   1.399  16.401  0.1117  0.1410  0.8817
 7819TIP3    H144948   6.489   1.390  16.310  0.6553 -0.0108  0.7241
 7819TIP3    H244949   6.611   1.381  16.398  1.2928  5.0182  0.6335
 7820TIP3   OH244950   5.366   2.943   5.625 -0.5747  0.4402 -0.5011
 7820TIP3    H144951   5.459   2.928   5.642 -0.3134  1.0731 -1.2914
 7820TIP3    H244952   5.336   2.995   5.699 -0.8335 -1.5062  0.8497
 7821TIP3   OH244953   4.273   0.398   0.814  0.0844  0.8005  0.0089
 7821TIP3    H144954   4.279   0.464   0.883  0.2116  1.1984 -0.3751
 7821TIP3    H244955   4.191   0.417   0.768  0.6135  1.3442 -0.7432
 7822TIP3   OH244956   3.742   1.424   0.514  0.0460  0.1448 -0.4039
 7822TIP3    H144957   3.785   1.487   0.456 -0.4059  0.9393  0.1079
 7822TIP3    H244958   3.730   1.471   0.596 -1.5323 -0.1466 -0.4377
 7823TIP3   OH244959   3.814   0.908  11.023 -0.3338  0.4187  0.4941
 7823TIP3    H144960   3.796   1.002  11.031 -0.9837  0.4565 -1.0544
 7823TIP3    H244961   3.885   0.903  10.960 -0.8109 -0.1591 -0.0093
 7824TIP3   OH244962   6.744   3.172   6.098 -0.0875  0.4648  0.0033
 7824TIP3    H144963   6.658   3.137   6.072  1.0211 -0.7744 -2.2688
 7824TIP3    H244964   6.723   3.254   6.143 -2.4024  1.4603 -2.6111
 7825TIP3   OH244965   3.866   4.680   6.001 -0.4110  0.0534 -0.3139
 7825TIP3    H144966   3.944   4.717   5.959 -0.9324 -1.1210 -2.4538
 7825TIP3    H244967   3.840   4.607   5.944 -3.3855  0.7415 -0.0176
 7826TIP3   OH244968   2.494   1.758   5.936 -0.5510 -0.2908  0.5243
 7826TIP3    H144969   2.588   1.760   5.915 -0.9400  0.5614 -1.3215
 7826TIP3    H244970   2.478   1.667   5.960  0.5507 -0.7087 -0.2109
 7827TIP3   OH244971   5.390   3.857   1.277  0.3419 -0.6264 -0.6538
 7827TIP3    H144972   5.397   3.950   1.301  1.6313 -0.7724 -0.4186
 7827TIP3    H244973   5.397   3.857   1.181  1.6289 -0.5599 -0.5836
 7828TIP3   OH244974   1.831   1.197   5.282  0.2080  0.1692  0.1649
 7828TIP3    H144975   1.884   1.269   5.247 -0.9180  0.6125 -0.7289
 7828TIP3    H244976   1.773   1.239   5.346 -1.6260  0.4558 -1.5573
 7829TIP3   OH244977   1.078   2.671  14.406 -0.2052 -0.4361  0.2135
 7829TIP3    H144978   1.162   2.671  14.360 -0.6724  3.1732 -0.9368
 7829TIP3    H244979   1.101   2.681  14.498  0.6874  1.3756 -0.1640
 7830TIP3   OH244980   3.980   2.257  16.682  0.0355 -0.7209  0.1347
 7830TIP3    H144981   3.976   2.161  16.676 -1.6243 -0.6545 -0.2764
 7830TIP3    H244982   3.947   2.288  16.597  0.6332  0.2320  0.2306
 7831TIP3   OH244983   4.245   4.304   5.507  0.1752  0.2676 -0.2174
 7831TIP3    H144984   4.305   4.328   5.437  0.3877  0.5079  0.0428
 7831TIP3    H244985   4.173   4.367   5.500  0.1337  0.2113 -0.2995
 7832TIP3   OH244986   5.549   4.029   5.450  0.1195 -0.4819  0.0788
 7832TIP3    H144987   5.571   4.071   5.366 -1.0753 -0.1385 -0.0770
 7832TIP3    H244988   5.634   4.012   5.491  0.6839  1.1244 -0.3441
 7833TIP3   OH244989   6.124   4.510   2.076  0.2526 -0.0796  0.1885
 7833TIP3    H144990   6.122   4.605   2.064 -0.6499 -0.2373 -1.2643
 7833TIP3    H244991   6.123   4.497   2.170 -0.6158  1.3627  0.4142
 7834TIP3   OH244992   4.267   1.051   1.235  0.0362 -0.2913 -0.3035
 7834TIP3    H144993   4.295   1.031   1.325 -0.0505 -0.1190 -0.2396
 7834TIP3    H244994   4.308   1.135   1.215 -1.0036  0.3081  0.0401
 7835TIP3   OH244995   6.798   1.214  12.821  0.2381 -0.0930 -0.7289
 7835TIP3    H144996   6.780   1.299  12.861  1.8951  0.3375 -0.8284
 7835TIP3    H244997   6.715   1.167  12.827  0.0139  0.4776  1.9139
 7836TIP3   OH244998   0.215   5.378  15.522 -0.2153  0.0645  0.0883
 7836TIP3    H144999   0.274   5.399  15.449 -1.5848  0.9078 -0.8219
 7836TIP3    H245000   0.253   5.422  15.597  1.6031 -1.3759  0.0919
 7837TIP3   OH245001   1.412   0.770  13.527  0.7750 -0.5571  0.1858
 7837TIP3    H145002   1.441   0.693  13.478 -1.1726  0.3534 -2.6639
 7837TIP3    H245003   1.323   0.786  13.496  1.4268  3.3889 -0.1784
 7838TIP3   OH245004   5.057   0.421   5.935 -0.4383 -0.2048  0.5113
 7838TIP3    H145005   4.976   0.468   5.952 -0.7147 -0.1348 -0.8607
 7838TIP3    H245006   5.030   0.330   5.925 -0.3247 -0.2076  0.2241
 7839TIP3   OH245007   3.011   3.140   1.756 -0.3808  0.7664  0.5554
 7839TIP3    H145008   3.009   3.182   1.842 -1.1506  0.0626  0.8953
 7839TIP3    H245009   2.980   3.051   1.772  0.5087  0.2847 -0.2714
 7840TIP3   OH245010   1.141   0.889   6.021 -0.8281 -0.1904  0.3644
 7840TIP3    H145011   1.174   0.978   6.015 -1.2146 -0.0080  0.8976
 7840TIP3    H245012   1.172   0.857   6.106 -1.6512 -0.1660  0.6796
 7841TIP3   OH245013   0.347   6.711   0.746 -0.9376  0.3160 -0.2483
 7841TIP3    H145014   0.278   6.745   0.804 -0.1674  0.1928  0.7658
 7841TIP3    H245015   0.429   6.736   0.789 -0.3507 -1.0724 -0.5235
 7842TIP3   OH245016   2.481   0.643   6.010  0.5570  0.2122 -0.2565
 7842TIP3    H145017   2.483   0.736   6.033 -0.6990  0.3750 -0.7389
 7842TIP3    H245018   2.413   0.607   6.067 -1.1178  0.2088 -2.1726
 7843TIP3   OH245019   4.480   6.098  14.173  0.5797 -0.4916  0.1599
 7843TIP3    H145020   4.485   6.142  14.087  1.4728 -0.4151  0.2392
 7843TIP3    H245021   4.522   6.013  14.158  0.9817 -0.3696  0.5838
 7844TIP3   OH245022   1.821   3.890   4.819  0.0392 -0.0018  1.1178
 7844TIP3    H145023   1.741   3.939   4.799 -1.0540 -1.5481  1.5224
 7844TIP3    H245024   1.884   3.957   4.845 -1.5982  1.1465  2.3591
 7845TIP3   OH245025   1.857   2.694  12.971 -0.3406 -0.2785  0.0185
 7845TIP3    H145026   1.901   2.612  12.995 -1.1450 -0.6283  0.3550
 7845TIP3    H245027   1.918   2.763  12.994  0.2001 -0.7732  0.0746
 7846TIP3   OH245028   5.798   6.340  12.381 -0.1185  0.4019  0.0066
 7846TIP3    H145029   5.723   6.357  12.324  0.5512 -1.0579 -1.4137
 7846TIP3    H245030   5.787   6.399  12.455 -2.7207  0.1671 -0.1138
 7847TIP3   OH245031   2.656   5.185  10.655 -0.8105 -0.1856  0.6860
 7847TIP3    H145032   2.649   5.110  10.596  1.3110 -0.8209  1.1587
 7847TIP3    H245033   2.577   5.236  10.638 -2.4446 -2.6291  0.5251
 7848TIP3   OH245034   4.602   2.999   5.686  0.3648  0.4848 -0.4076
 7848TIP3    H145035   4.552   2.938   5.632 -0.4475 -0.0716  0.9190
 7848TIP3    H245036   4.541   3.070   5.704 -0.0835 -0.3135  1.4238
 7849TIP3   OH245037   3.182   4.937   3.711 -0.5115 -0.7352 -0.0565
 7849TIP3    H145038   3.098   4.893   3.716 -0.3852 -1.1465 -1.1202
 7849TIP3    H245039   3.241   4.885   3.765 -0.7480 -0.9093  0.0327
 7850TIP3   OH245040   0.221   5.339   3.732 -0.0595  0.3713 -0.2225
 7850TIP3    H145041   0.155   5.347   3.801  0.8000 -0.9266  0.7986
 7850TIP3    H245042   0.283   5.410   3.750 -1.2017  1.6824 -1.2690
 7851TIP3   OH245043   3.132   4.016  11.508  0.4251  0.2680 -0.7598
 7851TIP3    H145044   3.183   3.974  11.439  2.0952  1.3836 -0.2675
 7851TIP3    H245045   3.101   3.943  11.562 -0.1427 -0.5507 -2.1398
 7852TIP3   OH245046   3.141   4.199  10.941  0.5908  0.1761  0.3087
 7852TIP3    H145047   3.176   4.123  10.988  2.0798  0.2886 -0.5572
 7852TIP3    H245048   3.046   4.191  10.950  0.7801 -0.5585  2.1209
 7853TIP3   OH245049   0.006   1.840   6.026  0.1633  0.5714  0.1545
 7853TIP3    H145050   0.066   1.775   6.061  0.6421  0.7423 -0.3330
 7853TIP3    H245051  -0.023   1.890   6.103 -2.3274 -1.8623  0.9746
 7854TIP3   OH245052   2.979   2.593  15.924 -0.3353 -0.5563  0.0102
 7854TIP3    H145053   2.984   2.506  15.886 -1.5175 -0.9406  0.6962
 7854TIP3    H245054   2.926   2.644  15.863  1.2308  0.0115 -0.9327
 7855TIP3   OH245055   2.006   2.512   3.192  0.2949  0.7367 -0.3000
 7855TIP3    H145056   2.071   2.442   3.195  0.4749  0.8531 -1.2471
 7855TIP3    H245057   1.949   2.496   3.267  0.8407  0.0677 -0.0290
 7856TIP3   OH245058   4.599   2.260   0.305  0.2793  0.1239 -0.1739
 7856TIP3    H145059   4.559   2.323   0.365  0.2495 -0.3968  0.3581
 7856TIP3    H245060   4.641   2.196   0.362  1.0764  0.1452 -0.7168
 7857TIP3   OH245061   0.556   5.893  15.381 -0.6025  0.0124 -0.0403
 7857TIP3    H145062   0.585   5.921  15.467 -1.2956 -0.2602  0.2886
 7857TIP3    H245063   0.461   5.891  15.386 -0.6280 -1.0096 -0.4851
 7858TIP3   OH245064   5.101   5.289  15.898 -0.5828 -0.3740 -0.1456
 7858TIP3    H145065   5.006   5.289  15.886 -0.5149 -1.3102 -0.8015
 7858TIP3    H245066   5.136   5.265  15.812  0.3282  1.2805 -0.2936
 7859TIP3   OH245067   2.971   2.935   0.991  0.7863 -0.1398  0.2500
 7859TIP3    H145068   2.969   3.016   0.940 -0.2025 -0.1564  0.2515
 7859TIP3    H245069   2.926   2.957   1.073  0.0485 -0.8382  0.0309
 7860TIP3   OH245070   2.172   4.236   4.989  0.4225 -0.2480  0.4937
 7860TIP3    H145071   2.219   4.178   5.049  0.0942  1.1090  2.1508
 7860TIP3    H245072   2.090   4.255   5.035  0.0515  0.6378 -0.5139
 7861TIP3   OH245073   3.326   5.817  13.367 -0.4039  0.1312 -0.7650
 7861TIP3    H145074   3.356   5.747  13.310 -1.5628  0.2003 -1.4952
 7861TIP3    H245075   3.232   5.825  13.349 -0.6257  0.7650  0.4997
 7862TIP3   OH245076   2.924   4.316   4.001 -0.7081 -0.1088  0.0307
 7862TIP3    H145077   2.941   4.354   4.087 -2.6093 -0.0598  0.4230
 7862TIP3    H245078   2.921   4.221   4.018 -0.6468 -0.1249 -0.0526
 7863TIP3   OH245079   6.290   0.568  11.828 -0.6935  0.2389 -0.5470
 7863TIP3    H145080   6.204   0.532  11.808 -0.2423 -0.3090 -1.5171
 7863TIP3    H245081   6.278   0.609  11.914 -2.1416  0.9106 -1.0215
 7864TIP3   OH245082   3.296   6.290   1.784 -0.3250 -0.5531 -0.3905
 7864TIP3    H145083   3.259   6.237   1.854  0.4692 -0.2059  0.3029
 7864TIP3    H245084   3.244   6.370   1.785  0.7981  0.2007  1.0008
 7865TIP3   OH245085   3.237   5.997   4.489 -0.4582  0.4494 -0.7296
 7865TIP3    H145086   3.174   5.944   4.537  0.4638  1.4109  1.7059
 7865TIP3    H245087   3.204   6.087   4.497  1.7871  1.1755  1.8160
 7866TIP3   OH245088   2.122   3.502   4.417 -0.0440 -0.5146  0.3842
 7866TIP3    H145089   2.038   3.532   4.383  0.3288  0.0389 -0.0741
 7866TIP3    H245090   2.187   3.553   4.369  0.7114 -3.0976 -1.5206
 7867TIP3   OH245091   6.486   6.499   3.807  0.9879  0.6739  0.2428
 7867TIP3    H145092   6.519   6.550   3.880  1.8267  0.9162 -0.2946
 7867TIP3    H245093   6.504   6.408   3.831  0.3109  0.6791  0.7955
 7868TIP3   OH245094   1.280   1.696  16.078  1.1181 -0.0039 -0.5838
 7868TIP3    H145095   1.350   1.642  16.041  0.9759 -0.9909  0.5232
 7868TIP3    H245096   1.271   1.665  16.168  1.5160  2.3726  0.3418
 7869TIP3   OH245097   0.675   1.542  13.103 -0.3009 -0.2663 -0.6735
 7869TIP3    H145098   0.738   1.482  13.144 -1.6933 -0.7944  0.7746
 7869TIP3    H245099   0.687   1.625  13.151  0.4432  0.1476 -1.5426
 7870TIP3   OH245100   2.867   5.508  14.244  0.0941 -0.4304  0.0001
 7870TIP3    H145101   2.774   5.499  14.260  0.3187 -2.1280  0.5599
 7870TIP3    H245102   2.905   5.532  14.329  0.2333 -0.2292 -0.1154
 7871TIP3   OH245103   0.288   4.397  12.685 -0.1657  0.5643  0.1726
 7871TIP3    H145104   0.377   4.419  12.658  0.0078  1.0286  1.0912
 7871TIP3    H245105   0.299   4.350  12.767 -0.5859 -2.1548 -1.2062
 7872TIP3   OH245106   6.393   2.441  13.112  0.2345 -0.1249  0.1163
 7872TIP3    H145107   6.456   2.371  13.130 -0.2528 -1.3050 -2.3318
 7872TIP3    H245108   6.316   2.418  13.164  0.7278 -0.3943  0.7348
 7873TIP3   OH245109   4.319   2.856  11.043 -0.6792 -0.3307 -0.6103
 7873TIP3    H145110   4.258   2.867  10.970 -0.4907 -1.1825 -0.9064
 7873TIP3    H245111   4.401   2.895  11.013 -1.1603  1.1311 -0.0797
 7874TIP3   OH245112   4.242   5.683   6.604  0.1485  0.1143  0.0303
 7874TIP3    H145113   4.308   5.711   6.540  1.4786 -1.3239  0.7067
 7874TIP3    H245114   4.268   5.594   6.627  0.3352  0.8904  3.3136
 7875TIP3   OH245115   5.972   3.600  14.450 -0.2615 -0.0812 -0.6025
 7875TIP3    H145116   5.905   3.604  14.518 -1.2331  0.3957 -1.5639
 7875TIP3    H245117   6.026   3.524  14.474 -2.3234 -1.7227 -0.8608
 7876TIP3   OH245118   1.434   4.487  16.831  0.0593 -0.1012  0.1880
 7876TIP3    H145119   1.346   4.449  16.821  0.3820 -0.9449  0.4351
 7876TIP3    H245120   1.457   4.469  16.922  0.6468 -0.2394  0.0162
 7877TIP3   OH245121   6.379   6.553  14.509 -0.3603  0.3772  0.3471
 7877TIP3    H145122   6.425   6.480  14.468 -0.2606 -0.0238  1.1585
 7877TIP3    H245123   6.298   6.561  14.458 -0.5094 -0.4861  0.4318
 7878TIP3   OH245124   5.716   5.598  13.548  0.6044  0.1095 -0.0630
 7878TIP3    H145125   5.780   5.644  13.494 -0.1413  2.2525  0.7735
 7878TIP3    H245126   5.632   5.620  13.510  0.2159 -0.4674  0.4421
 7879TIP3   OH245127   6.307   1.531  16.517  0.0663 -0.4586 -0.9385
 7879TIP3    H145128   6.384   1.509  16.464  0.7393 -2.3575  0.6881
 7879TIP3    H245129   6.239   1.472  16.485 -0.0212 -0.4200 -0.8212
 7880TIP3   OH245130   0.023   3.905   6.061 -0.1915 -0.0027 -0.0660
 7880TIP3    H145131   0.108   3.892   6.102 -0.2729 -0.2930  0.0136
 7880TIP3    H245132  -0.013   3.983   6.103 -0.1502 -0.1300  0.2099
 7881TIP3   OH245133   4.171   1.291   5.564  0.4011  0.1593  0.5206
 7881TIP3    H145134   4.151   1.237   5.641  0.6121  0.1223  0.5503
 7881TIP3    H245135   4.164   1.381   5.596 -0.4935  0.1613  0.3344
 7882TIP3   OH245136   6.754   5.336  14.653  1.1030 -0.1325 -0.0783
 7882TIP3    H145137   6.804   5.350  14.572  0.2563  0.8189 -0.4614
 7882TIP3    H245138   6.744   5.241  14.659  2.7769 -0.3486 -0.0819
 7883TIP3   OH245139   3.031   1.787   6.125 -0.5246 -0.1914  0.2410
 7883TIP3    H145140   2.939   1.803   6.144 -0.0599  0.9711  1.7634
 7883TIP3    H245141   3.062   1.731   6.196  0.8784  2.9037  2.2907
 7884TIP3   OH245142   3.018   5.189  11.188  0.7487 -0.8282  0.4404
 7884TIP3    H145143   2.987   5.102  11.216  1.7932 -1.2059  0.4488
 7884TIP3    H245144   3.113   5.182  11.187  0.8160 -0.0711 -0.8318
 7885TIP3   OH245145   6.494   5.754  14.384 -0.2527 -0.1670 -0.2075
 7885TIP3    H145146   6.401   5.776  14.385 -0.7661 -2.2149  1.0550
 7885TIP3    H245147   6.536   5.833  14.348 -2.3254  1.2758  0.3271
 7886TIP3   OH245148   0.665   6.540   0.677 -0.1609 -0.6076 -0.2533
 7886TIP3    H145149   0.597   6.482   0.643 -1.1479 -0.2136  0.9711
 7886TIP3    H245150   0.617   6.605   0.729  1.0804  0.2035 -0.0813
 7887TIP3   OH245151   1.470   6.718   4.486  0.1043  0.3411  0.3491
 7887TIP3    H145152   1.441   6.635   4.523  0.7890  0.4261  1.0969
 7887TIP3    H245153   1.558   6.700   4.454 -0.4864  0.2508 -1.3344
 7888TIP3   OH245154   6.681   2.355   3.336 -0.2636  0.1798 -0.1835
 7888TIP3    H145155   6.676   2.386   3.427  2.5570 -0.1347  0.1858
 7888TIP3    H245156   6.656   2.263   3.340  1.8508 -0.4292  0.7569
 7889TIP3   OH245157   0.495   4.799   4.267 -0.6046  0.1792  0.0077
 7889TIP3    H145158   0.484   4.865   4.198 -0.9736 -0.6852 -0.7897
 7889TIP3    H245159   0.413   4.802   4.316 -0.3713  0.7446  0.3749
 7890TIP3   OH245160   0.937   0.091  13.840 -0.0809  0.4861 -0.3661
 7890TIP3    H145161   0.903   0.166  13.792  0.4490  0.7852 -0.2868
 7890TIP3    H245162   1.028   0.115  13.861  0.4760 -0.6535 -1.3500
 7891TIP3   OH245163   6.769   4.334  16.681  0.2505  0.5218  0.1613
 7891TIP3    H145164   6.863   4.333  16.664  0.6209  1.4327  1.9333
 7891TIP3    H245165   6.756   4.406  16.743 -1.6551  0.5827 -0.2469
 7892TIP3   OH245166   4.697   5.571  10.996  0.4112 -0.5494  0.3427
 7892TIP3    H145167   4.717   5.482  10.968 -0.8154 -0.5464 -0.6290
 7892TIP3    H245168   4.740   5.628  10.932  1.3936 -0.4111  1.0962
 7893TIP3   OH245169   3.342   5.925  16.065  0.1647  0.1391  0.0378
 7893TIP3    H145170   3.272   5.953  16.124  0.6953  0.0483  0.7268
 7893TIP3    H245171   3.421   5.932  16.118  0.4636 -1.4665 -0.1463
 7894TIP3   OH245172   1.575   5.207   2.643 -0.8480  0.1627  0.0933
 7894TIP3    H145173   1.580   5.258   2.723 -1.7958  0.2696  0.0974
 7894TIP3    H245174   1.559   5.117   2.672 -0.1956  0.0218  0.0476
 7895TIP3   OH245175   6.590   0.051  13.774  0.2915 -0.1179 -0.4631
 7895TIP3    H145176   6.582   0.001  13.855  1.2786 -0.7869 -0.7597
 7895TIP3    H245177   6.575  -0.014  13.704 -2.7636  0.8393 -0.8609
 7896TIP3   OH245178   6.560   5.121   5.140 -0.0788  0.4620 -0.2711
 7896TIP3    H145179   6.595   5.136   5.228 -0.7604 -0.5440  0.1855
 7896TIP3    H245180   6.533   5.208   5.110  0.4182  0.8559  0.4001
 7897TIP3   OH245181   0.962   0.530   0.357  0.2758 -0.3440  0.1916
 7897TIP3    H145182   1.017   0.532   0.435  1.2770 -1.8206 -0.4433
 7897TIP3    H245183   0.920   0.444   0.358  1.4367 -0.9951 -1.6170
 7898TIP3   OH245184   1.456   0.256  11.977  0.0633  0.0904 -0.0427
 7898TIP3    H145185   1.364   0.282  11.975  0.1561  0.6439  1.5054
 7898TIP3    H245186   1.453   0.161  11.986 -0.5491  0.3007  4.1517
 7899TIP3   OH245187   6.012   1.953  14.225  0.0546  0.4285  0.2806
 7899TIP3    H145188   6.020   1.873  14.277  3.9374  0.1528 -0.4922
 7899TIP3    H245189   5.980   1.924  14.140  3.9342 -0.9645 -0.9190
 7900TIP3   OH245190   5.007   4.575   6.033 -0.0456 -0.1976  0.2419
 7900TIP3    H145191   4.972   4.542   6.116 -2.7531  0.3419 -0.6107
 7900TIP3    H245192   4.939   4.557   5.969  0.6842  2.1178 -1.3168
 7901TIP3   OH245193   4.100   2.723  16.109  0.6728 -0.1816  0.6102
 7901TIP3    H145194   4.125   2.793  16.048 -1.3164 -1.1032 -1.4388
 7901TIP3    H245195   4.023   2.757  16.153 -0.4421 -1.0806 -0.5636
 7902TIP3   OH245196   1.245   3.725   3.745 -0.4219 -0.8114 -0.0437
 7902TIP3    H145197   1.154   3.753   3.745  0.4588  2.6037 -1.5189
 7902TIP3    H245198   1.264   3.705   3.653  0.9631  1.3339 -0.2936
 7903TIP3   OH245199   6.486   6.735  15.278  0.1512  0.1370 -0.2836
 7903TIP3    H145200   6.432   6.692  15.344  2.6065  0.9737  2.5224
 7903TIP3    H245201   6.424   6.774  15.217 -2.2964 -0.7310  1.5019
 7904TIP3   OH245202   4.829   4.502   6.647 -0.2863  0.2778 -0.7235
 7904TIP3    H145203   4.817   4.560   6.572 -0.1142 -0.3484 -1.2425
 7904TIP3    H245204   4.755   4.441   6.642 -0.8917  0.8986  0.2488
 7905TIP3   OH245205   4.548   5.200  14.380  1.0379 -0.5123  0.3998
 7905TIP3    H145206   4.594   5.257  14.441 -0.2222 -0.6551  1.5375
 7905TIP3    H245207   4.477   5.254  14.346 -1.0126 -1.7027  2.5244
 7906TIP3   OH245208   2.339   5.590   5.068  1.2892  0.4144 -0.6472
 7906TIP3    H145209   2.341   5.681   5.099  0.3812  0.2165  0.0334
 7906TIP3    H245210   2.362   5.596   4.976  0.4956  1.4404 -0.8023
 7907TIP3   OH245211   0.565   4.305   1.870 -0.0290 -0.4648  0.0327
 7907TIP3    H145212   0.541   4.396   1.852  0.0714 -0.3248  0.6034
 7907TIP3    H245213   0.593   4.271   1.785 -0.1304  0.0162 -0.1990
 7908TIP3   OH245214   0.994   4.203  15.998  0.1562 -0.1927  0.5271
 7908TIP3    H145215   1.013   4.119  16.040 -0.9272  0.0003  1.4529
 7908TIP3    H245216   0.899   4.214  16.007  0.2933  1.2009  0.5923
 7909TIP3   OH245217   3.114   4.385   1.358 -0.3194  0.2826  0.6818
 7909TIP3    H145218   3.134   4.439   1.435 -1.4124  1.2658  0.3003
 7909TIP3    H245219   3.019   4.377   1.358 -0.2448 -0.7722  0.1254
 7910TIP3   OH245220   1.921   0.298  13.051  0.0812  0.7665 -0.0818
 7910TIP3    H145221   1.932   0.305  13.146  1.3239  0.9169 -0.2270
 7910TIP3    H245222   1.959   0.214  13.028 -0.1410  0.7676 -0.4671
 7911TIP3   OH245223   3.665   5.264  11.396  0.2628  0.2159 -0.0772
 7911TIP3    H145224   3.677   5.192  11.458  0.1948 -1.0224 -1.4607
 7911TIP3    H245225   3.738   5.324  11.414 -0.3663  0.4583  1.9121
 7912TIP3   OH245226   3.980   4.090  16.598  0.5467 -0.4320 -0.2515
 7912TIP3    H145227   3.930   4.013  16.625 -2.1351  0.8788 -1.0497
 7912TIP3    H245228   3.972   4.150  16.672  1.1572 -0.2810 -0.3021
 7913TIP3   OH245229   5.064   2.577   0.574 -0.4307 -0.3639 -0.2354
 7913TIP3    H145230   5.102   2.643   0.516 -1.8521  1.0769  0.4147
 7913TIP3    H245231   5.041   2.505   0.517  1.6765 -0.5877 -0.8908
 7914TIP3   OH245232   0.154   4.880   3.250  0.1085  0.8774 -0.6704
 7914TIP3    H145233   0.222   4.875   3.184  0.3219  0.2983 -0.4070
 7914TIP3    H245234   0.082   4.926   3.206  0.3337  0.7063 -1.2268
 7915TIP3   OH245235   0.963   6.280  16.030  0.1933  0.0226  0.0881
 7915TIP3    H145236   0.870   6.303  16.030  0.4530  1.1226  0.1622
 7915TIP3    H245237   0.994   6.306  16.117  0.1525 -2.2310  0.8650
 7916TIP3   OH245238   1.716   4.838  15.419  0.0620 -0.3627  0.2457
 7916TIP3    H145239   1.624   4.843  15.393 -0.4737 -2.5781  1.4822
 7916TIP3    H245240   1.754   4.920  15.388 -1.3357 -1.0964 -4.0566
 7917TIP3   OH245241   3.901   6.519   2.713 -0.0908  0.0160  0.0296
 7917TIP3    H145242   3.884   6.427   2.735  1.4066 -0.9563 -2.5321
 7917TIP3    H245243   3.872   6.529   2.623  2.4557  1.2205 -0.7511
 7918TIP3   OH245244   6.507   2.220   2.451 -0.3172 -0.4082  0.7947
 7918TIP3    H145245   6.454   2.162   2.506 -0.8121 -0.3809  0.3613
 7918TIP3    H245246   6.450   2.296   2.436 -0.1227 -0.3439  0.3854
 7919TIP3   OH245247   0.528   3.789  13.975  0.0046  0.7507 -0.0145
 7919TIP3    H145248   0.458   3.758  13.917 -0.3282  1.8045 -0.1931
 7919TIP3    H245249   0.559   3.870  13.935  1.0333  0.5355  0.3060
 7920TIP3   OH245250   4.716   2.557   1.701 -0.7260 -0.9014  0.5376
 7920TIP3    H145251   4.718   2.497   1.776  1.4970  0.2856  1.5470
 7920TIP3    H245252   4.775   2.517   1.637  0.8618  0.1661  1.2642
 7921TIP3   OH245253   5.994   0.047  16.813 -0.4522 -0.1199 -0.3452
 7921TIP3    H145254   5.963  -0.025  16.758 -1.0204  1.1146 -1.7107
 7921TIP3    H245255   5.914   0.090  16.843 -0.1345 -0.5446  1.1788
 7922TIP3   OH245256   4.442   6.569   0.543 -0.3171  0.2439  0.3999
 7922TIP3    H145257   4.355   6.544   0.575 -0.3246 -0.5152 -0.1913
 7922TIP3    H245258   4.503   6.513   0.590 -0.3434 -1.0271 -1.0147
 7923TIP3   OH245259   0.249   2.276   2.952  0.9141  0.0245 -0.7551
 7923TIP3    H145260   0.175   2.251   3.007  0.7046  0.4499 -0.8441
 7923TIP3    H245261   0.319   2.214   2.977  0.9196  0.3933  0.1914
 7924TIP3   OH245262   1.818   5.885  14.757 -0.0169 -0.3660  0.1134
 7924TIP3    H145263   1.895   5.923  14.799  0.2724  0.2595 -0.9476
 7924TIP3    H245264   1.804   5.802  14.802  0.5387  0.0839  1.1372
 7925TIP3   OH245265   5.080   4.656  16.224  0.1520  0.5483 -0.0313
 7925TIP3    H145266   5.127   4.683  16.303  0.8316  0.3279 -0.3527
 7925TIP3    H245267   5.092   4.728  16.163  1.7338 -0.3202 -0.7936
 7926TIP3   OH245268   3.598   1.926   4.063 -0.1298  0.1541  0.2543
 7926TIP3    H145269   3.529   1.927   4.129  0.4968  0.1470  0.9129
 7926TIP3    H245270   3.639   2.013   4.070 -0.6787  0.5200 -0.7947
 7927TIP3   OH245271   0.795   4.072   4.554  0.8263 -0.0632  0.5247
 7927TIP3    H145272   0.854   4.078   4.629  0.7167  0.8515  0.5528
 7927TIP3    H245273   0.709   4.053   4.592  0.8902 -0.2542  0.5748
 7928TIP3   OH245274   2.587   5.458  15.514  0.2854  0.4351  0.1566
 7928TIP3    H145275   2.529   5.531  15.534  0.1706  0.2588  0.4805
 7928TIP3    H245276   2.675   5.491  15.531  0.1554  0.0819  1.6400
 7929TIP3   OH245277   0.662   2.485   2.829 -0.1099  0.6708  0.2977
 7929TIP3    H145278   0.672   2.477   2.734 -1.1688 -1.0884  0.3103
 7929TIP3    H245279   0.630   2.575   2.842  1.6493  1.5182 -0.8304
 7930TIP3   OH245280   2.200   4.184  15.371 -0.4605 -0.0194 -0.3001
 7930TIP3    H145281   2.249   4.221  15.298  1.7970 -0.2213  1.0295
 7930TIP3    H245282   2.126   4.243  15.382  1.1826  2.1865 -0.4125
 7931TIP3   OH245283   0.142   0.739   4.703  0.1208  0.2775  0.2734
 7931TIP3    H145284   0.128   0.776   4.616  2.7489 -0.1137 -0.3954
 7931TIP3    H245285   0.226   0.776   4.731 -0.3740 -0.1061  2.3836
 7932TIP3   OH245286   4.065   4.951  14.564  0.0961 -0.0738 -0.2670
 7932TIP3    H145287   4.116   4.965  14.643  0.5001 -1.9919 -0.1269
 7932TIP3    H245288   3.976   4.974  14.588  0.3260  0.0080  0.5348
 7933TIP3   OH245289   5.555   1.296  11.861 -0.1803 -0.0320  0.1836
 7933TIP3    H145290   5.513   1.227  11.913 -1.1914 -0.0213 -0.5766
 7933TIP3    H245291   5.574   1.254  11.777  0.9919  0.0841  0.3732
 7934TIP3   OH245292   1.476   5.075  15.528  0.4533 -0.1586  0.3640
 7934TIP3    H145293   1.454   5.005  15.466  1.6191  1.2766 -1.8049
 7934TIP3    H245294   1.393   5.121  15.542  0.1713 -0.4761 -0.2005
 7935TIP3   OH245295   5.451   5.018  12.830  0.1613 -0.6184 -0.2509
 7935TIP3    H145296   5.444   5.038  12.737  0.0106  0.2474 -0.0660
 7935TIP3    H245297   5.537   5.053  12.855 -0.5601  0.8529  0.3134
 7936TIP3   OH245298   4.759   5.466  10.636 -0.1760  0.2763 -0.0770
 7936TIP3    H145299   4.747   5.552  10.596 -0.5889  1.3545  2.2294
 7936TIP3    H245300   4.831   5.479  10.698 -0.0426 -1.1245  0.0828
 7937TIP3   OH245301   3.231   6.263  12.005 -0.1064  0.2676 -0.2178
 7937TIP3    H145302   3.285   6.340  11.985 -1.6798  1.2485 -0.8752
 7937TIP3    H245303   3.162   6.265  11.939 -0.3287 -1.5816 -0.0770
 7938TIP3   OH245304   4.685   2.081   1.811  0.4723 -0.4989  0.0890
 7938TIP3    H145305   4.780   2.075   1.821  0.8149  0.2525 -2.1933
 7938TIP3    H245306   4.656   1.991   1.797  1.1126 -0.5273 -1.1149
 7939TIP3   OH245307   0.970   2.726  12.411  0.0134 -0.2543 -0.8845
 7939TIP3    H145308   0.994   2.633  12.415 -0.0270 -0.2509  2.7427
 7939TIP3    H245309   0.876   2.726  12.394 -0.2646 -1.0050  0.4907
 7940TIP3   OH245310   3.486   6.669  13.712  0.5832  0.2062  0.2537
 7940TIP3    H145311   3.483   6.613  13.634 -0.1097  1.7526 -0.8830
 7940TIP3    H245312   3.546   6.739  13.689 -0.6971  1.4418  0.5583
 7941TIP3   OH245313   5.158   6.064   4.036 -0.1441 -0.7175 -0.3347
 7941TIP3    H145314   5.189   6.119   4.108 -0.7670 -1.2846  0.3788
 7941TIP3    H245315   5.137   5.980   4.077  2.1077 -2.0197 -1.6016
 7942TIP3   OH245316   5.530   5.443   2.355 -0.0455 -0.1604  0.1316
 7942TIP3    H145317   5.459   5.486   2.308 -0.1678 -0.2391  0.2427
 7942TIP3    H245318   5.548   5.500   2.429 -0.5254 -0.5323  0.5408
 7943TIP3   OH245319   5.391   6.711  15.948  0.0224 -0.3333  0.0804
 7943TIP3    H145320   5.403   6.705  16.043 -1.1816  1.9297  0.4563
 7943TIP3    H245321   5.423   6.799  15.926 -3.4368  0.8359 -0.8682
 7944TIP3   OH245322   5.086   0.033   5.661 -0.3475  0.1665  0.2447
 7944TIP3    H145323   5.118  -0.019   5.735 -2.2445  1.0968  1.8239
 7944TIP3    H245324   5.007  -0.012   5.632 -1.6335  1.7092  1.1917
 7945TIP3   OH245325   4.787   5.332   5.301  0.2753  0.2466  0.2277
 7945TIP3    H145326   4.755   5.355   5.388 -0.9339 -0.3253 -0.0374
 7945TIP3    H245327   4.771   5.411   5.248 -0.2044  0.1492  0.2250
 7946TIP3   OH245328   5.738   2.106  14.699  0.4560 -0.2173  0.4383
 7946TIP3    H145329   5.826   2.073  14.717  0.1507 -1.0630  0.4189
 7946TIP3    H245330   5.691   2.031  14.664  0.0314  0.5010 -0.5858
 7947TIP3   OH245331   6.287   4.923  11.205  0.1002 -0.5472 -0.0847
 7947TIP3    H145332   6.214   4.884  11.158 -0.8619  0.8021  0.2241
 7947TIP3    H245333   6.286   4.882  11.291 -0.6956 -0.0872  0.1310
 7948TIP3   OH245334   6.543   1.039   0.799 -0.0488 -0.0464 -0.2807
 7948TIP3    H145335   6.599   1.092   0.855 -3.2975  3.2410  0.3051
 7948TIP3    H245336   6.541   1.086   0.715  0.2559 -1.6822 -1.2490
 7949TIP3   OH245337   2.575   1.043   5.711 -0.2265  0.2466 -1.0518
 7949TIP3    H145338   2.530   1.022   5.793 -0.2020 -1.2527 -1.4009
 7949TIP3    H245339   2.509   1.032   5.643  0.1263  0.0202 -1.3666
 7950TIP3   OH245340   5.815   4.896  16.752  0.3129 -0.4044  0.5016
 7950TIP3    H145341   5.903   4.868  16.726  0.3592  0.7151 -0.6803
 7950TIP3    H245342   5.824   4.990  16.769 -0.4819 -0.4451  1.1808
 7951TIP3   OH245343   0.392   5.614   3.164  0.3654  0.4187  0.6243
 7951TIP3    H145344   0.430   5.559   3.095  1.3034 -0.5261  1.8629
 7951TIP3    H245345   0.328   5.668   3.118  1.6001  0.4571 -1.1410
 7952TIP3   OH245346   4.517   3.433   2.871  0.0752 -0.2184  0.0474
 7952TIP3    H145347   4.574   3.502   2.906 -2.1710  0.3936  2.9160
 7952TIP3    H245348   4.555   3.352   2.903 -0.4183  0.1661  1.7320
 7953TIP3   OH245349   2.543   3.361  12.579  0.8759  0.1167  0.2447
 7953TIP3    H145350   2.475   3.391  12.519  0.7646 -0.6596 -0.0345
 7953TIP3    H245351   2.510   3.383  12.666 -0.4781 -1.5978  0.2239
 7954TIP3   OH245352   5.999   0.271  13.614  0.9467  0.2919 -0.0130
 7954TIP3    H145353   5.989   0.276  13.709  0.5673 -2.2181  0.1382
 7954TIP3    H245354   6.085   0.231  13.601 -0.2493 -2.2598 -0.5870
 7955TIP3   OH245355   6.853   5.634   3.117  0.2767 -0.4078  0.3839
 7955TIP3    H145356   6.903   5.684   3.052  1.9411 -0.1626  1.8024
 7955TIP3    H245357   6.899   5.649   3.199 -0.4700 -2.5335  1.2427
 7956TIP3   OH245358   1.647   1.801  16.358  0.0224 -0.2675  0.0538
 7956TIP3    H145359   1.715   1.734  16.365 -2.2877 -2.6939  1.1972
 7956TIP3    H245360   1.614   1.811  16.448  0.9275  3.2708  0.1469
 7957TIP3   OH245361   5.557   2.057  13.599  0.2615  0.7357  0.1540
 7957TIP3    H145362   5.643   2.042  13.639 -0.3897  0.6576  1.5880
 7957TIP3    H245363   5.527   2.139  13.639 -0.3352  0.7510 -0.3274
 7958TIP3   OH245364   2.751   2.173  11.815 -0.3608 -0.4077 -0.1658
 7958TIP3    H145365   2.665   2.155  11.852 -1.0469  0.2848 -1.3410
 7958TIP3    H245366   2.807   2.103  11.848 -1.5153 -1.2035  0.1610
 7959TIP3   OH245367   6.360   1.930   4.500  0.5067 -0.0258 -0.3966
 7959TIP3    H145368   6.268   1.905   4.496 -0.1710  1.5851  2.6491
 7959TIP3    H245369   6.363   2.019   4.466  0.8884  0.0959 -0.0523
 7960TIP3   OH245370   5.929   1.008   1.416 -0.4121  0.3448 -0.6111
 7960TIP3    H145371   5.999   1.006   1.480 -0.5821 -0.2953 -0.4338
 7960TIP3    H245372   5.901   1.099   1.413 -0.9124  0.2617  0.7882
 7961TIP3   OH245373   5.911   6.392   5.667 -0.3548  0.1596  0.0612
 7961TIP3    H145374   5.884   6.483   5.653  1.0425  0.5558 -0.2190
 7961TIP3    H245375   5.845   6.340   5.623 -1.4809  1.0103  0.6988
 7962TIP3   OH245376   3.406   1.002  15.425 -0.4130 -0.4857 -0.1960
 7962TIP3    H145377   3.315   0.994  15.397 -0.2348 -0.2766 -0.8487
 7962TIP3    H245378   3.407   0.966  15.513 -1.1876 -0.2095 -0.0689
 7963TIP3   OH245379   4.005   4.346  13.646  0.2422  0.1256 -0.1607
 7963TIP3    H145380   4.056   4.297  13.582 -1.2798  0.7168 -1.8870
 7963TIP3    H245381   4.067   4.409  13.683  1.3770 -0.8634 -0.3070
 7964TIP3   OH245382   4.025   6.068  11.356  0.5896  0.4613 -0.0638
 7964TIP3    H145383   4.053   6.158  11.368  1.0192  0.0945  2.1609
 7964TIP3    H245384   4.104   6.016  11.374 -0.4647 -0.4539  2.1810
 7965TIP3   OH245385   6.830   2.629   3.600  0.5784 -0.0151  0.0409
 7965TIP3    H145386   6.878   2.645   3.681 -1.0657 -0.1239  1.0682
 7965TIP3    H245387   6.887   2.569   3.550  2.1924  1.0509  0.5157
 7966TIP3   OH245388   2.938   0.876   5.048  0.2115 -0.5186 -1.0947
 7966TIP3    H145389   3.017   0.921   5.020  0.7743 -0.3402  0.6490
 7966TIP3    H245390   2.906   0.929   5.122 -0.9501 -1.1665 -1.1165
 7967TIP3   OH245391   5.599   3.587  12.505 -0.4024  0.2628  0.7108
 7967TIP3    H145392   5.663   3.600  12.435 -1.2064 -0.1971 -0.1258
 7967TIP3    H245393   5.648   3.546  12.576 -0.4432 -3.6947 -1.2842
 7968TIP3   OH245394   1.213   3.528  14.998  0.0650 -0.3293  0.2197
 7968TIP3    H145395   1.146   3.460  15.008  0.9632 -1.2191  0.4456
 7968TIP3    H245396   1.296   3.480  15.005  0.7265  0.8838  0.9626
 7969TIP3   OH245397   1.243   1.034  16.899  0.4015 -0.2403 -0.0605
 7969TIP3    H145398   1.336   1.029  16.918  1.0772 -2.8715 -3.1542
 7969TIP3    H245399   1.205   0.957  16.942 -0.3474  0.6423  0.9147
 7970TIP3   OH245400   5.325   0.981   1.445  0.0050 -0.5428  0.2111
 7970TIP3    H145401   5.412   0.966   1.408  0.2311  0.8328  0.1267
 7970TIP3    H245402   5.327   0.937   1.530  0.9669 -0.1004  0.4316
 7971TIP3   OH245403   0.574   2.341   6.244 -0.0274  0.7791 -0.4990
 7971TIP3    H145404   0.669   2.348   6.241 -0.0885  1.5846 -0.8069
 7971TIP3    H245405   0.543   2.431   6.238 -0.7903  0.6178  0.6825
 7972TIP3   OH245406   0.491   5.861   4.779  0.1658 -1.1657 -0.1443
 7972TIP3    H145407   0.530   5.775   4.794 -1.0699 -1.3395  2.5822
 7972TIP3    H245408   0.564   5.923   4.789  0.4227 -1.6954  1.6665
 7973TIP3   OH245409   6.350   3.563  12.184  0.2324  0.2571  0.0039
 7973TIP3    H145410   6.361   3.658  12.179  1.2414  0.1528  0.0950
 7973TIP3    H245411   6.439   3.528  12.189 -0.1382 -0.6639  0.5374
 7974TIP3   OH245412   0.661   5.163   1.805 -0.2609  1.0035  0.2528
 7974TIP3    H145413   0.701   5.141   1.721  2.5377 -1.9713  2.1270
 7974TIP3    H245414   0.570   5.135   1.796 -0.4724  2.2036 -2.1973
 7975TIP3   OH245415   2.122   6.095   0.208  0.0324  0.3898 -0.4237
 7975TIP3    H145416   2.121   6.184   0.172  1.4803  0.0950 -1.2491
 7975TIP3    H245417   2.162   6.105   0.294 -0.4603  0.6271 -0.2166
 7976TIP3   OH245418   0.303   3.988  14.158  0.1002  0.0204  0.4284
 7976TIP3    H145419   0.269   3.917  14.213  0.3608  0.3031  0.9686
 7976TIP3    H245420   0.365   3.946  14.099  1.2621 -0.0237  1.6393
 7977TIP3   OH245421   3.241   0.837  14.923 -0.4513  0.8312 -0.1797
 7977TIP3    H145422   3.187   0.892  14.867  0.9338  2.3484 -0.0873
 7977TIP3    H245423   3.318   0.816  14.870  0.5661  1.7385  0.8965
 7978TIP3   OH245424   6.487   5.375   3.815 -0.2740 -0.6456 -0.1489
 7978TIP3    H145425   6.517   5.369   3.725  0.1415 -3.8227  0.0841
 7978TIP3    H245426   6.430   5.299   3.826  0.1543 -0.6817  2.4238
 7979TIP3   OH245427   6.189   1.571  16.769 -0.0262 -0.5599 -0.1064
 7979TIP3    H145428   6.240   1.570  16.688  1.9822  2.2044  1.0059
 7979TIP3    H245429   6.253   1.558  16.839 -1.4785 -1.2007  1.1696
 7980TIP3   OH245430   6.633   3.484  12.126  0.0456 -0.2185  0.5176
 7980TIP3    H145431   6.715   3.523  12.097  0.2827 -1.0209  0.0916
 7980TIP3    H245432   6.601   3.435  12.050 -0.4090 -0.5801  0.9358
 7981TIP3   OH245433   0.102   6.625  16.936 -0.8206  0.5693 -0.6871
 7981TIP3    H145434   0.164   6.598  17.004  1.3840  2.5316 -1.7642
 7981TIP3    H245435   0.133   6.581  16.857 -0.2154  2.1961 -1.4063
 7982TIP3   OH245436   4.762   1.827   3.914 -0.4698  0.4434  0.1656
 7982TIP3    H145437   4.747   1.769   3.839  2.4394  1.4814 -1.3919
 7982TIP3    H245438   4.746   1.772   3.991  0.2634 -1.8720 -1.2376
 7983TIP3   OH245439   2.291   3.569   2.466  0.6252  0.4381 -0.0632
 7983TIP3    H145440   2.344   3.636   2.509  0.3798  1.6293 -1.5635
 7983TIP3    H245441   2.254   3.612   2.389 -0.4391 -1.1078 -0.4729
 7984TIP3   OH245442   4.664   4.157  13.808 -0.0528  0.0934 -0.2759
 7984TIP3    H145443   4.647   4.227  13.746 -1.7298  0.0357  0.0824
 7984TIP3    H245444   4.600   4.089  13.786  0.0799 -0.3905  0.7827
 7985TIP3   OH245445   5.024   4.077   1.038 -0.2433 -0.2489  0.5134
 7985TIP3    H145446   5.030   4.122   0.954  1.6846 -0.8452  0.2780
 7985TIP3    H245447   5.061   4.139   1.101  1.9678 -1.2316  0.2633
 7986TIP3   OH245448   0.810   3.016  12.750  0.5450  0.1274  0.4312
 7986TIP3    H145449   0.752   2.939  12.746  0.8768 -0.1430  0.7795
 7986TIP3    H245450   0.855   3.007  12.834  3.1245 -1.1198 -0.9984
 7987TIP3   OH245451   2.254   2.103   3.968  0.3063  0.0654 -1.2797
 7987TIP3    H145452   2.290   2.067   4.049  0.4586 -0.1351 -1.4353
 7987TIP3    H245453   2.329   2.145   3.926  0.4352 -0.6375 -1.7633
 7988TIP3   OH245454   6.721   3.623  15.439  0.6770  0.2925  0.3857
 7988TIP3    H145455   6.747   3.531  15.435 -0.7090 -0.1537  1.1932
 7988TIP3    H245456   6.627   3.623  15.421  0.6622  1.5705  0.3296
 7989TIP3   OH245457   2.318   0.710  10.948 -0.7739  0.2307 -0.1394
 7989TIP3    H145458   2.346   0.795  10.914  0.7546 -0.4440 -0.6456
 7989TIP3    H245459   2.352   0.646  10.884  0.4511 -0.9404  1.6065
 7990TIP3   OH245460   2.906   1.337   2.769 -0.1232  0.0003  0.6989
 7990TIP3    H145461   2.938   1.408   2.824 -1.6809  0.0932  1.5527
 7990TIP3    H245462   2.939   1.257   2.810  2.1806  0.1954 -0.6310
 7991TIP3   OH245463   0.629   6.233  12.245  0.5227  0.1324 -0.1151
 7991TIP3    H145464   0.664   6.320  12.224 -0.2239  0.5925  0.4950
 7991TIP3    H245465   0.555   6.222  12.186  0.6771 -0.1357 -0.2616
 7992TIP3   OH245466   2.326   0.979  10.837 -0.4745  0.2200 -0.0726
 7992TIP3    H145467   2.282   1.055  10.876  0.3587  0.5614  0.2102
 7992TIP3    H245468   2.364   1.013  10.756 -1.1678 -0.2012 -0.5825
 7993TIP3   OH245469   1.007   6.180   4.627  0.0637 -0.2579  0.3807
 7993TIP3    H145470   1.037   6.230   4.550 -1.2795  1.0632  0.6637
 7993TIP3    H245471   1.088   6.155   4.672  0.8270  0.5595 -0.4754
 7994TIP3   OH245472   2.931   4.382  15.228 -0.3874  0.1329 -0.6447
 7994TIP3    H145473   2.962   4.362  15.317  0.1611  2.1780 -0.3244
 7994TIP3    H245474   3.008   4.417  15.183 -1.2876  1.7039 -1.0331
 7995TIP3   OH245475   4.820   4.580   5.792 -0.0045 -0.2791  0.3022
 7995TIP3    H145476   4.827   4.644   5.721  2.8481 -0.1172  0.6416
 7995TIP3    H245477   4.806   4.497   5.747 -2.8030  0.3289 -0.1760
 7996TIP3   OH245478   5.449   1.480  11.580  0.0391  0.2393 -0.4720
 7996TIP3    H145479   5.510   1.543  11.542  1.5544 -0.8816 -0.0013
 7996TIP3    H245480   5.433   1.417  11.509  0.8402 -0.4318 -0.0753
 7997TIP3   OH245481   0.031   0.303   3.319 -0.0378 -0.4904  0.5933
 7997TIP3    H145482   0.055   0.294   3.226  0.1455 -0.5097  0.6427
 7997TIP3    H245483  -0.006   0.391   3.326  0.1003 -0.4285  0.5356
 7998TIP3   OH245484   4.434   6.417  11.801 -0.0113  0.1630  0.2979
 7998TIP3    H145485   4.498   6.392  11.867 -1.4043  0.3425  1.7712
 7998TIP3    H245486   4.437   6.513  11.800  1.2124  0.1534 -1.1833
 7999TIP3   OH245487   6.606   0.079   5.287 -0.4341  0.1106 -0.6520
 7999TIP3    H145488   6.591   0.162   5.241 -1.2703  0.0916 -0.4251
 7999TIP3    H245489   6.536   0.074   5.351  0.8789  0.2809  0.8677
 8000TIP3   OH245490   6.858   1.087   1.718  0.2930 -0.1441 -0.6138
 8000TIP3    H145491   6.910   1.107   1.640  2.5895  2.3800  1.3787
 8000TIP3    H245492   6.789   1.153   1.719 -2.1879 -2.4676 -2.3404
 8001TIP3   OH245493   4.858   0.168   5.208 -0.1687  0.3747 -0.2572
 8001TIP3    H145494   4.801   0.092   5.203 -0.0077  0.1048  1.4433
 8001TIP3    H245495   4.855   0.206   5.120  0.3504 -1.9892 -1.3696
 8002TIP3   OH245496   2.191   5.262  12.285  0.2450 -0.6354 -0.0203
 8002TIP3    H145497   2.217   5.346  12.323  0.5919 -1.0188  0.6131
 8002TIP3    H245498   2.221   5.266  12.194  3.2413 -1.2886  0.7952
 8003TIP3   OH245499   4.963   5.143  11.722  0.2230  0.4140  0.1934
 8003TIP3    H145500   4.892   5.088  11.755 -0.4053  1.2573  0.2543
 8003TIP3    H245501   4.944   5.155  11.629  0.5565  0.2399  0.0997
 8004TIP3   OH245502   1.400   4.795  15.495  0.3816  0.6247  0.1732
 8004TIP3    H145503   1.430   4.704  15.485  2.6706  1.4069 -0.9961
 8004TIP3    H245504   1.339   4.793  15.568  2.2743 -1.4615  1.8330
 8005TIP3   OH245505   4.306   0.222   2.014 -0.1298 -0.8003 -0.2800
 8005TIP3    H145506   4.274   0.288   1.952  0.8784 -0.5810 -0.5809
 8005TIP3    H245507   4.353   0.160   1.960  0.3167 -0.8877  0.2078
 8006TIP3   OH245508   0.442   2.555  12.550 -0.2421 -0.3263  0.0133
 8006TIP3    H145509   0.388   2.526  12.623  0.1566 -0.6165  0.2008
 8006TIP3    H245510   0.381   2.566  12.477 -0.2710 -2.8403 -0.4171
 8007TIP3   OH245511   1.866   6.764  17.011 -0.2555 -0.6095 -0.0049
 8007TIP3    H145512   1.842   6.821  17.083  0.4318  0.7010 -0.7748
 8007TIP3    H245513   1.953   6.793  16.984  0.3578 -2.3714 -0.0976
 8008TIP3   OH245514   0.284   6.029   4.256 -0.1700  0.3392 -0.3243
 8008TIP3    H145515   0.191   6.015   4.243  0.0540 -0.5038 -1.1138
 8008TIP3    H245516   0.325   6.002   4.173  0.6667  1.9385 -0.4856
 8009TIP3   OH245517   0.374   2.508   3.899 -0.4228  0.4154 -0.3470
 8009TIP3    H145518   0.298   2.559   3.873 -0.8230 -0.6068 -1.2700
 8009TIP3    H245519   0.371   2.507   3.994  0.7483  3.7856 -0.1528
 8010TIP3   OH245520   3.117   3.467  15.055 -0.0656 -0.4407  0.6367
 8010TIP3    H145521   3.144   3.557  15.038  0.5764 -0.7001  0.2277
 8010TIP3    H245522   3.042   3.453  14.999  0.5247 -0.5100 -0.1495
 8011TIP3   OH245523   6.739   4.722   5.304  0.6132  0.1330  0.1795
 8011TIP3    H145524   6.830   4.752   5.307  1.0302 -0.6387 -2.2495
 8011TIP3    H245525   6.744   4.627   5.298 -0.3839  0.0517  0.3654
 8012TIP3   OH245526   5.918   4.130  12.483 -0.1777 -0.2340  0.4112
 8012TIP3    H145527   5.956   4.211  12.519  0.7284  0.5183 -2.0439
 8012TIP3    H245528   5.957   4.060  12.536  0.6705  0.8225  1.2399
 8013TIP3   OH245529   0.308   4.870  10.808  0.4879 -0.1130 -0.6200
 8013TIP3    H145530   0.261   4.904  10.732  1.2715 -0.5864 -1.3314
 8013TIP3    H245531   0.254   4.797  10.839  0.6316 -0.5154 -1.2984
 8014TIP3   OH245532   4.498   5.001   4.906 -0.3260 -0.5115  0.0618
 8014TIP3    H145533   4.480   5.084   4.863  0.9562 -0.2947 -0.0773
 8014TIP3    H245534   4.589   5.006   4.933 -0.4254 -1.5984  0.6805
 8015TIP3   OH245535   1.457   6.727  15.616  0.0473  0.1341  0.6935
 8015TIP3    H145536   1.393   6.686  15.558 -0.1807 -0.7505  1.5480
 8015TIP3    H245537   1.411   6.801  15.655  0.0728  0.4862  0.0611
 8016TIP3   OH245538   2.997   1.586  15.171 -0.0855 -0.8791 -0.0806
 8016TIP3    H145539   2.940   1.632  15.233  1.0521  0.6590 -0.1327
 8016TIP3    H245540   3.069   1.553  15.225  1.2550  1.0296 -0.6054
 8017TIP3   OH245541   5.531   6.180  13.199  0.1878 -0.5475  0.4937
 8017TIP3    H145542   5.566   6.125  13.129 -2.5595 -1.7238 -0.0791
 8017TIP3    H245543   5.530   6.123  13.275  1.7508  0.2730  1.1900
 8018TIP3   OH245544   4.743   1.847   4.327 -0.0148 -0.3818 -0.3202
 8018TIP3    H145545   4.830   1.874   4.296 -0.4083 -1.1462 -2.2355
 8018TIP3    H245546   4.688   1.924   4.313  0.2449 -0.0354  0.5002
 8019TIP3   OH245547   4.543   4.123  16.183  0.2442  0.8393 -0.3537
 8019TIP3    H145548   4.484   4.063  16.228 -0.3333  1.2006 -0.6262
 8019TIP3    H245549   4.534   4.102  16.090  3.5837 -1.9151 -0.2436
 8020TIP3   OH245550   2.096   2.566  13.371 -0.0790 -0.3353 -0.1531
 8020TIP3    H145551   2.008   2.568  13.335 -0.2584 -0.8120  0.2458
 8020TIP3    H245552   2.095   2.629  13.443 -0.4556 -1.2222  0.6397
 8021TIP3   OH245553   5.928   1.638  12.278 -0.0080 -0.3056  0.5274
 8021TIP3    H145554   5.840   1.669  12.257  0.6374  0.1309 -1.8612
 8021TIP3    H245555   5.982   1.717  12.276  0.8380 -0.8844 -0.6419
 8022TIP3   OH245556   0.785   1.736  13.259 -0.0376 -0.1100  0.4559
 8022TIP3    H145557   0.800   1.825  13.227 -0.2152 -0.1895  0.1510
 8022TIP3    H245558   0.718   1.746  13.326  1.6625  0.3215  2.1924
 8023TIP3   OH245559   2.457   4.931   6.112 -0.8645  0.7260  0.0014
 8023TIP3    H145560   2.467   4.899   6.202 -0.2123  1.4520  0.1942
 8023TIP3    H245561   2.513   5.008   6.108 -0.3737  0.3288 -1.2242
 8024TIP3   OH245562   3.118   2.405   0.980  0.5615 -0.4118  0.3481
 8024TIP3    H145563   3.075   2.481   0.942  0.0972  0.0901  1.8055
 8024TIP3    H245564   3.212   2.423   0.972  0.4580 -0.0247  0.0177
 8025TIP3   OH245565   2.049   3.552   5.006 -0.2510 -0.0933 -0.1944
 8025TIP3    H145566   1.960   3.521   5.022 -0.6364  0.6686 -0.7933
 8025TIP3    H245567   2.063   3.538   4.912  0.7302 -1.3625  0.1142
 8026TIP3   OH245568   0.585   1.853  14.661 -0.1823  0.7243  0.5419
 8026TIP3    H145569   0.535   1.807  14.594  1.3128 -0.1681 -0.0194
 8026TIP3    H245570   0.520   1.881  14.725 -1.3985 -0.2914 -0.2025
 8027TIP3   OH245571   1.851   1.718  13.590 -0.1808 -0.3118 -0.1189
 8027TIP3    H145572   1.886   1.690  13.675  0.0858  0.4843  0.0443
 8027TIP3    H245573   1.758   1.696  13.595 -0.0546 -0.8132  0.1444
 8028TIP3   OH245574   3.266   1.020  12.101  0.1688 -0.1728 -0.0221
 8028TIP3    H145575   3.261   0.925  12.089  1.3792 -0.1416 -0.8792
 8028TIP3    H245576   3.305   1.032  12.188 -0.9161 -0.4349  0.5211
 8029TIP3   OH245577   2.624   1.725   0.643 -0.9425 -0.2261  0.4496
 8029TIP3    H145578   2.705   1.703   0.689 -1.2476  1.9300  2.2058
 8029TIP3    H245579   2.654   1.757   0.558 -0.0175 -0.4014  0.6897
 8030TIP3   OH245580   2.948   4.304  12.189 -0.1811  0.3463 -0.6663
 8030TIP3    H145581   2.988   4.315  12.103  0.4223 -0.2318 -0.4778
 8030TIP3    H245582   3.017   4.331  12.251 -0.4471  0.3278 -0.3582
 8031TIP3   OH245583   1.321   2.268  13.952  0.0732 -0.1218  0.7530
 8031TIP3    H145584   1.395   2.308  13.907  0.5639 -1.6259  0.1484
 8031TIP3    H245585   1.361   2.211  14.018 -0.5596 -0.4423  0.8658
 8032TIP3   OH245586   5.360   4.916  16.124 -0.2635 -0.3453  0.1484
 8032TIP3    H145587   5.435   4.889  16.071 -0.8645  0.7732 -1.3685
 8032TIP3    H245588   5.294   4.849  16.107 -0.0881 -0.5703  0.3507
 8033TIP3   OH245589   2.577   4.160  15.667 -0.1214 -0.1121  0.2414
 8033TIP3    H145590   2.497   4.198  15.632  0.4698  1.0053  0.0651
 8033TIP3    H245591   2.597   4.212  15.745  2.1699  1.8101 -1.4853
 8034TIP3   OH245592   2.835   3.170   5.844 -0.3656  0.7439  0.2767
 8034TIP3    H145593   2.879   3.124   5.773 -1.7948 -1.2301  0.6025
 8034TIP3    H245594   2.746   3.185   5.813 -0.0874  2.8915  0.3939
 8035TIP3   OH245595   4.767   4.503   2.858  0.1784 -0.7826  0.0747
 8035TIP3    H145596   4.813   4.441   2.801  0.5351 -1.0890  0.6845
 8035TIP3    H245597   4.679   4.508   2.822  0.1512 -1.6276 -0.0014
 8036TIP3   OH245598   3.571   5.061   3.692  0.1601  0.1950 -0.3873
 8036TIP3    H145599   3.647   5.116   3.709 -0.8836  1.7011 -0.3619
 8036TIP3    H245600   3.508   5.120   3.651 -1.6632 -0.5213  1.2355
 8037TIP3   OH245601   2.141   5.346   2.275  0.2051 -0.0843  0.3371
 8037TIP3    H145602   2.127   5.252   2.286 -0.8815 -0.0304 -0.3582
 8037TIP3    H245603   2.134   5.360   2.181 -1.4419  0.9352  0.5775
 8038TIP3   OH245604   3.225   1.511  13.077 -0.4150  0.3557  0.0111
 8038TIP3    H145605   3.313   1.498  13.042  0.0121  0.6575  0.9553
 8038TIP3    H245606   3.237   1.514  13.172 -1.4186  0.5832  0.1369
 8039TIP3   OH245607   0.906   1.933   1.349  0.3101 -0.2033 -0.6272
 8039TIP3    H145608   0.980   1.938   1.409  0.2073 -0.1209 -0.5069
 8039TIP3    H245609   0.927   1.997   1.280  0.5790 -0.5271 -0.8495
 8040TIP3   OH245610   2.511   5.937  15.829  0.1044  0.5950 -0.1325
 8040TIP3    H145611   2.513   6.001  15.900  0.0545  0.2846  0.1554
 8040TIP3    H245612   2.591   5.886  15.842 -0.5385 -0.2911  0.4864
 8041TIP3   OH245613   3.430   1.886   5.525 -0.1506 -0.6339 -0.4123
 8041TIP3    H145614   3.412   1.800   5.563 -1.0452 -0.2541  0.0721
 8041TIP3    H245615   3.418   1.947   5.598  2.2284 -0.2223 -0.2832
 8042TIP3   OH245616   0.552   1.519   4.998 -0.6409  0.3853  0.0329
 8042TIP3    H145617   0.646   1.516   5.015 -0.2384 -0.9671 -2.0868
 8042TIP3    H245618   0.515   1.447   5.049 -0.2006 -0.4555 -0.8253
 8043TIP3   OH245619   5.392   0.550   3.931 -0.2137 -0.0871 -0.0075
 8043TIP3    H145620   5.314   0.496   3.942 -0.0366 -0.5941 -1.0635
 8043TIP3    H245621   5.359   0.638   3.916 -0.6000 -0.3038 -0.4716
 8044TIP3   OH245622   3.675   3.181  10.951  0.3598 -0.4145  0.1245
 8044TIP3    H145623   3.653   3.093  10.920 -1.1626  0.1413 -0.4708
 8044TIP3    H245624   3.621   3.240  10.898 -0.1549  0.7588  1.8551
 8045TIP3   OH245625   2.210   6.218   1.669  0.2974  0.0543  0.0700
 8045TIP3    H145626   2.136   6.175   1.713  0.6481 -0.6867 -0.0512
 8045TIP3    H245627   2.194   6.205   1.576  0.6498 -0.2343  0.0468
 8046TIP3   OH245628   5.849   5.112   3.779  0.1296 -0.2316 -0.0766
 8046TIP3    H145629   5.869   5.122   3.686  0.0170  1.2609  0.0418
 8046TIP3    H245630   5.831   5.018   3.789 -0.6272 -0.3074 -1.7088
 8047TIP3   OH245631   4.622   4.884   1.156  0.1190 -0.2489 -0.2439
 8047TIP3    H145632   4.651   4.974   1.166  0.1337 -0.3090  0.2951
 8047TIP3    H245633   4.670   4.836   1.224  0.3302 -0.7123 -0.7129
 8048TIP3   OH245634   0.627   1.674   4.695  0.3640  0.2378  0.0763
 8048TIP3    H145635   0.643   1.711   4.608  0.4852 -0.8087 -0.3637
 8048TIP3    H245636   0.648   1.745   4.755 -1.6286  1.6602 -0.7898
 8049TIP3   OH245637   1.837   4.258   5.611  0.8865  0.2866  0.5498
 8049TIP3    H145638   1.785   4.234   5.535 -0.4498 -0.5990  1.7002
 8049TIP3    H245639   1.874   4.175   5.642  0.9542  0.5482  1.1909
 8050TIP3   OH245640   4.399   4.971   4.550 -0.2799  0.2845 -0.2346
 8050TIP3    H145641   4.331   5.005   4.492 -0.7579  1.6939  1.0704
 8050TIP3    H245642   4.446   5.049   4.579  0.5570 -0.4833  0.5225
 8051TIP3   OH245643   1.198   4.890  13.027 -0.4513 -0.1707  0.2659
 8051TIP3    H145644   1.160   4.806  13.000 -2.2642  1.2856 -2.1309
 8051TIP3    H245645   1.153   4.912  13.109 -0.4221 -1.2243  0.5776
 8052TIP3   OH245646   0.789   3.010   0.126  0.6953 -0.0075 -0.0830
 8052TIP3    H145647   0.812   3.097   0.159 -0.4473  0.1009  0.4537
 8052TIP3    H245648   0.831   2.949   0.188 -0.1027  0.1856  0.6689
 8053TIP3   OH245649   2.538   2.063  12.821 -0.0253 -0.4789 -0.3200
 8053TIP3    H145650   2.531   1.988  12.880  1.1387  0.7737  1.5233
 8053TIP3    H245651   2.448   2.078  12.791 -0.9581 -0.4398  2.1711
 8054TIP3   OH245652   0.684   2.254  13.243 -0.1397 -0.0212  0.4554
 8054TIP3    H145653   0.673   2.221  13.154  0.9251  0.5957  0.0734
 8054TIP3    H245654   0.769   2.219  13.271 -0.6674 -0.5737  1.4023
 8055TIP3   OH245655   5.044   3.302  12.973  0.2337 -0.0437  0.1727
 8055TIP3    H145656   5.047   3.384  12.924  1.1180 -0.4533 -0.4842
 8055TIP3    H245657   5.066   3.327  13.063  2.4973  0.1895 -0.3930
 8056TIP3   OH245658   3.226   2.356   3.444  0.2820 -0.6656 -0.8492
 8056TIP3    H145659   3.255   2.355   3.353 -1.5060 -0.9181 -1.4675
 8056TIP3    H245660   3.166   2.431   3.448 -0.2254 -1.1079 -0.0753
 8057TIP3   OH245661   0.458   1.811   2.699  0.3516  0.2196 -0.2471
 8057TIP3    H145662   0.430   1.858   2.621  0.9905  0.2662 -0.4515
 8057TIP3    H245663   0.381   1.759   2.725 -0.2296  1.0624 -0.2424
 8058TIP3   OH245664   6.217   3.557   5.889  0.2667  0.3643  0.4045
 8058TIP3    H145665   6.127   3.548   5.857  0.9374  1.9140 -2.2981
 8058TIP3    H245666   6.207   3.575   5.983 -2.0550 -1.8543  0.6972
 8059TIP3   OH245667   4.131   6.845   4.173 -0.4566 -0.3838  0.3445
 8059TIP3    H145668   4.195   6.778   4.196  1.6467  1.1240 -0.8182
 8059TIP3    H245669   4.149   6.917   4.234 -0.2577  0.4913 -0.7237
 8060TIP3   OH245670   0.408   0.442  17.042 -0.1633 -0.3073  0.4303
 8060TIP3    H145671   0.319   0.445  17.078 -1.3998  0.4661 -2.3651
 8060TIP3    H245672   0.404   0.375  16.975  1.9139 -1.4452  1.3556
 8061TIP3   OH245673   1.177   6.837  12.222 -0.2709 -0.1167 -0.8276
 8061TIP3    H145674   1.210   6.869  12.306  1.5758 -0.4864 -1.3570
 8061TIP3    H245675   1.222   6.754  12.209 -1.1414 -0.4489 -1.8208
 8062TIP3   OH245676   5.903   0.344   0.315 -0.0332  0.1786 -0.3257
 8062TIP3    H145677   5.975   0.401   0.344 -1.7555  2.1520  0.3208
 8062TIP3    H245678   5.945   0.279   0.258  2.6525 -0.3555  2.0160
 8063TIP3   OH245679   1.932   1.438  12.936 -0.3880 -0.1045 -0.4318
 8063TIP3    H145680   1.865   1.450  12.868  0.6088  0.1863 -1.3844
 8063TIP3    H245681   2.015   1.454  12.892  0.4095 -1.4651  0.4824
 8064TIP3   OH245682   5.346   5.410  11.949 -0.6425 -0.0294 -0.0578
 8064TIP3    H145683   5.265   5.389  11.903 -0.9924  0.5637  0.2742
 8064TIP3    H245684   5.383   5.484  11.902  0.5233 -1.2679 -1.1473
 8065TIP3   OH245685   0.815   2.060  14.463 -0.4538 -0.4898  0.0883
 8065TIP3    H145686   0.896   2.073  14.414 -0.3487  0.1089  0.4076
 8065TIP3    H245687   0.836   1.993  14.528 -0.5773 -1.2463 -0.6363
 8066TIP3   OH245688   5.829   3.653  15.561  0.0915  0.3552 -0.6758
 8066TIP3    H145689   5.891   3.673  15.632  1.0715  1.3796 -1.7659
 8066TIP3    H245690   5.743   3.668  15.600  0.5698  0.0046  0.5577
 8067TIP3   OH245691   0.384   5.268  17.024  0.3735 -0.3615 -0.2798
 8067TIP3    H145692   0.303   5.282  17.074 -0.6591  0.1978 -2.0205
 8067TIP3    H245693   0.422   5.190  17.063  0.2755  0.7107  2.1578
 8068TIP3   OH245694   3.048   3.795   0.052 -0.1419 -0.2274 -0.0162
 8068TIP3    H145695   3.125   3.849   0.070 -0.4261  0.3749 -0.5489
 8068TIP3    H245696   3.083   3.713   0.019  0.2787 -0.0033 -0.1340
 8069TIP3   OH245697   3.238   5.635   6.018  0.0672  0.1711  0.2525
 8069TIP3    H145698   3.265   5.653   6.108  0.3147  1.2126 -0.0152
 8069TIP3    H245699   3.142   5.640   6.020  0.0055 -0.8908  0.6639
 8070TIP3   OH245700   5.053   6.631  11.787  0.6162 -0.3570 -0.1858
 8070TIP3    H145701   5.120   6.685  11.830  0.4776  1.0141 -1.5904
 8070TIP3    H245702   5.096   6.600  11.707 -0.0002 -0.5631 -0.4384
 8071TIP3   OH245703   3.169   4.557   1.569  1.0180  0.2862  0.5048
 8071TIP3    H145704   3.102   4.616   1.602 -0.8847 -1.6365  0.2627
 8071TIP3    H245705   3.243   4.615   1.549 -0.5066  2.4971  0.8209
 8072TIP3   OH245706   6.673   5.505   3.965  0.4394 -0.1550  0.3469
 8072TIP3    H145707   6.616   5.558   4.021  0.6378  2.1112 -1.4154
 8072TIP3    H245708   6.613   5.458   3.907  0.2855  0.5729 -0.1005
 8073TIP3   OH245709   1.828   1.076  17.018  0.0980  0.5354  0.2059
 8073TIP3    H145710   1.889   1.039  16.954  0.3393  0.3258  0.5622
 8073TIP3    H245711   1.805   1.003  17.075 -2.8457 -0.2285 -1.6854
 8074TIP3   OH245712   2.273   3.462   6.133 -0.4710  0.6880 -0.1842
 8074TIP3    H145713   2.193   3.439   6.182 -0.7844  0.2521 -0.8844
 8074TIP3    H245714   2.283   3.391   6.070  2.0314 -0.7522  1.6937
 8075TIP3   OH245715   4.540   1.193   5.158 -0.2099 -0.3501 -0.6257
 8075TIP3    H145716   4.454   1.194   5.116 -0.3938 -1.4208 -0.3104
 8075TIP3    H245717   4.535   1.261   5.226 -0.7247 -0.2450 -0.7711
 8076TIP3   OH245718   5.638   6.862  13.936 -0.6585 -0.3569  0.5298
 8076TIP3    H145719   5.605   6.892  14.021 -0.6173  1.1460  0.0562
 8076TIP3    H245720   5.620   6.935  13.876  1.2565 -0.4851 -0.2855
 8077TIP3   OH245721   0.037   4.512   5.330  0.7874  0.2727  0.6968
 8077TIP3    H145722   0.093   4.500   5.253  0.2793  1.3668  0.1279
 8077TIP3    H245723   0.011   4.424   5.356 -1.0713 -0.0721 -1.9229
 8078TIP3   OH245724   3.453   6.073   4.722  0.1560 -0.0417 -0.8108
 8078TIP3    H145725   3.379   6.034   4.674  0.8857 -1.2698 -0.9844
 8078TIP3    H245726   3.431   6.060   4.814 -0.2077  0.3198 -0.8419
 8079TIP3   OH245727   0.326   2.932  12.238  0.0419 -0.0652  0.4315
 8079TIP3    H145728   0.398   2.934  12.301  0.1735  0.0330  0.2758
 8079TIP3    H245729   0.273   3.009  12.261 -0.1585 -0.2833  0.7151
 8080TIP3   OH245730   0.772   6.537   6.331  0.1647  0.4977  0.0105
 8080TIP3    H145731   0.731   6.494   6.406 -0.7406  1.8196  0.2988
 8080TIP3    H245732   0.700   6.572   6.280  0.4906 -2.8806 -3.2012
 8081TIP3   OH245733   1.918   5.769  14.120 -0.3406  0.4119 -0.2871
 8081TIP3    H145734   1.836   5.791  14.077 -0.7104 -1.7914 -0.8727
 8081TIP3    H245735   1.986   5.803  14.062 -0.8400  0.7673 -0.6711
 8082TIP3   OH245736   0.338   6.141   6.051 -0.1570 -0.0534  0.0118
 8082TIP3    H145737   0.365   6.164   5.962 -0.1289 -0.8882 -0.2032
 8082TIP3    H245738   0.257   6.092   6.039 -1.1667  1.4266  0.5813
 8083TIP3   OH245739   0.486   2.652  12.107 -0.2235 -0.0464 -0.2471
 8083TIP3    H145740   0.427   2.654  12.182 -0.9496 -1.2015 -0.7557
 8083TIP3    H245741   0.441   2.701  12.039  0.1077  0.3829 -0.1612
 8084TIP3   OH245742   2.175   5.754  15.012  0.0411 -0.5598 -0.6915
 8084TIP3    H145743   2.261   5.745  15.052  0.3432  1.8903 -0.5923
 8084TIP3    H245744   2.127   5.811  15.072 -1.2927 -1.0220 -1.2828
 8085TIP3   OH245745   3.918   4.545  15.989  0.1346 -0.1137 -0.2476
 8085TIP3    H145746   3.999   4.494  15.993  1.3794  1.7413  0.1483
 8085TIP3    H245747   3.880   4.524  15.904  1.5447 -0.3623 -0.8544
 8086TIP3   OH245748   5.583   1.696  14.070  0.0720  0.0289  0.1589
 8086TIP3    H145749   5.595   1.771  14.128  1.1012  0.0002 -0.0011
 8086TIP3    H245750   5.499   1.712  14.027 -0.2004  0.5744  0.8732
 8087TIP3   OH245751   2.172   5.051   2.252 -0.1450 -0.2268  0.0049
 8087TIP3    H145752   2.126   4.985   2.304  1.2343  0.3510  2.0708
 8087TIP3    H245753   2.261   5.019   2.245 -0.0946  0.1384 -1.3219
 8088TIP3   OH245754   5.006   5.547  13.489 -0.0545  0.0634 -0.6178
 8088TIP3    H145755   4.926   5.498  13.506  1.5849 -2.8928 -0.7657
 8088TIP3    H245756   5.029   5.525  13.399  2.4150 -1.6254  0.3193
 8089TIP3   OH245757   0.422   6.337   0.108 -0.5105  0.1525 -0.4852
 8089TIP3    H145758   0.448   6.277   0.178  3.5733 -2.0184 -3.4744
 8089TIP3    H245759   0.360   6.288   0.056 -1.5724  0.8114  0.1135
 8090TIP3   OH245760   3.738   2.168   5.062 -0.1821  0.3688  0.3483
 8090TIP3    H145761   3.656   2.211   5.036  1.0316  3.2538  1.0033
 8090TIP3    H245762   3.791   2.168   4.982 -1.3007 -3.1528 -0.6038
 8091TIP3   OH245763   4.607   0.478  13.171  0.2219  0.1687  0.3048
 8091TIP3    H145764   4.621   0.415  13.100  0.3956 -0.0925  0.5657
 8091TIP3    H245765   4.512   0.478  13.184  0.0648  1.1364 -0.7454
 8092TIP3   OH245766   6.704   4.587  15.291 -0.5286  0.3313  0.2317
 8092TIP3    H145767   6.690   4.628  15.376  0.3649  1.5581 -0.1761
 8092TIP3    H245768   6.792   4.550  15.297  0.3467  2.0858 -0.7331
 8093TIP3   OH245769   1.801   0.613   4.255 -0.1166  0.3861 -0.1189
 8093TIP3    H145770   1.795   0.676   4.326  1.4860 -1.1368  1.4771
 8093TIP3    H245771   1.752   0.537   4.287  1.6536 -0.7801 -0.0301
 8094TIP3   OH245772   2.253   1.433  16.080 -0.4522  0.2615 -0.1827
 8094TIP3    H145773   2.264   1.341  16.104 -0.4243  0.6010  1.1649
 8094TIP3    H245774   2.341   1.463  16.060 -0.4103  0.1032 -0.2388
 8095TIP3   OH245775   5.217   4.142  16.213 -0.0135  0.0435  0.3857
 8095TIP3    H145776   5.149   4.191  16.166  0.5980  2.1176  1.5020
 8095TIP3    H245777   5.295   4.197  16.206  0.8304 -0.9622  1.4274
 8096TIP3   OH245778   2.351   2.867   2.889 -0.3195 -0.1327  0.0090
 8096TIP3    H145779   2.303   2.829   2.816  0.2056 -0.3249 -0.2425
 8096TIP3    H245780   2.382   2.791   2.940  0.1267 -0.0267 -0.1008
 8097TIP3   OH245781   1.138   5.718   0.613 -0.8273  0.5324  0.5431
 8097TIP3    H145782   1.087   5.670   0.679 -0.8708  0.5284  0.5062
 8097TIP3    H245783   1.224   5.731   0.654 -0.0036 -1.6414 -0.3177
 8098TIP3   OH245784   6.145   2.884  11.442  0.2916 -0.3003 -0.3222
 8098TIP3    H145785   6.152   2.792  11.417  3.5192  0.1025 -1.2785
 8098TIP3    H245786   6.109   2.928  11.365  1.9247 -0.3323 -1.1400
 8099TIP3   OH245787   6.357   0.186  14.102 -0.8408 -0.4866 -0.0099
 8099TIP3    H145788   6.320   0.098  14.095 -1.3920 -0.2915  0.3727
 8099TIP3    H245789   6.297   0.233  14.160 -0.2609 -0.0164  0.2252
 8100TIP3   OH245790   3.593   1.619  17.024  0.2219  0.1762  0.3342
 8100TIP3    H145791   3.684   1.639  17.049 -0.1877  1.8449  0.6538
 8100TIP3    H245792   3.598   1.592  16.933  1.2172 -1.4564  0.8242
 8101TIP3   OH245793   3.909   0.101  16.686 -0.1415  0.0408 -0.5915
 8101TIP3    H145794   3.980   0.162  16.704  0.7734 -0.7136 -1.4764
 8101TIP3    H245795   3.860   0.142  16.614 -0.2126  0.2616 -0.4172
 8102TIP3   OH245796   6.540   4.849  12.901  0.0425 -0.7467  0.4719
 8102TIP3    H145797   6.539   4.931  12.952 -1.4837  0.0400 -0.7474
 8102TIP3    H245798   6.543   4.780  12.967  1.8942  0.2606  1.5295
 8103TIP3   OH245799   4.030   4.919   0.047 -0.5520 -0.2085 -0.0078
 8103TIP3    H145800   4.026   4.886   0.137 -1.4914  1.2387  0.5278
 8103TIP3    H245801   3.940   4.909   0.015 -0.3366 -0.2319 -0.6019
 8104TIP3   OH245802   6.174   2.274   4.929 -0.0747 -0.5366  0.3532
 8104TIP3    H145803   6.261   2.266   4.970 -0.2556  0.8986  1.0769
 8104TIP3    H245804   6.119   2.214   4.978  0.0263  0.1657  1.3580
 8105TIP3   OH245805   1.097   2.331   3.536  0.5749  0.1077 -0.2106
 8105TIP3    H145806   1.037   2.273   3.583 -0.1530  0.7993 -0.2685
 8105TIP3    H245807   1.075   2.419   3.567  0.3893  0.5328 -1.4877
 8106TIP3   OH245808   1.877   1.918   2.173  0.4585  0.3462 -0.1464
 8106TIP3    H145809   1.832   1.925   2.089  1.6305 -2.5737 -1.1306
 8106TIP3    H245810   1.806   1.927   2.238 -0.9312 -0.1177 -1.5245
 8107TIP3   OH245811   2.773   6.497   6.128  0.3623 -0.0386  0.0608
 8107TIP3    H145812   2.746   6.568   6.070 -1.8352 -0.5196  0.4161
 8107TIP3    H245813   2.838   6.536   6.186  0.0987  1.3366 -0.5401
 8108TIP3   OH245814   2.999   4.774   2.894  0.5166 -0.8977 -0.3260
 8108TIP3    H145815   3.081   4.737   2.926  1.4900  1.2317 -0.1919
 8108TIP3    H245816   3.005   4.868   2.913 -1.7379 -0.5903 -0.7714
 8109TIP3   OH245817   6.676   4.680  15.535  0.5053  0.0357 -0.4068
 8109TIP3    H145818   6.714   4.764  15.509  1.9594 -1.2003 -2.6286
 8109TIP3    H245819   6.605   4.703  15.595  2.1892  2.7078  0.7547
 8110TIP3   OH245820   2.864   2.634   2.995  0.3294 -0.3860 -0.4610
 8110TIP3    H145821   2.850   2.543   2.970  0.4871 -1.0274  1.5469
 8110TIP3    H245822   2.789   2.656   3.050  1.2259  0.0236  0.6629
 8111TIP3   OH245823   3.153   5.536  11.687  0.4286 -0.3735 -0.3375
 8111TIP3    H145824   3.106   5.594  11.746  2.4436  1.6915 -0.6171
 8111TIP3    H245825   3.181   5.463  11.742  1.8224  1.2407  1.2362
 8112TIP3   OH245826   3.969   1.444   3.421  0.0682 -0.4918  0.2931
 8112TIP3    H145827   3.997   1.518   3.367  0.8331 -0.8383  0.2039
 8112TIP3    H245828   3.897   1.479   3.473 -0.4347 -0.0440 -0.6714
 8113TIP3   OH245829   0.612   0.745   5.949 -0.1226 -0.3291 -0.0943
 8113TIP3    H145830   0.543   0.749   5.882  0.4644  0.0395 -0.6973
 8113TIP3    H245831   0.686   0.706   5.904  1.1107  2.2243 -0.4370
 8114TIP3   OH245832   2.234   0.293   6.355  0.9010  0.2596  0.0904
 8114TIP3    H145833   2.299   0.235   6.315 -0.0543  0.6629 -2.1855
 8114TIP3    H245834   2.155   0.279   6.304 -0.1942  1.4233  1.3922
 8115TIP3   OH245835   2.220   6.840  16.190  0.3520 -0.6208 -0.0644
 8115TIP3    H145836   2.294   6.901  16.189  0.3210 -0.5381  1.0269
 8115TIP3    H245837   2.250   6.766  16.243  1.0616 -2.4949 -2.8837
 8116TIP3   OH245838   0.185   0.717  15.579  0.1932 -0.0683 -0.1920
 8116TIP3    H145839   0.249   0.785  15.562  0.2041 -0.0880 -0.2301
 8116TIP3    H245840   0.160   0.685  15.492 -0.4512  0.4826 -0.2161
 8117TIP3   OH245841   5.103   2.042   2.152  0.4218  0.2923 -0.3524
 8117TIP3    H145842   5.135   2.131   2.132  3.4816 -0.4765  0.6019
 8117TIP3    H245843   5.175   1.985   2.125 -1.3058 -1.8871 -0.5221
 8118TIP3   OH245844   6.633   0.821  14.583 -0.2564 -0.0322 -0.0507
 8118TIP3    H145845   6.579   0.873  14.525  1.0417 -0.0496 -1.3330
 8118TIP3    H245846   6.655   0.743  14.532 -0.2014 -0.6978  0.9600
 8119TIP3   OH245847   6.176   0.606   5.960  0.2055  0.3289 -0.6022
 8119TIP3    H145848   6.224   0.678   6.001 -0.6525  1.6497 -1.7935
 8119TIP3    H245849   6.085   0.623   5.982  0.0670 -0.9162 -0.1725
 8120TIP3   OH245850   3.536   2.146   1.599  0.8880 -0.1763  0.1069
 8120TIP3    H145851   3.482   2.156   1.520  1.2611 -0.1676 -0.1512
 8120TIP3    H245852   3.474   2.119   1.667  0.6842 -0.9565 -0.3700
 8121TIP3   OH245853   0.651   6.785   4.634 -0.1897 -0.4258  0.3300
 8121TIP3    H145854   0.656   6.839   4.555 -2.8610  0.3851  0.5992
 8121TIP3    H245855   0.711   6.712   4.618  2.3972  1.7561 -0.7024
 8122TIP3   OH245856   5.745   6.054   1.636  0.0641 -0.0465  0.0992
 8122TIP3    H145857   5.782   6.135   1.671  0.5885 -0.3765  0.3196
 8122TIP3    H245858   5.729   6.000   1.714 -0.3572 -0.1231 -0.0402
 8123TIP3   OH245859   1.412   3.358   0.665 -0.2557  0.4700 -0.3896
 8123TIP3    H145860   1.421   3.330   0.756 -2.3489  2.1084  0.4188
 8123TIP3    H245861   1.318   3.353   0.648  0.1308 -0.2310 -2.6441
 8124TIP3   OH245862   5.825   0.764  12.538  0.7408 -0.1337 -0.6051
 8124TIP3    H145863   5.755   0.751  12.474  0.9544 -1.5356 -0.5833
 8124TIP3    H245864   5.780   0.775  12.621  0.4888  0.9059 -0.8710
 8125TIP3   OH245865   4.508   6.209  13.753 -0.1641  0.9316  0.2968
 8125TIP3    H145866   4.457   6.265  13.695  1.3631 -0.9343 -3.1520
 8125TIP3    H245867   4.454   6.131  13.764 -0.0405  0.8904  0.6344
 8126TIP3   OH245868   5.403   4.097   5.959  0.0755 -0.3861  0.1233
 8126TIP3    H145869   5.405   4.022   5.899 -0.0247 -1.2274  1.1405
 8126TIP3    H245870   5.454   4.069   6.035  0.3840  0.7392  0.3487
 8127TIP3   OH245871   6.489   1.521   1.018 -0.3743 -0.1892  0.3497
 8127TIP3    H145872   6.446   1.480   1.093 -0.3465  0.3574  0.6744
 8127TIP3    H245873   6.477   1.615   1.033 -0.3520 -0.0765 -0.3249
 8128TIP3   OH245874   2.343   3.176   6.130  0.4479 -0.0660  0.5414
 8128TIP3    H145875   2.418   3.117   6.136  0.3338 -0.3310 -0.5887
 8128TIP3    H245876   2.306   3.161   6.044 -0.1111  1.0309  0.5656
 8129TIP3   OH245877   2.706   3.028  14.834 -0.1096 -0.0558 -0.0936
 8129TIP3    H145878   2.762   3.068  14.901  0.0484 -0.2107 -0.1330
 8129TIP3    H245879   2.633   2.992  14.883 -0.4026  0.5315 -0.0852
 8130TIP3   OH245880   4.738   5.885   3.499  0.3261 -0.1602 -0.2618
 8130TIP3    H145881   4.833   5.893   3.510  0.5913 -0.6579 -1.8492
 8130TIP3    H245882   4.701   5.917   3.581  1.8011  1.5787 -0.2095
 8131TIP3   OH245883   2.857   2.334  14.192  0.3251 -0.1405  1.1321
 8131TIP3    H145884   2.784   2.366  14.244 -0.1888  0.7239 -0.0585
 8131TIP3    H245885   2.818   2.316  14.106  1.5938  0.7291  0.3579
 8132TIP3   OH245886   5.350   1.627   3.307 -0.3582  0.0844  0.6728
 8132TIP3    H145887   5.358   1.621   3.211 -0.7155 -0.1913  0.6566
 8132TIP3    H245888   5.425   1.680   3.334 -1.1845  1.6767  0.0511
 8133TIP3   OH245889   3.811   4.233  15.980  0.5977 -0.0978  0.5572
 8133TIP3    H145890   3.835   4.188  16.061  0.4931  1.6500  1.6145
 8133TIP3    H245891   3.884   4.292  15.963  0.5507 -0.3394 -0.5546
 8134TIP3   OH245892   5.878   1.981   4.920  0.2201 -0.5835  0.4789
 8134TIP3    H145893   5.832   1.915   4.972 -1.0994  0.0132  0.1087
 8134TIP3    H245894   5.935   1.930   4.863 -3.4419 -1.8590 -2.4917
 8135TIP3   OH245895   3.030   3.036  15.516  0.0481 -0.5960 -0.3055
 8135TIP3    H145896   3.018   3.044  15.422 -3.0253 -0.0253  0.0297
 8135TIP3    H245897   3.016   2.943  15.534  0.1999 -0.6279 -0.3478
 8136TIP3   OH245898   0.331   5.045  14.074 -0.0998 -0.3516  0.3307
 8136TIP3    H145899   0.247   5.022  14.034  0.4029  0.9988 -1.6567
 8136TIP3    H245900   0.385   4.967  14.064 -0.2343 -0.2893 -0.9878
 8137TIP3   OH245901   3.431   1.837   0.697 -0.3791 -0.0697 -0.7104
 8137TIP3    H145902   3.368   1.769   0.723 -1.4254  0.9247 -0.5479
 8137TIP3    H245903   3.512   1.813   0.742 -0.9825 -0.7233  0.0568
 8138TIP3   OH245904   4.038   5.034  14.294 -0.0229 -0.1725 -0.2904
 8138TIP3    H145905   4.016   4.954  14.245  0.5787 -0.5337  0.0194
 8138TIP3    H245906   4.055   5.003  14.383 -0.1403  0.3508 -0.0861
 8139TIP3   OH245907   3.428   6.206  12.407  0.3691  0.1333 -0.3856
 8139TIP3    H145908   3.350   6.258  12.426  0.0492 -1.0644  1.9948
 8139TIP3    H245909   3.399   6.115  12.415  1.4102 -0.4198 -2.2642
 8140TIP3   OH245910   3.288   2.578  11.804 -0.0087  0.1981  0.7873
 8140TIP3    H145911   3.341   2.630  11.863  1.0421 -0.4058  0.3942
 8140TIP3    H245912   3.328   2.491  11.804 -0.0885  0.1255 -0.6496
 8141TIP3   OH245913   4.960   6.667   0.125 -0.2905  0.0263 -0.1874
 8141TIP3    H145914   4.974   6.669   0.220  1.7893 -1.0629 -0.4027
 8141TIP3    H245915   4.871   6.699   0.113  0.4374  3.3068  1.8781
 8142TIP3   OH245916   5.245   0.581  15.947 -0.2985 -0.0671  0.1277
 8142TIP3    H145917   5.241   0.555  15.855  2.2176  0.8707 -0.3221
 8142TIP3    H245918   5.308   0.522  15.986  0.3213  0.9417  0.7001
 8143TIP3   OH245919   5.126   3.914   6.670 -0.4705  0.3822 -0.4014
 8143TIP3    H145920   5.175   3.982   6.717  0.9872 -0.2885 -0.8874
 8143TIP3    H245921   5.162   3.832   6.703 -1.2754 -0.1406 -0.7907
 8144TIP3   OH245922   2.679   1.561  11.469  0.2535 -0.1169  0.1141
 8144TIP3    H145923   2.749   1.498  11.486 -1.1845 -1.6360  0.5720
 8144TIP3    H245924   2.676   1.615  11.548 -0.1093 -1.0633  0.7638
 8145TIP3   OH245925   4.226   5.301  11.224  0.3516  0.2791  0.2200
 8145TIP3    H145926   4.313   5.333  11.201  1.4968 -2.5853  0.0827
 8145TIP3    H245927   4.214   5.224  11.167 -1.4212 -0.5304  1.6007
 8146TIP3   OH245928   5.718   6.818  15.803 -0.2259 -0.0066 -0.3208
 8146TIP3    H145929   5.757   6.888  15.751  0.5934 -0.7973 -0.8235
 8146TIP3    H245930   5.749   6.737  15.760 -1.5336 -0.6732 -0.0559
 8147TIP3   OH245931   0.233   2.341  11.248 -0.2246  0.6823 -0.4823
 8147TIP3    H145932   0.296   2.362  11.316  1.2219 -1.3189 -1.1132
 8147TIP3    H245933   0.267   2.385  11.170 -0.1791  0.4388 -0.5987
 8148TIP3   OH245934   3.982   4.395  11.246  0.6560 -0.3013  0.5549
 8148TIP3    H145935   3.935   4.335  11.189  0.3514  1.0220 -0.6453
 8148TIP3    H245936   3.970   4.359  11.334 -1.8133 -0.5276  0.1889
 8149TIP3   OH245937   5.848   3.521   0.704  0.0872  0.2850 -0.0497
 8149TIP3    H145938   5.856   3.586   0.634  0.9077 -0.7301 -0.9274
 8149TIP3    H245939   5.775   3.465   0.677  1.0126 -0.6925 -0.6194
 8150TIP3   OH245940   6.745   1.815   5.407  0.1763 -0.3417 -0.3566
 8150TIP3    H145941   6.838   1.831   5.424  0.0053  0.6827 -0.3132
 8150TIP3    H245942   6.743   1.733   5.358  1.0223 -0.9440  0.5641
 8151TIP3   OH245943   0.559   1.044   3.571 -0.0616  0.1634  0.2600
 8151TIP3    H145944   0.540   0.973   3.508 -0.3818  0.2856  0.2177
 8151TIP3    H245945   0.517   1.015   3.652 -0.0385  0.2219  0.2924
 8152TIP3   OH245946   5.609   2.311   2.282 -0.2512 -0.1180  0.0238
 8152TIP3    H145947   5.657   2.341   2.359  0.1901  0.3872 -0.4417
 8152TIP3    H245948   5.549   2.244   2.316  1.1738 -1.1901  0.5184
 8153TIP3   OH245949   6.768   4.532  12.310 -0.2938  0.1221  0.0163
 8153TIP3    H145950   6.680   4.498  12.296 -0.0567 -0.4494 -0.1645
 8153TIP3    H245951   6.775   4.544  12.405 -0.2328 -0.8080  0.1427
 8154TIP3   OH245952   2.174   5.806   0.436  0.2937  0.1587  0.6532
 8154TIP3    H145953   2.206   5.888   0.400 -1.3759  0.8589  0.6708
 8154TIP3    H245954   2.085   5.826   0.466  0.3878 -1.2749  2.0210
 8155TIP3   OH245955   5.644   6.656   2.187 -0.4520 -0.5587 -0.2526
 8155TIP3    H145956   5.549   6.651   2.197 -0.4487  1.3717  1.2799
 8155TIP3    H245957   5.659   6.731   2.130  0.1514 -1.8664 -1.8985
 8156TIP3   OH245958   5.130   6.595  11.296  0.1442  0.2999  0.3014
 8156TIP3    H145959   5.108   6.528  11.231  0.5107  1.6735 -1.3140
 8156TIP3    H245960   5.100   6.677  11.256  0.0093  1.1502  2.0683
 8157TIP3   OH245961   6.224   1.177  16.219  0.1087  0.1191 -0.0577
 8157TIP3    H145962   6.286   1.140  16.282 -0.6764 -0.9431  0.1075
 8157TIP3    H245963   6.237   1.125  16.140 -0.0983  0.3502 -0.2459
 8158TIP3   OH245964   4.229   0.272  12.142 -0.5002 -0.1009  0.2147
 8158TIP3    H145965   4.162   0.218  12.101 -0.5948 -0.1882  0.4835
 8158TIP3    H245966   4.183   0.351  12.171 -0.3203  0.2348 -0.3809
 8159TIP3   OH245967   1.936   6.715  13.181  0.2178 -1.1548 -0.0980
 8159TIP3    H145968   1.879   6.666  13.122  0.4928 -1.0207 -0.4754
 8159TIP3    H245969   1.905   6.805  13.177  1.1387 -0.8533 -1.1715
 8160TIP3   OH245970   0.724   2.723  13.841 -0.1752  0.2689  0.1614
 8160TIP3    H145971   0.752   2.737  13.932 -1.3911 -1.0425  0.7799
 8160TIP3    H245972   0.628   2.729  13.845 -0.3327 -1.1555 -0.7503
 8161TIP3   OH245973   0.068   1.562  16.907  0.2275  0.1916  0.4754
 8161TIP3    H145974   0.096   1.653  16.892  0.0150  0.2507  0.4335
 8161TIP3    H245975   0.037   1.532  16.822 -0.5489  0.3759  0.6823
 8162TIP3   OH245976   0.747   5.696   0.932 -0.0480  0.5307  0.0232
 8162TIP3    H145977   0.807   5.704   1.006 -1.2421 -0.1779  1.1139
 8162TIP3    H245978   0.777   5.619   0.884 -0.4604 -0.2271  0.9520
 8163TIP3   OH245979   5.663   4.490  11.574  0.4365  0.4600 -0.4466
 8163TIP3    H145980   5.669   4.511  11.480  0.3242  1.1652 -0.3014
 8163TIP3    H245981   5.739   4.532  11.613 -0.6237  1.9630  0.0822
 8164TIP3   OH245982   0.186   0.123  15.095 -0.0164  0.1514 -0.2961
 8164TIP3    H145983   0.099   0.121  15.055  0.3289  0.7723 -1.1229
 8164TIP3    H245984   0.189   0.045  15.150 -0.6722 -0.5360 -1.1873
 8165TIP3   OH245985   2.779   5.042  12.652 -0.2517  0.3035  0.3235
 8165TIP3    H145986   2.830   4.961  12.654 -1.5045 -0.5261 -0.0846
 8165TIP3    H245987   2.844   5.112  12.658  0.8884 -0.7206  0.1806
 8166TIP3   OH245988   3.877   6.770  13.558 -0.2346 -0.1251 -0.7835
 8166TIP3    H145989   3.958   6.813  13.585 -0.8377  1.0524 -0.8195
 8166TIP3    H245990   3.878   6.775  13.462 -0.8819  0.9137 -0.7471
 8167TIP3   OH245991   3.755   6.719  12.414 -0.3423 -0.4682 -0.4474
 8167TIP3    H145992   3.703   6.795  12.388 -0.8897 -0.1415  1.4893
 8167TIP3    H245993   3.697   6.668  12.470  1.4275  0.0204  1.9863
 8168TIP3   OH245994   1.454   3.174   3.344 -0.7174 -0.2277  0.3682
 8168TIP3    H145995   1.497   3.149   3.262  1.9194 -0.0307  1.6075
 8168TIP3    H245996   1.449   3.092   3.394 -2.7395 -0.4451 -0.0754
 8169TIP3   OH245997   0.539   0.815   4.521 -0.1974  0.4125 -0.1230
 8169TIP3    H145998   0.616   0.810   4.466 -0.1694 -0.3905 -0.0218
 8169TIP3    H245999   0.466   0.794   4.463 -0.1008 -1.1076  0.2725
 8170TIP3   OH246000   1.565   5.813   1.591 -1.1165 -0.4975 -0.4275
 8170TIP3    H146001   1.592   5.896   1.551 -0.4130  0.6903  2.2903
 8170TIP3    H246002   1.581   5.747   1.523  1.8924  1.0901 -1.4300
 8171TIP3   OH246003   5.356   0.209   1.346 -0.7751 -0.2398 -0.3088
 8171TIP3    H146004   5.349   0.304   1.341  2.0840  0.0178 -3.0194
 8171TIP3    H246005   5.324   0.178   1.261  0.4892 -1.4262 -0.3946
 8172TIP3   OH246006   4.747   5.158   3.565  0.8289  0.3469  0.4934
 8172TIP3    H146007   4.680   5.145   3.498 -0.0023 -0.4374  1.4303
 8172TIP3    H246008   4.815   5.093   3.543  0.0684 -0.6502  0.9843
 8173TIP3   OH246009   6.713   4.302  12.711  0.2532 -0.3481  0.1815
 8173TIP3    H146010   6.763   4.314  12.792  0.6338 -0.5351 -0.0268
 8173TIP3    H246011   6.747   4.368  12.652  0.8405 -1.0156 -0.2394
 8174TIP3   OH246012   2.802   2.327   3.967  0.3102  0.0981  0.2773
 8174TIP3    H146013   2.823   2.255   3.908  1.5791 -0.3711  1.2412
 8174TIP3    H246014   2.712   2.350   3.947  0.4129 -0.6753 -1.1706
 8175TIP3   OH246015   2.104   3.227  13.260  0.0996  0.2736 -0.5466
 8175TIP3    H146016   2.198   3.231  13.246  0.2787  1.9588  0.8710
 8175TIP3    H246017   2.083   3.306  13.309 -1.5176 -1.5863  2.0752
 8176TIP3   OH246018   2.451   6.673  16.526 -0.3958 -0.3274  0.1839
 8176TIP3    H146019   2.492   6.751  16.564  1.1552 -0.6566 -0.7183
 8176TIP3    H246020   2.436   6.697  16.434  1.6448 -1.5884 -0.5515
 8177TIP3   OH246021   6.413   4.101  16.731  0.3077  0.6746  0.0884
 8177TIP3    H146022   6.445   4.162  16.799  0.5987 -0.9453  1.4607
 8177TIP3    H246023   6.492   4.075  16.684  0.4019  0.1701  0.5191
 8178TIP3   OH246024   1.202   0.039  15.468 -0.3533 -0.2639 -0.0427
 8178TIP3    H146025   1.181   0.077  15.382  2.0132 -0.1573 -0.6380
 8178TIP3    H246026   1.188  -0.055  15.456 -1.2164 -0.1327 -0.1467
 8179TIP3   OH246027   2.772   1.738  14.565 -0.0837  0.0526  0.4540
 8179TIP3    H146028   2.800   1.823  14.601  0.8016 -0.3568  0.7495
 8179TIP3    H246029   2.852   1.685  14.564 -0.6157 -0.7540  0.1899
 8180TIP3   OH246030   2.868   1.545   0.012  0.0272 -0.4485 -0.2337
 8180TIP3    H146031   2.826   1.505   0.087  1.5605 -2.7953 -0.5272
 8180TIP3    H246032   2.958   1.564   0.040  0.4005 -0.6399 -1.2294
 8181TIP3   OH246033   5.630   1.661   4.083 -0.0309 -0.1754  0.3550
 8181TIP3    H146034   5.689   1.720   4.036  0.3832  0.0182  1.1084
 8181TIP3    H246035   5.629   1.694   4.173  0.9964 -1.8618  1.0487
 8182TIP3   OH246036   2.870   5.888  15.546 -0.2192  0.5718 -0.4152
 8182TIP3    H146037   2.916   5.935  15.615 -0.4782  0.0008  0.1566
 8182TIP3    H246038   2.779   5.916  15.554 -0.2710  0.4125 -0.4471
 8183TIP3   OH246039   5.724   0.866  12.991 -0.1723 -0.8967  0.2858
 8183TIP3    H146040   5.685   0.878  13.078  1.7514  0.4094  1.0561
 8183TIP3    H246041   5.772   0.948  12.975  0.8179 -1.7389 -1.2936
 8184TIP3   OH246042   6.038   4.799   5.575 -0.9229  0.4093  0.2122
 8184TIP3    H146043   5.950   4.800   5.613 -1.1856 -0.0835 -0.3684
 8184TIP3    H246044   6.053   4.889   5.547 -1.4002  0.4194 -0.0273
 8185TIP3   OH246045   5.868   3.612   2.666 -0.5267 -0.0433  0.2436
 8185TIP3    H146046   5.829   3.681   2.720 -0.4604  1.7279 -1.8519
 8185TIP3    H246047   5.887   3.541   2.728 -1.2442  1.5190  2.3625
 8186TIP3   OH246048   6.641   0.804  15.772 -0.4183  0.0766  0.0614
 8186TIP3    H146049   6.724   0.836  15.808 -0.1768 -0.4565  0.0005
 8186TIP3    H246050   6.661   0.785  15.680 -0.5967 -0.0761  0.0537
 8187TIP3   OH246051   5.462   3.810  15.482 -0.1245  0.2254 -0.0661
 8187TIP3    H146052   5.537   3.809  15.422  0.0402 -1.8280  0.1082
 8187TIP3    H246053   5.386   3.815  15.424  0.0884  1.0360 -0.2968
 8188TIP3   OH246054   0.198   5.833  17.015  0.6572 -0.0107  0.1984
 8188TIP3    H146055   0.145   5.771  16.965  0.0465  0.4530  0.2599
 8188TIP3    H246056   0.266   5.861  16.954  0.6301 -0.3449  0.0091
 8189TIP3   OH246057   2.330   5.485  15.012  0.2627 -0.2652 -0.3440
 8189TIP3    H146058   2.238   5.469  15.034  1.1709 -2.4409  2.6721
 8189TIP3    H246059   2.366   5.398  14.997  2.1307  0.4066 -0.0139
 8190TIP3   OH246060   4.855   2.495  12.587  0.2319  0.7164  0.8143
 8190TIP3    H146061   4.793   2.524  12.654  1.6699 -0.4766  2.7814
 8190TIP3    H246062   4.840   2.401  12.580  0.9698  0.6201  0.4153
 8191TIP3   OH246063   3.014   1.410   5.967 -0.2957 -0.2045 -0.5280
 8191TIP3    H146064   3.085   1.415   6.031  1.0187  0.1866 -1.9633
 8191TIP3    H246065   3.017   1.494   5.922 -1.8884 -0.0661 -0.4392
 8192TIP3   OH246066   1.629   2.403  13.565 -0.1027 -0.3160  0.0324
 8192TIP3    H146067   1.538   2.395  13.537  0.0475  0.2188 -0.6210
 8192TIP3    H246068   1.660   2.312  13.573 -0.6594 -0.4951  0.1652
 8193TIP3   OH246069   2.885   3.050  16.744  0.2466  0.2533 -0.6265
 8193TIP3    H146070   2.974   3.058  16.708 -0.1449  2.8128 -1.2124
 8193TIP3    H246071   2.896   3.069  16.837  0.1306  2.4569 -1.0126
 8194TIP3   OH246072   0.084   5.748   5.270 -0.2982 -0.1293 -0.2055
 8194TIP3    H146073   0.144   5.823   5.263  0.2970 -0.6620 -1.1092
 8194TIP3    H246074   0.126   5.680   5.217 -0.9243 -1.0404  0.4514
 8195TIP3   OH246075   1.556   1.011   4.542 -0.5090  0.1351  0.4057
 8195TIP3    H146076   1.470   1.017   4.582  0.0732 -0.8730  1.8861
 8195TIP3    H246077   1.595   1.097   4.556 -1.0614  0.4159  0.2237
 8196TIP3   OH246078   0.156   0.062   2.592 -0.4889  0.0601  0.3193
 8196TIP3    H146079   0.247   0.075   2.565 -0.4657  0.3987  0.5456
 8196TIP3    H246080   0.157  -0.021   2.640 -0.2093  0.2772  0.6979
 8197TIP3   OH246081   1.630   4.809   4.624 -0.2786 -0.5790  0.4725
 8197TIP3    H146082   1.701   4.827   4.563 -1.5357  0.9734 -0.6300
 8197TIP3    H246083   1.673   4.792   4.708  1.3955  4.1564  0.8588
 8198TIP3   OH246084   5.921   5.571   1.922 -0.7977  0.5685 -0.8182
 8198TIP3    H146085   5.950   5.576   1.831 -0.7923  0.7477 -0.8062
 8198TIP3    H246086   5.910   5.477   1.938 -1.1703  0.5593 -1.1187
 8199TIP3   OH246087   5.132   2.680   5.029 -0.5110 -0.3344  0.3932
 8199TIP3    H146088   5.068   2.654   4.963 -0.7172  1.3604 -0.1312
 8199TIP3    H246089   5.150   2.600   5.078 -1.4136 -1.3158 -0.8159
 8200TIP3   OH246090   6.116   1.735   2.217 -0.0282 -0.0993  0.1478
 8200TIP3    H146091   6.111   1.641   2.236 -0.4828 -0.4064 -1.3822
 8200TIP3    H246092   6.051   1.774   2.275 -0.3034 -0.8059  0.3322
 8201TIP3   OH246093   3.799   2.045  12.083 -0.0220 -0.0869  0.5678
 8201TIP3    H146094   3.783   1.951  12.092  0.8200 -0.3293 -0.1995
 8201TIP3    H246095   3.802   2.078  12.172  0.7507 -0.9965  0.8957
 8202TIP3   OH246096   5.874   2.350  15.210 -0.2507 -0.5300 -0.7022
 8202TIP3    H146097   5.890   2.357  15.116  0.1049  1.3817 -0.5486
 8202TIP3    H246098   5.940   2.289  15.241 -0.2795 -1.0688 -1.6628
 8203TIP3   OH246099   6.152   4.518  14.916 -0.4015 -0.1523 -0.1556
 8203TIP3    H146100   6.176   4.611  14.921  2.2435 -0.8056  0.6322
 8203TIP3    H246101   6.094   4.505  14.991 -1.1277  0.9177 -0.5022
 8204TIP3   OH246102   1.202   3.457   6.000  0.2741  0.5988 -0.3363
 8204TIP3    H146103   1.109   3.479   5.999  0.2546  0.5814  0.5084
 8204TIP3    H246104   1.206   3.372   6.042  0.7039  0.7779 -0.0081
 8205TIP3   OH246105   2.642   5.399  15.032  0.3128  0.3262 -0.4914
 8205TIP3    H146106   2.575   5.463  15.057  0.6963  0.8276 -0.7309
 8205TIP3    H246107   2.722   5.429  15.075  0.1289 -0.9675  0.8247
 8206TIP3   OH246108   4.352   4.833   1.177 -0.1433 -0.5448  0.3445
 8206TIP3    H146109   4.354   4.827   1.082  1.5404 -0.2044  0.3255
 8206TIP3    H246110   4.444   4.834   1.203 -0.5511  0.4844  1.8946
 8207TIP3   OH246111   0.613   0.067  16.318  0.2415 -1.6643 -0.2592
 8207TIP3    H146112   0.665   0.028  16.388  0.9488 -1.0135 -0.4073
 8207TIP3    H246113   0.675   0.119  16.268 -0.9388  1.1820  1.0066
 8208TIP3   OH246114   1.178   3.431   5.105 -0.0029  0.2872 -0.3500
 8208TIP3    H146115   1.169   3.461   5.196  1.1443  1.0438 -0.4601
 8208TIP3    H246116   1.243   3.490   5.068 -0.4140 -0.0602 -1.6533
 8209TIP3   OH246117   5.154   0.267   5.506  0.9065  0.2586  0.2252
 8209TIP3    H146118   5.193   0.306   5.585  0.0889  0.5157  0.5123
 8209TIP3    H246119   5.121   0.182   5.534 -1.8578  1.4591  0.8968
 8210TIP3   OH246120   2.025   4.520  16.043 -0.2196  0.0657  0.2400
 8210TIP3    H146121   2.036   4.519  16.138  1.1476  2.1431  0.1672
 8210TIP3    H246122   1.957   4.585  16.027  1.2962  1.6177 -0.2567
 8211TIP3   OH246123   2.906   2.886   1.853 -0.4986 -0.7910 -0.5254
 8211TIP3    H146124   2.884   2.822   1.921 -2.3093 -1.0646 -1.2935
 8211TIP3    H246125   2.970   2.842   1.798  0.9117 -0.6079  0.8844
 8212TIP3   OH246126   4.935   0.833   0.566  0.0511 -0.5556  0.0941
 8212TIP3    H146127   5.020   0.829   0.610 -0.7013  0.9036  1.8033
 8212TIP3    H246128   4.956   0.822   0.473  2.3235  1.4196  0.2669
 8213TIP3   OH246129   3.457   5.350   5.497 -0.2918  0.6417  0.1870
 8213TIP3    H146130   3.449   5.271   5.549  0.0710  0.9147  0.6680
 8213TIP3    H246131   3.509   5.409   5.551  0.5865  0.7262 -0.7121
 8214TIP3   OH246132   6.137   6.660   6.121  0.4374 -0.0016 -0.0478
 8214TIP3    H146133   6.056   6.628   6.081  0.4701 -0.0210 -0.0994
 8214TIP3    H246134   6.114   6.745   6.158  0.5610  0.2959 -0.6459
 8215TIP3   OH246135   6.128   1.978  12.607 -0.4052  0.2353 -0.4409
 8215TIP3    H146136   6.036   2.001  12.614 -0.9111 -1.7139 -0.0076
 8215TIP3    H246137   6.164   2.039  12.542 -1.6065  2.0285  0.5005
 8216TIP3   OH246138   2.674   2.092   1.096 -0.2560 -0.1889  0.1269
 8216TIP3    H146139   2.759   2.129   1.075 -0.3560 -0.9519 -1.9420
 8216TIP3    H246140   2.612   2.142   1.042 -0.8699 -0.8218  0.2197
 8217TIP3   OH246141   1.937   3.669   4.284 -0.5393 -0.0602  0.1669
 8217TIP3    H146142   1.942   3.674   4.188 -1.6219 -1.1177  0.0252
 8217TIP3    H246143   1.927   3.759   4.313  1.2045  0.4170 -0.6059
 8218TIP3   OH246144   3.998   5.785  14.510  0.1883  0.0076 -0.2287
 8218TIP3    H146145   3.999   5.870  14.466 -2.5572  0.4484  0.3535
 8218TIP3    H246146   3.921   5.741  14.474 -0.1419 -1.0042  1.6220
 8219TIP3   OH246147   3.115   3.825  14.575  0.3241  0.6114  0.1870
 8219TIP3    H146148   3.075   3.842  14.660 -0.4015 -0.8674  0.1777
 8219TIP3    H246149   3.062   3.754  14.538  1.1329  0.6714 -1.1420
 8220TIP3   OH246150   4.216   5.294   5.199  0.6062 -0.0637  0.2794
 8220TIP3    H146151   4.128   5.306   5.164 -0.0385  0.3773  1.9800
 8220TIP3    H246152   4.270   5.353   5.147 -0.2545  0.3198 -0.1993
 8221TIP3   OH246153   0.689   2.353   1.214 -0.3500  0.6186 -0.1138
 8221TIP3    H146154   0.607   2.324   1.255  0.1318  1.0215  1.1705
 8221TIP3    H246155   0.702   2.442   1.247  0.2112  0.8469 -0.9311
 8222TIP3   OH246156   0.868   3.805  13.207 -0.3173  1.0448 -0.2661
 8222TIP3    H146157   0.846   3.868  13.137 -2.7114 -0.1460 -0.6860
 8222TIP3    H246158   0.817   3.835  13.282 -0.7455  0.1529 -0.1953
 8223TIP3   OH246159   2.214   2.201  11.859 -0.2719 -0.1270  0.0179
 8223TIP3    H146160   2.121   2.212  11.839 -0.4786 -1.2552  0.2972
 8223TIP3    H246161   2.233   2.110  11.837  0.2030 -0.5771  2.0869
 8224TIP3   OH246162   3.378   1.692  16.802 -0.6422 -0.1594 -0.0334
 8224TIP3    H146163   3.346   1.735  16.881 -2.5930  1.4901 -1.6024
 8224TIP3    H246164   3.303   1.641  16.770 -0.8451  1.3608 -2.2071
 8225TIP3   OH246165   3.583   6.476  13.225 -0.9774 -0.2247 -0.0150
 8225TIP3    H146166   3.586   6.475  13.130 -2.0027 -0.0666 -0.0633
 8225TIP3    H246167   3.616   6.391  13.252 -0.6257 -0.2446 -0.5061
 8226TIP3   OH246168   2.669   5.658   4.885  0.2719 -0.3234  0.6774
 8226TIP3    H146169   2.651   5.696   4.799 -1.0001  1.1919  1.5531
 8226TIP3    H246170   2.641   5.567   4.877 -1.6037  0.2593 -0.0121
 8227TIP3   OH246171   4.556   5.460  16.949  0.5751 -0.4962 -0.5919
 8227TIP3    H146172   4.505   5.442  16.870  0.4890 -0.2160 -0.6005
 8227TIP3    H246173   4.578   5.373  16.983  0.7370 -0.6192 -1.0021
 8228TIP3   OH246174   5.544   3.404  11.552  0.1613  0.1758  0.3950
 8228TIP3    H146175   5.555   3.494  11.582  0.1421  0.3610 -0.1348
 8228TIP3    H246176   5.627   3.361  11.572  1.1481  0.9894 -1.6162
 8229TIP3   OH246177   1.369   5.353   1.174  0.0969  0.0314  0.0928
 8229TIP3    H146178   1.379   5.284   1.109 -0.4253  0.5184 -0.5141
 8229TIP3    H246179   1.300   5.321   1.233 -0.8493  0.4483 -0.7614
 8230TIP3   OH246180   5.036   0.752   2.292 -0.4758  0.0219 -0.1550
 8230TIP3    H146181   4.978   0.788   2.225 -1.3831  0.5033  0.8435
 8230TIP3    H246182   5.009   0.796   2.373 -1.8607 -3.0578  1.2254
 8231TIP3   OH246183   1.605   2.071  16.922  0.0969 -0.1591  0.0919
 8231TIP3    H146184   1.617   2.019  17.002  0.7110 -0.8483 -0.4263
 8231TIP3    H246185   1.671   2.140  16.929  1.9386 -1.7076 -0.9695
 8232TIP3   OH246186   0.434   2.223  10.923 -0.2266 -0.4765 -0.7611
 8232TIP3    H146187   0.414   2.273  10.844  0.0455  0.6150 -0.1588
 8232TIP3    H246188   0.516   2.261  10.956 -0.8364 -0.2612  0.5671
 8233TIP3   OH246189   3.814   3.068   1.180 -0.4333 -0.3979  0.0651
 8233TIP3    H146190   3.753   3.141   1.173 -0.5145 -0.4642  0.0824
 8233TIP3    H246191   3.759   2.991   1.184 -0.3645 -0.4273  0.5038
 8234TIP3   OH246192   1.417   2.105   1.565 -0.5827 -0.2484  0.2672
 8234TIP3    H146193   1.494   2.052   1.547  1.6396  2.3915  1.3583
 8234TIP3    H246194   1.406   2.160   1.487 -1.4584 -0.6755  0.0749
 8235TIP3   OH246195   1.241   0.558   1.766  0.1167 -0.2337  0.6031
 8235TIP3    H146196   1.174   0.515   1.820  0.1925 -3.4657 -1.5880
 8235TIP3    H246197   1.323   0.514   1.789  0.3470 -0.8075 -1.1462
 8236TIP3   OH246198   0.130   2.613  13.694  0.0828  0.4939  0.3617
 8236TIP3    H146199   0.096   2.680  13.633 -0.0062  0.8399  0.7893
 8236TIP3    H246200   0.204   2.575  13.648  0.8013  1.6330  0.5476
 8237TIP3   OH246201   0.887   1.889  15.665  0.3747  0.4009  0.4086
 8237TIP3    H146202   0.883   1.957  15.733  1.3354 -0.6820  1.5944
 8237TIP3    H246203   0.977   1.856  15.670 -0.6429 -2.5302  1.4683
 8238TIP3   OH246204   1.560   3.843  14.044  0.3063  0.2017  0.2088
 8238TIP3    H146205   1.531   3.860  14.134  1.6046 -0.8157  0.8504
 8238TIP3    H246206   1.609   3.761  14.050  3.5383  1.9089 -0.7278
 8239TIP3   OH246207   6.118   3.488  15.551 -0.3399 -0.3320  0.1704
 8239TIP3    H146208   6.179   3.463  15.482 -0.4074 -1.6360  0.5362
 8239TIP3    H246209   6.048   3.535  15.507 -0.0634 -0.5843 -0.5457
 8240TIP3   OH246210   1.362   3.964  13.754  0.5983  0.1052 -0.0259
 8240TIP3    H146211   1.373   3.891  13.815 -0.9027  0.0362  0.1960
 8240TIP3    H246212   1.322   4.033  13.807  0.5939  0.5518 -0.6040
 8241TIP3   OH246213   2.072   0.106  11.461  0.2620  1.1735  0.1485
 8241TIP3    H146214   2.013   0.071  11.528  0.6234  0.3551  0.0520
 8241TIP3    H246215   2.108   0.186  11.500  1.0571  0.3158  1.2680
 8242TIP3   OH246216   2.908   2.206   1.020 -0.2095  0.0350  0.0415
 8242TIP3    H146217   2.935   2.269   1.087 -0.1621 -0.6005  0.6226
 8242TIP3    H246218   2.984   2.198   0.962  0.2459 -0.4620  0.7008
 8243TIP3   OH246219   5.157   5.945  14.091  0.7851  0.2022 -0.3459
 8243TIP3    H146220   5.201   5.862  14.110 -0.9020 -0.6355  0.1716
 8243TIP3    H246221   5.096   5.956  14.164  0.0115  1.2052 -1.1210
 8244TIP3   OH246222   4.758   4.379  16.105 -0.4986 -0.0835  0.0642
 8244TIP3    H146223   4.845   4.350  16.079 -0.9370 -0.4415 -1.0435
 8244TIP3    H246224   4.740   4.333  16.187 -0.4411 -1.5469 -0.7186
 8245TIP3   OH246225   0.039   4.757   4.132 -0.2595 -0.5900 -0.6865
 8245TIP3    H146226   0.046   4.694   4.203  0.2396 -1.3733 -1.4144
 8245TIP3    H246227  -0.001   4.834   4.173 -1.4875 -1.5841  0.0770
 8246TIP3   OH246228   4.188   5.574   0.229 -0.1733 -0.3700  0.1300
 8246TIP3    H146229   4.240   5.554   0.151  0.4622  0.4155  0.3417
 8246TIP3    H246230   4.239   5.539   0.302 -0.7995 -1.1652  0.2082
 8247TIP3   OH246231   1.658   1.072  13.640  0.1075 -0.1697  0.4927
 8247TIP3    H146232   1.614   1.116  13.567  1.0890 -0.0600 -0.0515
 8247TIP3    H246233   1.730   1.024  13.599  1.2740  0.6673  1.4820
 8248TIP3   OH246234   1.809   5.863  15.140  0.5178  0.2524 -0.3288
 8248TIP3    H146235   1.722   5.825  15.127  0.1722  0.3726  1.3814
 8248TIP3    H246236   1.867   5.811  15.084 -0.5443 -0.2930 -0.9480
 8249TIP3   OH246237   3.415   1.777  12.473  0.0238  0.1577  0.6058
 8249TIP3    H146238   3.433   1.782  12.379 -0.4556 -1.5691  0.3973
 8249TIP3    H246239   3.433   1.865  12.505 -0.1932  0.8860 -1.1674
 8250TIP3   OH246240   1.594   2.046  13.334 -0.1705  0.2662 -0.5051
 8250TIP3    H146241   1.569   2.123  13.282  0.1353 -0.5497 -1.8877
 8250TIP3    H246242   1.515   2.025  13.385 -0.0569  1.8793  0.4319
 8251TIP3   OH246243   3.204   3.236  16.405  0.1594 -0.0605  0.4532
 8251TIP3    H146244   3.233   3.322  16.372  0.1737  0.2554  1.2739
 8251TIP3    H246245   3.185   3.186  16.326 -2.0658  1.4624 -0.0618
 8252TIP3   OH246246   0.556   5.199   6.351 -0.4037  0.1124 -0.8557
 8252TIP3    H146247   0.645   5.233   6.359 -0.6652  0.8775 -1.0900
 8252TIP3    H246248   0.554   5.123   6.408  0.2544  0.3896 -0.4545
 8253TIP3   OH246249   6.061   3.309  13.989 -0.0876  0.1102 -0.4504
 8253TIP3    H146250   6.055   3.321  13.894  0.6119 -3.2364 -1.0473
 8253TIP3    H246251   5.999   3.372  14.026 -0.5597  1.3264 -3.1129
 8254TIP3   OH246252   0.137   4.825  12.746 -0.5930 -0.7548  0.0063
 8254TIP3    H146253   0.224   4.837  12.708 -1.0898  3.1648 -0.3353
 8254TIP3    H246254   0.148   4.844  12.839 -1.0312 -0.3325 -0.0198
 8255TIP3   OH246255   6.079   3.014  12.294  0.0677 -0.1553 -0.0163
 8255TIP3    H146256   6.004   3.067  12.321 -0.6131 -1.7036  1.2968
 8255TIP3    H246257   6.078   2.939  12.354  3.8854  0.7495  1.4732
 8256TIP3   OH246258   4.754   1.146  15.643 -0.2116 -0.3591  0.4690
 8256TIP3    H146259   4.771   1.173  15.733 -0.5195  1.1891  0.0895
 8256TIP3    H246260   4.798   1.212  15.589  1.1779 -2.0331 -0.5457
 8257TIP3   OH246261   1.884   4.255   1.072 -0.0134 -0.1734 -0.0713
 8257TIP3    H146262   1.852   4.343   1.088  0.5849  0.1213 -0.4428
 8257TIP3    H246263   1.978   4.266   1.054 -0.1091 -0.7660 -1.0632
 8258TIP3   OH246264   3.067   0.664  13.248 -0.1567  0.0607 -0.4247
 8258TIP3    H146265   2.995   0.645  13.308 -0.5154  0.2543 -0.7866
 8258TIP3    H246266   3.134   0.599  13.269 -0.4442 -0.1321 -0.0948
 8259TIP3   OH246267   4.433   1.919  15.141  0.1880  0.3640  0.3995
 8259TIP3    H146268   4.489   1.842  15.128  0.9530  0.9802 -0.0148
 8259TIP3    H246269   4.369   1.891  15.207  0.1785 -0.7684 -0.0778
 8260TIP3   OH246270   3.827   2.213  12.318 -0.4385 -0.2618  0.6964
 8260TIP3    H146271   3.888   2.240  12.249 -0.2637  4.4414  2.3048
 8260TIP3    H246272   3.884   2.198  12.394 -0.9292  1.8077  1.5656
 8261TIP3   OH246273   1.913   5.024  16.849  0.4006 -0.3772 -0.4141
 8261TIP3    H146274   1.832   4.975  16.838  2.4236 -3.9026 -0.9934
 8261TIP3    H246275   1.934   5.057  16.762 -0.2142  0.2781 -0.3222
 8262TIP3   OH246276   3.328   4.235   1.456  0.1879 -0.2475 -0.1766
 8262TIP3    H146277   3.399   4.298   1.458  1.2506 -1.3415 -1.3246
 8262TIP3    H246278   3.254   4.281   1.495  0.9516  1.6342 -0.8218
 8263TIP3   OH246279   6.168   2.568  10.415 -0.4578  0.2868  0.0923
 8263TIP3    H146280   6.112   2.587  10.339 -1.2804 -1.5825  0.1850
 8263TIP3    H246281   6.239   2.515  10.379 -0.9652 -0.7897  0.6374
 8264TIP3   OH246282   3.348   6.673   0.527 -0.0234  0.1038 -0.3247
 8264TIP3    H146283   3.358   6.579   0.544  0.5552  0.0041 -1.1685
 8264TIP3    H246284   3.259   6.694   0.558  0.4430 -0.3494  1.4482
 8265TIP3   OH246285   4.962   3.419  13.649 -0.0866 -0.0353 -0.0097
 8265TIP3    H146286   4.920   3.337  13.624  1.2879 -1.0196  0.7817
 8265TIP3    H246287   4.903   3.487  13.616 -1.8748 -1.3279  0.3478
 8266TIP3   OH246288   4.442   0.798  15.271  0.2881 -0.4945 -0.5678
 8266TIP3    H146289   4.462   0.851  15.348  0.8941 -0.4884 -0.7251
 8266TIP3    H246290   4.509   0.823  15.206  0.4146 -1.2399 -0.7376
 8267TIP3   OH246291   3.258   2.094  10.997  0.4176  0.5754  0.4253
 8267TIP3    H146292   3.181   2.149  11.001 -0.4823 -0.7077  1.3949
 8267TIP3    H246293   3.325   2.141  11.047 -0.7794  0.1382  2.5405
 8268TIP3   OH246294   6.324   5.480   5.336  0.5005 -0.1504 -0.4390
 8268TIP3    H146295   6.348   5.561   5.380 -3.0150  0.9143 -0.1951
 8268TIP3    H246296   6.270   5.508   5.262 -0.6676 -2.2210 -0.4387
 8269TIP3   OH246297   2.507   6.635   2.698 -0.4031  0.3672 -0.2929
 8269TIP3    H146298   2.458   6.560   2.731  0.1723 -0.8089 -1.9792
 8269TIP3    H246299   2.595   6.625   2.734  0.3423 -1.1440 -2.3136
 8270TIP3   OH246300   2.228   5.809  11.261 -0.0566  0.7666 -0.1902
 8270TIP3    H146301   2.260   5.898  11.247  2.1362  0.0496 -0.1787
 8270TIP3    H246302   2.183   5.812  11.345  2.5239  1.3204  1.2688
 8271TIP3   OH246303   1.422   4.531  15.372 -0.1198  0.2119  0.0236
 8271TIP3    H146304   1.346   4.569  15.328 -0.3521  0.5355  0.6881
 8271TIP3    H246305   1.464   4.477  15.305  0.7181  2.3070 -1.2074
 8272TIP3   OH246306   5.470   5.279   0.865  0.1777  0.2706  0.3875
 8272TIP3    H146307   5.501   5.259   0.954  0.3614  2.3426  0.8263
 8272TIP3    H246308   5.375   5.287   0.874  0.1508  0.0640  0.2985
 8273TIP3   OH246309   6.746   6.306  15.544 -0.3912 -0.2971  0.3746
 8273TIP3    H146310   6.814   6.241  15.562  0.1464  0.1417 -0.0467
 8273TIP3    H246311   6.773   6.346  15.461 -0.7285  0.4453  0.6183
 8274TIP3   OH246312   4.697   5.398  15.037  0.1000  0.8662  0.0668
 8274TIP3    H146313   4.634   5.403  14.965  0.0798  0.0047  0.0134
 8274TIP3    H246314   4.679   5.476  15.090 -0.6168  0.9361 -0.2607
 8275TIP3   OH246315   0.594   3.981   2.973 -0.4367  0.3348 -0.2083
 8275TIP3    H146316   0.667   3.948   3.025 -2.1831 -0.8590  1.6398
 8275TIP3    H246317   0.537   3.905   2.960 -1.3791  1.2265 -1.5342
 8276TIP3   OH246318   0.135   5.472  12.950  0.0196  0.1889 -0.0168
 8276TIP3    H146319   0.178   5.502  13.030  1.5280 -0.5379 -0.5077
 8276TIP3    H246320   0.143   5.546  12.889 -0.8189  0.6137  0.3715
 8277TIP3   OH246321   4.155   0.060  16.526  0.2329  0.1405  0.0427
 8277TIP3    H146322   4.089   0.026  16.466  1.9691 -2.0184 -0.8134
 8277TIP3    H246323   4.167  -0.011  16.590  1.4106  0.6643  0.4265
 8278TIP3   OH246324   6.146   5.261  13.414  0.4206 -0.5666 -0.2154
 8278TIP3    H146325   6.202   5.324  13.459  1.8257 -0.6938 -1.7189
 8278TIP3    H246326   6.165   5.177  13.457 -1.0536 -0.1212  1.4224
 8279TIP3   OH246327   1.925   0.186  12.731  0.3084 -0.3009 -0.0324
 8279TIP3    H146328   1.977   0.267  12.724  1.5092 -0.8039  2.1907
 8279TIP3    H246329   1.836   0.217  12.752  0.2124  0.4793 -1.4381
 8280TIP3   OH246330   0.234   4.724  13.100  0.5593  0.4906  0.5452
 8280TIP3    H146331   0.183   4.799  13.070 -1.6524 -1.2710 -0.4077
 8280TIP3    H246332   0.247   4.740  13.194 -1.1409  1.3957  0.6722
 8281TIP3   OH246333   2.426   1.637   1.491  0.3744  0.0107 -0.4512
 8281TIP3    H146334   2.514   1.599   1.499  0.8967  1.1950 -0.3162
 8281TIP3    H246335   2.430   1.691   1.412 -0.0628  0.4954 -0.1489
 8282TIP3   OH246336   4.273   4.277  14.688  0.1476 -0.3278 -0.2594
 8282TIP3    H146337   4.185   4.274  14.726  0.1546 -0.7154 -0.2646
 8282TIP3    H246338   4.260   4.317  14.602 -0.1826 -1.2688 -0.6599
 8283TIP3   OH246339   1.749   0.207   5.585  0.3322 -0.8482 -0.2435
 8283TIP3    H146340   1.778   0.246   5.668  0.1626 -0.4150 -0.3881
 8283TIP3    H246341   1.659   0.237   5.575  0.0907 -1.5465 -0.1909
 8284TIP3   OH246342   5.646   1.422   2.973 -0.0947  0.5666  0.4151
 8284TIP3    H146343   5.689   1.433   2.888  0.0001  0.2969  0.4295
 8284TIP3    H246344   5.717   1.405   3.035 -0.2232  0.0793  0.4323
 8285TIP3   OH246345   4.858   5.876  12.115  0.1963  0.5889  0.2528
 8285TIP3    H146346   4.852   5.812  12.187 -0.6959 -0.5883 -0.8144
 8285TIP3    H246347   4.931   5.932  12.140  0.3343 -0.1833  1.7662
 8286TIP3   OH246348   0.281   4.276   3.618 -0.0912  0.1525 -0.1915
 8286TIP3    H146349   0.328   4.312   3.543 -0.9854  1.6602 -0.0643
 8286TIP3    H246350   0.190   4.300   3.604 -0.2599  0.6485  1.4509
 8287TIP3   OH246351   5.952   3.093  14.123 -0.0030  0.5074 -0.0584
 8287TIP3    H146352   5.941   3.155  14.195 -0.9223 -0.2696  0.4952
 8287TIP3    H246353   6.006   3.139  14.059  0.2222  1.4761  0.8112
 8288TIP3   OH246354   2.748   4.093   1.680 -0.5267  0.5907  0.0326
 8288TIP3    H146355   2.822   4.128   1.729 -1.9766 -0.6851  3.4892
 8288TIP3    H246356   2.700   4.170   1.650  0.6103  1.4500  0.3420
 8289TIP3   OH246357   5.638   6.686   1.563  0.3383  0.3658 -0.3595
 8289TIP3    H146358   5.581   6.738   1.507  1.6500  0.5691 -1.5924
 8289TIP3    H246359   5.646   6.602   1.517 -0.3172 -0.2968  0.6857
 8290TIP3   OH246360   6.332   4.112  11.085  0.2228 -0.3433  0.0961
 8290TIP3    H146361   6.396   4.085  11.019  0.0874 -0.6524  0.0894
 8290TIP3    H246362   6.273   4.170  11.038  1.4374  1.2833  0.4797
 8291TIP3   OH246363   5.250   2.439  16.455  0.5222  0.2001  0.3535
 8291TIP3    H146364   5.223   2.348  16.466  1.9785 -0.5979 -1.9938
 8291TIP3    H246365   5.259   2.472  16.545 -2.5107 -1.1215  1.2756
 8292TIP3   OH246366   5.275   3.379  14.627 -0.4727  0.4232  0.3464
 8292TIP3    H146367   5.187   3.342  14.640 -0.3735 -0.1175 -0.4521
 8292TIP3    H246368   5.317   3.372  14.713 -0.4640 -1.3226  0.2351
 8293TIP3   OH246369   3.481   6.616  15.033  0.2618  0.1333  0.1219
 8293TIP3    H146370   3.443   6.532  15.007  2.5961 -0.8773 -0.2792
 8293TIP3    H246371   3.408   6.664  15.074 -1.6731 -1.1732 -1.5913
 8294TIP3   OH246372   6.109   1.305   3.367 -0.3877  0.0199  0.3848
 8294TIP3    H146373   6.141   1.226   3.325  0.6875  0.5861  0.0991
 8294TIP3    H246374   6.114   1.287   3.461 -0.9449 -0.5433  0.3106
 8295TIP3   OH246375   0.533   3.293  16.932  0.5632  0.0892  0.6328
 8295TIP3    H146376   0.612   3.239  16.939  1.1274  0.6586 -0.9820
 8295TIP3    H246377   0.564   3.377  16.897 -0.8498  0.0479 -0.8332
 8296TIP3   OH246378   1.050   5.297  13.260 -0.2501 -0.3298 -0.2380
 8296TIP3    H146379   1.128   5.347  13.282  0.4254 -1.9496  1.4076
 8296TIP3    H246380   0.997   5.300  13.340 -0.8822 -0.9859 -0.6184
 8297TIP3   OH246381   4.465   0.153  10.574 -0.1451  0.0814  0.0638
 8297TIP3    H146382   4.430   0.240  10.594 -0.6072 -0.4687  1.8721
 8297TIP3    H246383   4.394   0.092  10.597  0.1835 -0.7932 -1.1320
 8298TIP3   OH246384   3.070   2.504   5.570 -1.2501 -0.3214 -0.3049
 8298TIP3    H146385   3.122   2.427   5.594  0.2489  0.9348  0.6335
 8298TIP3    H246386   2.991   2.497   5.624 -0.1895 -0.1531  1.3350
 8299TIP3   OH246387   2.188   5.088  15.716 -0.1347 -0.4452 -0.1652
 8299TIP3    H146388   2.122   5.120  15.777  0.8273 -0.8224  1.1197
 8299TIP3    H246389   2.271   5.105  15.760  0.5287 -2.0000 -0.7348
 8300TIP3   OH246390   6.475   3.428   0.375  0.0076 -0.2940 -0.1479
 8300TIP3    H146391   6.503   3.514   0.404 -0.2533 -0.2015 -0.1721
 8300TIP3    H246392   6.464   3.377   0.455  1.2428 -0.6483 -0.1703
 8301TIP3   OH246393   0.246   0.221   5.445  0.0161  0.2216 -0.1385
 8301TIP3    H146394   0.304   0.148   5.426 -0.5865 -0.5711  0.9723
 8301TIP3    H246395   0.166   0.203   5.395  0.0999  0.4493 -0.3566
 8302TIP3   OH246396   3.096   1.204   6.458 -0.8718 -0.0864 -0.0730
 8302TIP3    H146397   3.152   1.157   6.520 -1.8000 -2.9593 -1.2625
 8302TIP3    H246398   3.013   1.215   6.504 -0.9751 -0.5701 -0.1351
 8303TIP3   OH246399   2.464   1.102   3.759 -0.5047  0.1731  0.2290
 8303TIP3    H146400   2.420   1.070   3.837 -1.2873 -1.5733 -0.8686
 8303TIP3    H246401   2.397   1.151   3.711  0.4146  2.7427  1.3936
 8304TIP3   OH246402   5.372   0.071   4.510  0.3299 -0.1978  0.3508
 8304TIP3    H146403   5.394   0.073   4.417  2.3436  1.8767  0.7964
 8304TIP3    H246404   5.425   0.140   4.549 -0.9813 -0.5390  2.9566
 8305TIP3   OH246405   1.342   0.997  11.322  0.4105 -0.1425  0.5439
 8305TIP3    H146406   1.303   0.957  11.245  0.9247  1.9517 -0.9121
 8305TIP3    H246407   1.268   1.026  11.375 -0.1570  2.4473 -1.4515
 8306TIP3   OH246408   0.795   4.388  11.298  0.1762 -0.1484 -0.3098
 8306TIP3    H146409   0.812   4.467  11.246 -0.4478 -0.2990 -0.7475
 8306TIP3    H246410   0.719   4.410  11.351  0.3712 -0.2502  0.0157
 8307TIP3   OH246411   2.415   4.822  16.481 -0.1267  0.2416  0.6716
 8307TIP3    H146412   2.479   4.756  16.455 -0.0099  1.7189 -3.4775
 8307TIP3    H246413   2.339   4.772  16.511  0.4366 -1.7904 -1.0558
 8308TIP3   OH246414   2.740   4.267  13.981  0.0938  0.4155 -0.0284
 8308TIP3    H146415   2.739   4.182  14.026 -0.2385  0.4095 -0.0499
 8308TIP3    H246416   2.677   4.258  13.910 -0.2649  0.8254  0.2355
 8309TIP3   OH246417   2.600   0.223  12.961  0.2199  0.2836 -0.2448
 8309TIP3    H146418   2.538   0.150  12.953 -0.0012  0.4751 -0.2934
 8309TIP3    H246419   2.680   0.191  12.921  0.4408 -0.2996  0.6540
 8310TIP3   OH246420   3.448   6.087   3.223 -0.1466  0.1253 -0.2555
 8310TIP3    H146421   3.385   6.020   3.197 -1.3103  0.6152  1.1857
 8310TIP3    H246422   3.479   6.059   3.309 -0.9201  1.6023  0.5298
 8311TIP3   OH246423   4.360   5.974   3.046 -0.2222 -0.7870  0.4671
 8311TIP3    H146424   4.310   6.014   3.118  1.9437  2.2544  0.4758
 8311TIP3    H246425   4.443   5.948   3.086  0.5608 -0.1124 -0.6492
 8312TIP3   OH246426   3.429   0.644   1.045  0.5948 -0.1826 -0.1160
 8312TIP3    H146427   3.454   0.652   1.137  2.9806  1.5916 -0.8026
 8312TIP3    H246428   3.413   0.735   1.017  2.3669 -0.3813 -2.0138
 8313TIP3   OH246429   1.929   6.634   4.580  0.0261  0.0033 -0.0316
 8313TIP3    H146430   1.956   6.584   4.503  0.0310  0.7795 -0.5438
 8313TIP3    H246431   1.882   6.710   4.544  1.8146  1.4830  0.6168
 8314TIP3   OH246432   3.898   1.271   2.407  0.7199  0.6173  0.2437
 8314TIP3    H146433   3.925   1.271   2.315  1.4260  0.9476  0.4411
 8314TIP3    H246434   3.802   1.275   2.403  0.5728 -1.9561 -0.4801
 8315TIP3   OH246435   4.947   6.292   2.891  0.1629  0.4658  0.1157
 8315TIP3    H146436   4.936   6.227   2.961 -0.2808 -0.5973 -0.9018
 8315TIP3    H246437   4.864   6.339   2.889  0.3025  0.7337  0.5276
 8316TIP3   OH246438   6.143   4.052  16.716 -0.3078  0.1164  0.6246
 8316TIP3    H146439   6.236   4.045  16.697 -0.3633 -0.0815  0.4249
 8316TIP3    H246440   6.114   3.962  16.731 -1.0507 -0.1992 -2.0830
 8317TIP3   OH246441   3.542   6.495   2.848  0.2964 -0.3200  0.3771
 8317TIP3    H146442   3.631   6.511   2.880 -0.1394 -0.8481  1.8982
 8317TIP3    H246443   3.500   6.443   2.916 -0.8040 -1.1516 -0.8787
 8318TIP3   OH246444   5.321   2.876  14.146 -0.0816 -0.0664  0.1331
 8318TIP3    H146445   5.305   2.865  14.240 -1.8426 -0.2735 -0.1555
 8318TIP3    H246446   5.237   2.907  14.111  0.8115  0.8933 -1.2382
 8319TIP3   OH246447   4.550   1.362   4.668 -0.4778  0.4411  0.1015
 8319TIP3    H146448   4.632   1.412   4.662 -0.3681  0.2064 -0.4375
 8319TIP3    H246449   4.578   1.270   4.668 -0.7351  0.3621 -0.0361
 8320TIP3   OH246450   2.612   4.210  13.263  0.0239  0.2016 -0.0003
 8320TIP3    H146451   2.579   4.295  13.292  0.1448  0.5794 -0.9330
 8320TIP3    H246452   2.595   4.208  13.169  2.4493  0.3340 -0.5082
 8321TIP3   OH246453   2.596   5.066   2.749  0.6300 -0.1068 -0.0699
 8321TIP3    H146454   2.537   5.003   2.791 -0.4249  0.3527 -0.8416
 8321TIP3    H246455   2.538   5.125   2.701  1.8001 -1.5287 -3.5144
 8322TIP3   OH246456   2.182   2.253  12.158 -0.3200 -0.4293  0.7256
 8322TIP3    H146457   2.170   2.169  12.113 -0.7671 -0.0711  0.1713
 8322TIP3    H246458   2.275   2.274  12.145 -0.2701 -0.7012  0.6283
 8323TIP3   OH246459   1.849   1.736  12.595  0.2928 -0.3408  0.3430
 8323TIP3    H146460   1.895   1.672  12.541  0.7011  1.6664 -1.8344
 8323TIP3    H246461   1.788   1.779  12.535 -0.1616  1.1199  1.7803
 8324TIP3   OH246462   0.148   1.106   3.688 -0.0580  0.3485 -0.2546
 8324TIP3    H146463   0.178   1.016   3.681  1.6378  0.5018  3.1852
 8324TIP3    H246464   0.221   1.159   3.656  0.7697  0.5243  1.7543
 8325TIP3   OH246465   1.181   2.470  10.190  0.3357  0.1850  0.3942
 8325TIP3    H146466   1.176   2.480  10.285  1.6435 -0.9005  0.6022
 8325TIP3    H246467   1.262   2.514  10.165 -0.0436  0.5392 -0.2398
 8326TIP3   OH246468   0.042   1.051  13.799 -0.3043 -0.3250 -0.0787
 8326TIP3    H146469   0.009   1.084  13.715 -1.0119  0.6706  0.5786
 8326TIP3    H246470  -0.022   0.986  13.826  0.4223 -1.3539 -0.7503
 8327TIP3   OH246471   1.559   3.761  14.914  0.3176  0.2984  0.2055
 8327TIP3    H146472   1.534   3.677  14.877 -1.0113  0.7012  0.1464
 8327TIP3    H246473   1.508   3.825  14.865  1.3775  1.1637  0.1817
 8328TIP3   OH246474   1.163   5.574   1.801 -0.1953 -0.1669 -0.2149
 8328TIP3    H146475   1.136   5.492   1.842  0.8514 -0.2656  0.2926
 8328TIP3    H246476   1.086   5.631   1.810 -0.6756 -0.8452  0.0845
 8329TIP3   OH246477   6.589   0.622  14.264 -0.2667  0.7176 -0.2253
 8329TIP3    H146478   6.642   0.566  14.206 -2.0953 -1.2183 -0.1666
 8329TIP3    H246479   6.574   0.701  14.213  1.6906  0.8455 -0.6734
 8330TIP3   OH246480   0.585   2.723   3.165 -0.3718  0.0563  0.2811
 8330TIP3    H146481   0.645   2.657   3.129 -0.2786  0.0181  0.5038
 8330TIP3    H246482   0.499   2.697   3.132 -0.4283 -0.5512  0.8778
 8331TIP3   OH246483   3.236   4.988   3.227 -0.6970  0.2279  0.2937
 8331TIP3    H146484   3.331   4.980   3.226 -0.6612  0.6921 -0.4381
 8331TIP3    H246485   3.216   5.037   3.307 -0.2209  1.3496 -0.2650
 8332TIP3   OH246486   1.853   5.357   5.979  0.5001  0.6046  0.2738
 8332TIP3    H146487   1.945   5.333   5.967  0.5472  1.1751 -0.6545
 8332TIP3    H246488   1.806   5.302   5.915  0.2503  0.6244  0.4393
 8333TIP3   OH246489   4.858   5.702  16.573 -0.4396  0.3597  0.2046
 8333TIP3    H146490   4.845   5.694  16.667  0.5869  1.3450  0.4586
 8333TIP3    H246491   4.945   5.665  16.557 -0.6706  0.0471 -0.3903
 8334TIP3   OH246492   2.154   2.808  16.780 -0.7665 -0.4611 -0.2699
 8334TIP3    H146493   2.120   2.893  16.809 -0.4090 -0.6765  0.8229
 8334TIP3    H246494   2.249   2.816  16.787 -0.7702 -1.6236  1.9301
 8335TIP3   OH246495   2.192   6.139  16.395  0.0516 -0.1365 -0.0471
 8335TIP3    H146496   2.197   6.111  16.304 -1.6573  0.2640 -0.3055
 8335TIP3    H246497   2.279   6.123  16.430  0.1298 -2.4674 -1.1160
 8336TIP3   OH246498   3.885   6.293   1.227  0.7198  0.4843  0.3547
 8336TIP3    H146499   3.822   6.353   1.267 -0.7913 -1.4869  1.0482
 8336TIP3    H246500   3.966   6.307   1.277  0.2299  1.4745  0.8980
 8337TIP3   OH246501   2.051   0.293   2.462  0.3899  0.4900 -0.1383
 8337TIP3    H146502   1.977   0.337   2.503  0.9604  0.7121  0.6843
 8337TIP3    H246503   2.068   0.344   2.383 -1.6169 -0.7792 -1.4633
 8338TIP3   OH246504   1.848   2.736  12.480  0.3743  0.1461  0.1768
 8338TIP3    H146505   1.848   2.678  12.405  0.4034  1.3425 -0.7728
 8338TIP3    H246506   1.876   2.680  12.553  0.3498 -1.0279 -0.6811
 8339TIP3   OH246507   1.279   1.631   5.582 -0.5899 -0.0068 -0.6822
 8339TIP3    H146508   1.277   1.720   5.616 -2.7635 -0.2628  0.0480
 8339TIP3    H246509   1.283   1.576   5.661  1.0019 -0.5915 -1.1331
 8340TIP3   OH246510   6.599   3.600   1.649 -0.0306  0.5785 -0.3704
 8340TIP3    H146511   6.654   3.526   1.677 -0.4791  0.4424  0.1670
 8340TIP3    H246512   6.511   3.575   1.676 -0.6608  0.0177 -2.7238
 8341TIP3   OH246513   5.478   5.306   2.892 -0.3739  0.2051 -0.3174
 8341TIP3    H146514   5.541   5.261   2.948  0.6387 -0.1216 -1.6859
 8341TIP3    H246515   5.398   5.308   2.944  0.6610  0.3954  1.3657
 8342TIP3   OH246516   3.547   5.236   2.197 -0.5690 -0.0643  0.2172
 8342TIP3    H146517   3.458   5.216   2.170 -0.4273 -0.3918 -0.0149
 8342TIP3    H246518   3.602   5.184   2.138 -0.1437  1.8622 -1.1663
 8343TIP3   OH246519   0.442   1.499  11.535  0.0846 -1.1186 -0.4431
 8343TIP3    H146520   0.530   1.476  11.565  0.3155 -0.1528 -0.3637
 8343TIP3    H246521   0.400   1.414  11.518  0.4437 -1.6653  1.1802
 8344TIP3   OH246522   2.484   5.554  12.981 -0.0550 -0.4415  0.1802
 8344TIP3    H146523   2.402   5.604  12.982  0.3038  0.2743 -1.9076
 8344TIP3    H246524   2.458   5.464  13.000 -1.2812 -0.1481 -0.0574
 8345TIP3   OH246525   6.802   6.060  16.649 -0.1324 -0.0381 -0.1645
 8345TIP3    H146526   6.812   6.130  16.713 -0.0680 -1.4033  1.3706
 8345TIP3    H246527   6.732   6.006  16.683 -0.8839 -0.2079 -1.8530
 8346TIP3   OH246528   0.108   4.562  15.737  0.3998 -0.5947 -0.1521
 8346TIP3    H146529   0.190   4.517  15.759  0.3946 -1.5270 -1.9205
 8346TIP3    H246530   0.076   4.518  15.658  0.0014  1.9808 -1.5461
 8347TIP3   OH246531   0.416   2.635  16.520  0.1692 -0.1273 -0.0620
 8347TIP3    H146532   0.431   2.696  16.448  1.0325 -1.9943 -1.5293
 8347TIP3    H246533   0.348   2.576  16.488  2.2436 -2.4973 -0.4560
 8348TIP3   OH246534   1.555   0.630  16.521  0.1159  0.4555 -0.2869
 8348TIP3    H146535   1.603   0.582  16.588 -1.0454 -0.4203 -0.0437
 8348TIP3    H246536   1.489   0.680  16.570  1.1049  2.0994 -0.5610
 8349TIP3   OH246537   0.414   6.730  13.111 -0.6374  0.2309 -0.4161
 8349TIP3    H146538   0.446   6.640  13.105  0.8105  0.6453  0.5715
 8349TIP3    H246539   0.411   6.760  13.021  2.5856  0.3835 -0.5909
 8350TIP3   OH246540   6.209   5.174   6.414  0.3164 -0.1125 -0.4912
 8350TIP3    H146541   6.125   5.182   6.369  0.6889  0.1330 -1.1576
 8350TIP3    H246542   6.251   5.259   6.401 -0.5446  0.8496  2.3593
 8351TIP3   OH246543   4.341   5.008   0.403  0.0167  0.3972  0.4082
 8351TIP3    H146544   4.405   5.004   0.474  2.1966  1.2653 -1.3742
 8351TIP3    H246545   4.306   5.097   0.407 -1.4981 -0.2154  1.6614
 8352TIP3   OH246546   2.632   6.505   1.797 -0.8388 -0.8391  0.4436
 8352TIP3    H146547   2.550   6.517   1.749 -0.3084  3.1073  0.1919
 8352TIP3    H246548   2.613   6.537   1.886  0.4238  0.3900  0.3075
 8353TIP3   OH246549   6.552   4.494  10.851 -0.0085 -0.4615  0.0708
 8353TIP3    H146550   6.469   4.531  10.820 -1.1191 -1.6526  1.4559
 8353TIP3    H246551   6.619   4.539  10.799 -1.4230  1.5055 -0.1951
 8354TIP3   OH246552   4.868   0.276   0.025 -0.2129 -0.0268  0.3046
 8354TIP3    H146553   4.837   0.341  -0.038  0.9954  0.2057 -0.0594
 8354TIP3    H246554   4.899   0.327   0.100  1.1724 -0.1321 -0.1722
 8355TIP3   OH246555   0.716   1.861   5.774 -0.2464  0.2181 -0.3608
 8355TIP3    H146556   0.810   1.882   5.777 -0.3390  0.5231  0.7632
 8355TIP3    H246557   0.674   1.942   5.746 -0.3388  0.7275  1.1446
 8356TIP3   OH246558   1.898   5.880   0.506  0.2066 -0.3798  0.0078
 8356TIP3    H146559   1.868   5.911   0.592  0.6177 -1.5274  0.5851
 8356TIP3    H246560   1.840   5.806   0.486 -0.0177  0.0031 -0.8076
 8357TIP3   OH246561   0.216   5.008  16.472 -0.1572  0.0211 -0.7279
 8357TIP3    H146562   0.267   5.064  16.530 -0.5501 -0.4793  0.1211
 8357TIP3    H246563   0.279   4.976  16.408  0.6137 -0.6137  0.3233
 8358TIP3   OH246564   0.356   3.255  13.316 -0.6362  0.4769  0.4675
 8358TIP3    H146565   0.424   3.299  13.265 -0.2554 -0.3416  0.2400
 8358TIP3    H246566   0.358   3.299  13.401 -1.3500  1.9209 -0.2297
 8359TIP3   OH246567   6.213   4.182  14.999 -0.7798  0.3330 -0.3617
 8359TIP3    H146568   6.223   4.088  15.009 -1.8810  0.2052 -0.2940
 8359TIP3    H246569   6.254   4.203  14.915  1.4955  0.1702  0.6417
 8360TIP3   OH246570   0.168   3.626  16.285  0.0003 -0.3201  0.0679
 8360TIP3    H146571   0.177   3.556  16.350 -0.6535 -1.6256 -1.1744
 8360TIP3    H246572   0.150   3.580  16.203 -0.2145  1.3135 -0.8494
 8361TIP3   OH246573   2.964   4.809  14.222 -0.0461  0.1336  0.3630
 8361TIP3    H146574   2.986   4.733  14.169  1.3045  0.7578 -0.0131
 8361TIP3    H246575   2.869   4.807  14.230 -0.0876 -1.1277 -0.3261
 8362TIP3   OH246576   5.158   2.286  16.778 -0.0650 -0.2479 -0.1075
 8362TIP3    H146577   5.243   2.242  16.780 -0.1093 -0.2924  1.3267
 8362TIP3    H246578   5.179   2.379  16.771  0.2200 -0.0500  2.3971
 8363TIP3   OH246579   3.794   0.754   6.267  0.2441  0.3059  0.0030
 8363TIP3    H146580   3.765   0.844   6.279  1.6844  0.7715  0.1542
 8363TIP3    H246581   3.889   0.759   6.267  0.3497 -1.1255 -0.7199
 8364TIP3   OH246582   5.852   1.634   5.724  0.1319 -0.4088  0.1795
 8364TIP3    H146583   5.822   1.615   5.813 -0.2765  1.3328  0.4533
 8364TIP3    H246584   5.774   1.622   5.669 -0.6328  2.0587  0.6036
 8365TIP3   OH246585   0.154   6.717  14.466 -0.1408  0.5569  0.4590
 8365TIP3    H146586   0.066   6.718  14.504 -0.3526  1.8894 -0.0093
 8365TIP3    H246587   0.148   6.655  14.394 -0.5884  0.3175  0.6991
 8366TIP3   OH246588   4.775   2.264   5.253  0.5551  0.3806 -0.1359
 8366TIP3    H146589   4.728   2.181   5.256  1.2506  0.0018  0.3024
 8366TIP3    H246590   4.707   2.329   5.232 -0.3352 -0.0215  1.3778
 8367TIP3   OH246591   0.639   2.815   5.028 -0.0951 -0.0836 -0.8116
 8367TIP3    H146592   0.728   2.850   5.018 -0.0865  0.1238 -0.0297
 8367TIP3    H246593   0.625   2.810   5.122 -1.2038  0.6275 -0.9148
 8368TIP3   OH246594   1.708   6.102   2.945  0.0414  0.0212  0.3197
 8368TIP3    H146595   1.781   6.093   3.006  0.3011  1.0718  0.1895
 8368TIP3    H246596   1.746   6.081   2.860 -0.3020 -1.3690  0.5006
 8369TIP3   OH246597   5.219   2.957   0.740  0.0418 -0.6933 -0.1132
 8369TIP3    H146598   5.273   2.999   0.807  0.3859  1.3094 -1.5401
 8369TIP3    H246599   5.204   2.869   0.773  0.2679  0.1630  2.5389
 8370TIP3   OH246600   5.426   6.658   6.404 -0.4969  0.1829 -0.2439
 8370TIP3    H146601   5.438   6.712   6.325  0.2351 -0.0891 -0.3183
 8370TIP3    H246602   5.454   6.714   6.476  1.3030 -0.4402 -0.4135
 8371TIP3   OH246603   2.995   4.952   1.086 -0.4513  0.6327 -0.0565
 8371TIP3    H146604   3.029   5.029   1.039 -0.2817  0.4436 -0.2461
 8371TIP3    H246605   3.047   4.879   1.052 -0.5542  0.4471  0.1878
 8372TIP3   OH246606   6.687   3.852  13.845 -0.2574 -0.3486  0.1473
 8372TIP3    H146607   6.644   3.888  13.922  0.2974 -2.0833  1.3493
 8372TIP3    H246608   6.778   3.879  13.854 -0.2605 -0.2533 -0.0982
 8373TIP3   OH246609   4.802   6.238  13.021  0.1554 -0.1020  0.0615
 8373TIP3    H146610   4.735   6.268  12.960  1.9080  2.3918 -0.7943
 8373TIP3    H246611   4.812   6.145  13.002 -2.1628 -0.2951 -0.5882
 8374TIP3   OH246612   1.941   2.116  16.356 -0.1983  0.2860 -0.8138
 8374TIP3    H146613   1.950   2.060  16.279  0.3614 -0.4684 -0.2121
 8374TIP3    H246614   2.007   2.184  16.343 -0.0862  0.1472 -0.9835
 8375TIP3   OH246615   2.491   5.946   2.696  0.1338  0.3906  0.5449
 8375TIP3    H146616   2.452   6.015   2.748 -1.4720  1.4363 -1.8677
 8375TIP3    H246617   2.439   5.868   2.716 -0.8101  0.9042  0.1698
 8376TIP3   OH246618   4.638   0.787  13.575 -0.3674  0.3778  0.0713
 8376TIP3    H146619   4.586   0.755  13.501  0.5468 -0.1259 -0.3648
 8376TIP3    H246620   4.574   0.798  13.646 -0.9632 -0.9210 -0.2346
 8377TIP3   OH246621   1.654   1.459   5.704  0.2642 -0.0969 -0.1643
 8377TIP3    H146622   1.718   1.521   5.670  1.4830 -1.0391  0.2914
 8377TIP3    H246623   1.622   1.499   5.785  1.2681 -0.1608  0.2899
 8378TIP3   OH246624   0.397   1.906  16.998 -0.2020  0.2570  0.4382
 8378TIP3    H146625   0.459   1.966  17.041  1.2895 -0.3031 -0.8086
 8378TIP3    H246626   0.430   1.899  16.908 -1.7348 -0.5829 -0.0928
 8379TIP3   OH246627   5.667   2.526   5.413 -0.6382  0.3159 -0.0111
 8379TIP3    H146628   5.742   2.569   5.373  0.2247  0.2493  1.4375
 8379TIP3    H246629   5.645   2.455   5.353  1.6215 -0.7895  0.3508
 8380TIP3   OH246630   4.623   1.437  11.328  0.4303 -0.3844  0.3915
 8380TIP3    H146631   4.583   1.465  11.410  0.7619  1.0562  0.0972
 8380TIP3    H246632   4.684   1.368  11.353 -2.1162 -2.6373  0.8558
 8381TIP3   OH246633   5.954   3.389   2.806 -0.0746 -0.0243  0.0342
 8381TIP3    H146634   6.037   3.354   2.775  0.0087 -1.5044  1.7194
 8381TIP3    H246635   5.901   3.311   2.826 -1.1624  0.8590  0.7407
 8382TIP3   OH246636   5.213   4.063   3.281  0.0986 -0.7068 -0.1421
 8382TIP3    H146637   5.175   3.982   3.246  0.4693  0.0199 -2.4390
 8382TIP3    H246638   5.287   4.080   3.223 -0.9884  2.1582 -0.8466
 8383TIP3   OH246639   1.930   5.684  11.976  0.5272 -0.3948 -0.6732
 8383TIP3    H146640   1.851   5.644  12.011 -0.7517  2.0122 -0.6337
 8383TIP3    H246641   2.001   5.627  12.006 -0.8496 -0.7583  2.2590
 8384TIP3   OH246642   4.525   3.946  14.353  0.3831 -0.0229  0.0858
 8384TIP3    H146643   4.556   3.929  14.264  1.7346 -0.9157  0.7124
 8384TIP3    H246644   4.449   4.004  14.340 -0.3241 -1.2567 -1.7156
 8385TIP3   OH246645   0.708   0.845   2.679  0.1746  0.2810 -0.0281
 8385TIP3    H146646   0.735   0.892   2.758 -1.9844 -0.1871  1.0819
 8385TIP3    H246647   0.765   0.769   2.675 -0.3102 -0.2102  1.6893
 8386TIP3   OH246648   2.542   5.173  12.647  0.1379  0.5015  0.3602
 8386TIP3    H146649   2.616   5.114  12.640 -0.6407 -0.3114 -1.6606
 8386TIP3    H246650   2.509   5.181  12.558 -2.1903  0.8358  1.1847
 8387TIP3   OH246651   1.892   1.839   4.344 -0.2161  0.2427 -0.1925
 8387TIP3    H146652   1.868   1.794   4.263  1.0910 -0.2481 -0.3293
 8387TIP3    H246653   1.810   1.876   4.377 -0.7074  0.7593 -1.9171
 8388TIP3   OH246654   5.647   5.526  15.989 -0.1747  0.5466  0.5240
 8388TIP3    H146655   5.689   5.509  16.074 -1.5988 -1.3120  0.9112
 8388TIP3    H246656   5.564   5.568  16.012 -0.2246  0.7389 -0.0027
 8389TIP3   OH246657   4.612   0.052  12.723  0.0650  0.6970  0.0679
 8389TIP3    H146658   4.595  -0.001  12.801 -1.0971  2.0109  0.7498
 8389TIP3    H246659   4.677   0.116  12.752  1.4828 -0.3051 -0.7596
 8390TIP3   OH246660   1.940   5.504  14.211 -0.6512  0.5943  0.2181
 8390TIP3    H146661   2.014   5.449  14.186 -2.9074 -1.4785 -2.7114
 8390TIP3    H246662   1.940   5.575  14.147 -0.9900  0.7210  0.3543
 8391TIP3   OH246663   5.244   3.116  11.998  0.0067 -0.9894  0.4396
 8391TIP3    H146664   5.199   3.184  12.050  0.5039 -0.8195  0.6519
 8391TIP3    H246665   5.187   3.039  12.006 -0.9891 -0.3770 -0.4777
 8392TIP3   OH246666   4.252   3.278  10.599  0.3440  0.3053  0.4102
 8392TIP3    H146667   4.272   3.350  10.540 -2.5530  0.9543  0.0626
 8392TIP3    H246668   4.297   3.203  10.561  1.8193  1.5013 -0.3233
 8393TIP3   OH246669   6.547   4.634   1.316  0.3222 -0.2363  0.2315
 8393TIP3    H146670   6.611   4.650   1.386 -0.4048 -0.8082  1.0563
 8393TIP3    H246671   6.546   4.538   1.306 -2.5470 -0.5907  2.4110
 8394TIP3   OH246672   6.245   0.520   0.331 -0.0290 -0.4703  0.2396
 8394TIP3    H146673   6.242   0.428   0.357  0.7482 -0.8326 -0.8692
 8394TIP3    H246674   6.339   0.539   0.320 -0.1072  0.7467  1.4169
 8395TIP3   OH246675   2.904   3.901  15.122  0.3810 -0.3483  0.1278
 8395TIP3    H146676   2.810   3.914  15.110  0.4476 -0.4836 -0.5534
 8395TIP3    H246677   2.923   3.943  15.206  0.2603  2.4460 -1.1331
 8396TIP3   OH246678   3.368   6.139  11.210  0.2977  0.6510  0.1646
 8396TIP3    H146679   3.345   6.047  11.213 -0.5053  0.8427 -0.0225
 8396TIP3    H246680   3.457   6.140  11.174  0.2511 -0.0339  0.0160
 8397TIP3   OH246681   2.314   4.309   3.738 -0.3491 -0.1274 -0.2072
 8397TIP3    H146682   2.231   4.326   3.692  0.7299  0.6063 -1.9857
 8397TIP3    H246683   2.343   4.225   3.703 -0.6524 -0.7414  0.9522
 8398TIP3   OH246684   5.266   5.926   6.153 -0.0922 -0.4935 -0.1015
 8398TIP3    H146685   5.187   5.944   6.205 -0.0197  1.0934 -0.4847
 8398TIP3    H246686   5.253   5.974   6.071 -0.6654 -3.7537 -2.0964
 8399TIP3   OH246687   4.376   0.541   2.437 -0.0681  0.0200  0.6084
 8399TIP3    H146688   4.325   0.515   2.514 -2.2490 -0.3808 -0.8694
 8399TIP3    H246689   4.450   0.481   2.436  0.2066  0.2548  2.5401
 8400TIP3   OH246690   6.364   0.750   3.337  0.4743  0.0175 -0.0700
 8400TIP3    H146691   6.352   0.662   3.371 -1.9249 -0.4669 -1.8617
 8400TIP3    H246692   6.375   0.738   3.242 -2.1222  1.6261 -0.7069
 8401TIP3   OH246693   4.767   2.514  16.063 -0.6609  0.0412 -0.3146
 8401TIP3    H146694   4.679   2.508  16.101 -0.6627 -0.9169 -0.4502
 8401TIP3    H246695   4.819   2.451  16.114 -0.5717 -0.9925 -1.6433
 8402TIP3   OH246696   1.977   5.984  13.112  0.0841  0.1344  0.1455
 8402TIP3    H146697   2.064   6.011  13.138  0.1787 -0.4998  0.5252
 8402TIP3    H246698   1.957   6.036  13.035  0.6739  0.5030  0.2390
 8403TIP3   OH246699   1.652   5.666   5.380  0.4240  0.3322  0.2799
 8403TIP3    H146700   1.597   5.742   5.359  1.7474  1.5872  1.1388
 8403TIP3    H246701   1.638   5.652   5.474 -0.6360 -1.2113 -0.0727
 8404TIP3   OH246702   3.703   5.222  13.511  0.0793  0.4459  0.3734
 8404TIP3    H146703   3.732   5.205  13.421  1.1319  1.6450  0.4540
 8404TIP3    H246704   3.665   5.140  13.540  0.4614 -0.2038 -0.9013
 8405TIP3   OH246705   5.864   5.340   0.241 -0.4157 -0.0642 -0.0433
 8405TIP3    H146706   5.849   5.382   0.156 -0.5954  0.5758  0.3036
 8405TIP3    H246707   5.872   5.412   0.303 -1.0183 -0.5504  0.6095
 8406TIP3   OH246708   5.705   2.658   4.212  0.2409 -0.0374  0.5596
 8406TIP3    H146709   5.725   2.749   4.193 -0.4318 -0.0207 -0.1349
 8406TIP3    H246710   5.782   2.625   4.260  0.1422  1.0979  1.5401
 8407TIP3   OH246711   5.272   5.249   3.900  0.5323 -0.5640  0.7775
 8407TIP3    H146712   5.196   5.254   3.959 -0.1160 -0.1385 -0.0751
 8407TIP3    H246713   5.239   5.279   3.816  1.0184 -2.7804 -0.2701
 8408TIP3   OH246714   0.525   6.610   5.455  0.3490  0.1651 -0.3976
 8408TIP3    H146715   0.581   6.536   5.430  0.0409 -0.0700 -0.4000
 8408TIP3    H246716   0.585   6.684   5.461  0.4870  0.1593 -1.4812
 8409TIP3   OH246717   0.012   0.277  13.968 -0.3307  0.0303 -0.2569
 8409TIP3    H146718   0.008   0.213  14.039  1.8808  2.1902  2.0342
 8409TIP3    H246719   0.084   0.246  13.912 -0.8089 -0.6690 -0.5002
 8410TIP3   OH246720   1.267   6.002   5.285 -0.2260  0.4845  0.3106
 8410TIP3    H146721   1.350   6.049   5.286 -0.5060  0.9887  1.3347
 8410TIP3    H246722   1.285   5.919   5.329 -0.2188  0.5308  0.3966
 8411TIP3   OH246723   2.608   0.884  14.557 -0.0677  0.1848  0.2556
 8411TIP3    H146724   2.530   0.859  14.606 -0.5183 -0.3394 -0.6886
 8411TIP3    H246725   2.574   0.920  14.475  0.6835 -0.1776 -0.2260
 8412TIP3   OH246726   1.857   4.671  14.034  0.2864 -0.5421  0.1707
 8412TIP3    H146727   1.774   4.690  14.078 -0.0674 -1.1921 -0.2067
 8412TIP3    H246728   1.906   4.753  14.039 -1.1219  0.4339 -1.2216
 8413TIP3   OH246729   4.551   0.180  15.699  0.0406  0.4020 -0.3810
 8413TIP3    H146730   4.488   0.109  15.706  1.3257 -0.7299  0.0953
 8413TIP3    H246731   4.550   0.223  15.784  0.5897 -0.2100 -0.0636
 8414TIP3   OH246732   0.701   6.549  11.778  0.2881  0.2528  0.1332
 8414TIP3    H146733   0.775   6.498  11.749  1.6434  2.2654 -0.1675
 8414TIP3    H246734   0.739   6.622  11.828 -1.5635  0.6157  1.1499
 8415TIP3   OH246735   5.201   4.256  12.062 -0.2736  0.2609  0.2382
 8415TIP3    H146736   5.200   4.320  11.991 -2.3701  0.0813  0.0300
 8415TIP3    H246737   5.260   4.292  12.127  1.2068  0.7381 -1.3144
 8416TIP3   OH246738   3.557   0.942  10.852  0.0352 -0.2785 -0.5299
 8416TIP3    H146739   3.631   1.003  10.851  0.6595 -0.9341  1.1690
 8416TIP3    H246740   3.517   0.955  10.938 -2.2318  0.4601 -1.6106
 8417TIP3   OH246741   0.089   6.283   4.327  0.2851  0.0459 -0.3948
 8417TIP3    H146742   0.073   6.309   4.417 -0.2254 -0.4371 -0.3408
 8417TIP3    H246743   0.181   6.256   4.326  0.4436  0.5605 -0.1482
 8418TIP3   OH246744   5.198   2.283   2.112  0.5627  0.6251  0.5542
 8418TIP3    H146745   5.174   2.370   2.143 -0.7637  0.5051 -0.1003
 8418TIP3    H246746   5.228   2.296   2.022 -1.3235  0.2050 -0.1692
 8419TIP3   OH246747   2.461   4.505   5.462 -0.0043 -0.6232  0.0451
 8419TIP3    H146748   2.503   4.457   5.391  1.6911 -0.0483  0.6172
 8419TIP3    H246749   2.434   4.437   5.524  2.4286 -0.9038  0.8848
 8420TIP3   OH246750   4.553   6.804  16.851 -0.8509  0.3294 -0.4153
 8420TIP3    H146751   4.463   6.833  16.836 -0.3288  1.0770 -2.3242
 8420TIP3    H246752   4.574   6.748  16.777 -0.4421 -1.7383  1.1561
 8421TIP3   OH246753   5.945   3.558  16.048 -0.0968  0.3908  0.5145
 8421TIP3    H146754   6.034   3.526  16.060 -0.3559 -2.3837 -3.2649
 8421TIP3    H246755   5.891   3.501  16.102  0.1681  0.4234  0.8205
 8422TIP3   OH246756   5.563   1.104   2.575  1.0358 -0.2433  0.6153
 8422TIP3    H146757   5.510   1.154   2.637 -0.7472 -2.2257  0.7555
 8422TIP3    H246758   5.563   1.158   2.496 -0.0572  0.4275  1.0485
 8423TIP3   OH246759   0.276   4.947  16.167  0.5007  0.4688  0.1326
 8423TIP3    H146760   0.356   4.990  16.134  0.1245 -0.9202 -2.9745
 8423TIP3    H246761   0.272   4.864  16.119 -0.2942 -1.8550  3.8054
 8424TIP3   OH246762   6.617   2.380  15.760 -0.1350  0.0427  0.3418
 8424TIP3    H146763   6.598   2.431  15.681 -1.1747 -0.4468  0.2625
 8424TIP3    H246764   6.710   2.358  15.753 -0.3024 -0.3307 -0.9405
 8425TIP3   OH246765   4.726   1.191  12.330  0.2595 -0.5653  0.5914
 8425TIP3    H146766   4.809   1.149  12.355  1.6190  1.4106 -0.3511
 8425TIP3    H246767   4.707   1.252  12.401 -0.6927 -1.3576  1.0424
 8426TIP3   OH246768   6.016   6.239   4.646  0.2938 -0.1968  0.1808
 8426TIP3    H146769   6.014   6.335   4.637  0.5308 -0.0510  1.4736
 8426TIP3    H246770   5.965   6.222   4.724 -0.3418 -1.2058 -0.4403
 8427TIP3   OH246771   2.417   2.296   0.295 -0.1833  0.0593  0.4508
 8427TIP3    H146772   2.489   2.342   0.251  0.3450 -0.6328  0.5572
 8427TIP3    H246773   2.457   2.214   0.324 -0.3649  0.7117  2.6913
 8428TIP3   OH246774   5.248   1.287   5.258 -0.0683  0.3056  0.2656
 8428TIP3    H146775   5.245   1.261   5.166 -0.1865 -1.4952  0.7399
 8428TIP3    H246776   5.313   1.229   5.298  0.8150  1.8015  1.1297
 8429TIP3   OH246777   2.235   2.189   2.820  0.1395 -0.0237  0.4356
 8429TIP3    H146778   2.274   2.108   2.789  0.0419 -0.0499  0.3795
 8429TIP3    H246779   2.295   2.221   2.887 -0.6378 -1.0078  1.6601
 8430TIP3   OH246780   4.064   4.815  13.602 -0.4802  0.4217 -0.0980
 8430TIP3    H146781   4.013   4.762  13.663 -1.3849  0.9167 -0.3960
 8430TIP3    H246782   4.011   4.817  13.522  0.8169 -0.4520 -1.0131
 8431TIP3   OH246783   4.701   1.672   0.106  0.2691 -0.0048 -0.5497
 8431TIP3    H146784   4.763   1.620   0.156  0.2415 -0.2804 -0.8015
 8431TIP3    H246785   4.731   1.762   0.117  1.4907 -0.2278 -1.7106
 8432TIP3   OH246786   4.747   0.299  14.519 -0.3599  0.1072  0.1014
 8432TIP3    H146787   4.674   0.334  14.571 -0.4651  1.1842 -0.7333
 8432TIP3    H246788   4.708   0.279  14.433  0.0596 -0.5522  0.0546
 8433TIP3   OH246789   3.872   4.841  16.030 -0.2418 -0.3832 -0.5529
 8433TIP3    H146790   3.879   4.748  16.006  1.6086 -0.4259  0.0011
 8433TIP3    H246791   3.929   4.886  15.968  0.4207  0.1335  0.4063
 8434TIP3   OH246792   2.059   2.302   5.269  0.7753  0.3308  0.3566
 8434TIP3    H146793   2.120   2.302   5.344  0.9456  0.1562  0.2169
 8434TIP3    H246794   2.113   2.277   5.194  0.2528 -1.1675  0.4524
 8435TIP3   OH246795   0.452   2.682  15.402  0.1151 -0.2257  0.3121
 8435TIP3    H146796   0.446   2.590  15.374  0.1260 -1.0315  2.7410
 8435TIP3    H246797   0.486   2.677  15.491 -2.6881  1.9544  1.6522
 8436TIP3   OH246798   2.842   4.560  12.744  0.0144 -0.0950 -0.4616
 8436TIP3    H146799   2.927   4.524  12.720 -0.6938 -2.1707 -0.1046
 8436TIP3    H246800   2.781   4.519  12.681 -1.0827 -1.0151  1.1247
 8437TIP3   OH246801   3.166   5.011  16.514 -0.6302 -0.7292  0.4402
 8437TIP3    H146802   3.157   5.069  16.438 -0.5429 -0.7255  0.4326
 8437TIP3    H246803   3.210   4.933  16.480 -3.0559 -1.9262 -0.1217
 8438TIP3   OH246804   6.690   4.561   4.288 -0.0372 -0.4339  0.3506
 8438TIP3    H146805   6.660   4.609   4.211 -0.6805 -2.0494 -0.4617
 8438TIP3    H246806   6.632   4.485   4.292  2.0173 -2.0812  0.4997
 8439TIP3   OH246807   0.244   2.968   3.774  0.2229  0.1517 -0.7160
 8439TIP3    H146808   0.255   2.873   3.772  0.2737  0.1584 -0.7783
 8439TIP3    H246809   0.210   2.987   3.861 -2.5089 -0.1965 -1.6303
 8440TIP3   OH246810   3.747   3.456   1.599 -0.2899  0.1090 -0.3732
 8440TIP3    H146811   3.696   3.491   1.526 -1.4144  0.2643  0.4723
 8440TIP3    H246812   3.784   3.375   1.565 -0.2204  0.5260 -1.3374
 8441TIP3   OH246813   6.845   2.418  14.038 -0.4398 -0.1349  0.4089
 8441TIP3    H146814   6.821   2.385  13.952  3.3094 -1.7250 -0.2012
 8441TIP3    H246815   6.785   2.374  14.098 -1.7098 -0.6537 -1.1693
 8442TIP3   OH246816   0.094   1.259   4.341 -0.1288  0.8748 -0.0532
 8442TIP3    H146817   0.084   1.354   4.345  0.5927  0.9387  0.2618
 8442TIP3    H246818   0.121   1.242   4.250  1.0621  1.1068  0.2412
 8443TIP3   OH246819   5.052   3.763  16.136  0.8658 -0.1281  0.1634
 8443TIP3    H146820   5.126   3.793  16.188  2.5807 -0.9709 -1.6345
 8443TIP3    H246821   5.088   3.691  16.084 -0.8232  0.3609 -1.8173
 8444TIP3   OH246822   5.542   1.030   3.971  0.3491 -0.2960  0.1933
 8444TIP3    H146823   5.495   0.981   4.039  0.7657  0.3538  0.9575
 8444TIP3    H246824   5.488   1.107   3.955  1.2612  0.5866  1.2616
 8445TIP3   OH246825   0.591   4.342  13.633 -0.1017  0.4890  0.4531
 8445TIP3    H146826   0.516   4.344  13.693  0.4115  0.5893  1.1020
 8445TIP3    H246827   0.552   4.356  13.546 -1.5191 -4.2473  0.0493
 8446TIP3   OH246828   3.070   2.241  16.241  0.5508  0.0932 -0.0677
 8446TIP3    H146829   3.083   2.203  16.328  1.2722 -0.3076 -0.3413
 8446TIP3    H246830   2.976   2.231  16.224  0.2816  0.7650  0.9268
 8447TIP3   OH246831   6.008   4.808  14.727 -0.3119 -0.6733 -0.5349
 8447TIP3    H146832   6.003   4.903  14.716  0.3056 -0.5893 -0.1747
 8447TIP3    H246833   6.094   4.794  14.767 -1.5955 -1.1022  2.3591
 8448TIP3   OH246834   2.371   5.343  11.510 -0.4922 -0.6269 -0.2311
 8448TIP3    H146835   2.297   5.403  11.500 -0.8941 -0.3739  3.1467
 8448TIP3    H246836   2.445   5.399  11.532 -0.7169 -1.1780  2.2700
 8449TIP3   OH246837   2.603   5.692   3.250 -0.4835  0.3166  0.0857
 8449TIP3    H146838   2.609   5.601   3.277  1.6873  0.1708 -0.6701
 8449TIP3    H246839   2.573   5.688   3.159  1.5063  0.1718 -0.6149
 8450TIP3   OH246840   1.993   1.287  13.988 -0.4657  0.0945  1.0964
 8450TIP3    H146841   1.991   1.195  13.964 -1.7450  0.4645 -0.3855
 8450TIP3    H246842   2.069   1.322  13.941 -0.3139 -0.0894  1.2039
 8451TIP3   OH246843   0.726   0.062  15.974 -0.2284  0.2973 -0.6025
 8451TIP3    H146844   0.752   0.020  16.055 -2.7274 -0.6039 -0.1878
 8451TIP3    H246845   0.642   0.104  15.994  0.6971  2.9805 -1.8355
 8452TIP3   OH246846   2.294   5.989  10.880  0.1724 -0.3299 -0.1036
 8452TIP3    H146847   2.339   5.911  10.912  0.1699  0.8728  3.2173
 8452TIP3    H246848   2.213   5.993  10.930 -1.4739  0.0680 -2.6387
 8453TIP3   OH246849   4.259   0.973   6.005  0.3301 -0.0974  0.0899
 8453TIP3    H146850   4.171   1.009   6.012  0.3506 -0.1789  0.8726
 8453TIP3    H246851   4.317   1.044   6.032  0.4460 -0.3195  0.4331
 8454TIP3   OH246852   1.725   6.232  11.907  0.0900 -0.0038 -0.0681
 8454TIP3    H146853   1.792   6.298  11.891  1.0660 -1.2027 -1.1985
 8454TIP3    H246854   1.773   6.159  11.946 -1.0096  0.0128  1.3946
 8455TIP3   OH246855   4.744   3.939   4.302  0.1460 -0.2475 -0.0258
 8455TIP3    H146856   4.707   3.974   4.222 -1.6809 -0.9221  0.4850
 8455TIP3    H246857   4.702   3.988   4.372  1.4327  0.0733  0.5642
 8456TIP3   OH246858   4.881   4.917   4.695  0.7331  0.0093  0.1351
 8456TIP3    H146859   4.920   4.985   4.751 -1.4092  0.4645  1.2313
 8456TIP3    H246860   4.864   4.961   4.612 -0.2252  0.7453  0.6909
 8457TIP3   OH246861   5.177   4.348  14.595  0.4431 -0.5059  0.4756
 8457TIP3    H146862   5.251   4.376  14.650  0.8794 -2.3953  0.9208
 8457TIP3    H246863   5.101   4.355  14.653  0.1116  2.0012 -0.1566
 8458TIP3   OH246864   4.805   3.990   5.938 -0.1930  0.0136  0.4573
 8458TIP3    H146865   4.764   3.905   5.927  1.4686 -0.7422 -0.3183
 8458TIP3    H246866   4.876   3.991   5.874 -0.9179  2.4998 -0.4418
 8459TIP3   OH246867   0.292   6.183  17.014 -0.1637 -0.0125 -0.5072
 8459TIP3    H146868   0.328   6.108  16.966  0.6275 -1.0006  1.4918
 8459TIP3    H246869   0.209   6.151  17.050 -0.3317  0.4181 -0.5051
 8460TIP3   OH246870   0.736   1.066   4.722 -0.3937  0.5043 -0.2783
 8460TIP3    H146871   0.646   1.081   4.693  0.0285  2.6021 -0.6962
 8460TIP3    H246872   0.729   0.997   4.788 -2.5461  1.6896  0.8381
 8461TIP3   OH246873   0.701   6.033  10.730  0.1897  0.4996 -0.0945
 8461TIP3    H146874   0.717   6.002  10.819  1.4825  2.4589  0.4071
 8461TIP3    H246875   0.647   5.964  10.690 -0.9933 -0.1273  2.3880
 8462TIP3   OH246876   1.857   4.234   2.147  0.2833 -0.2618  0.7760
 8462TIP3    H146877   1.794   4.227   2.075 -0.5113  2.2815  1.1296
 8462TIP3    H246878   1.933   4.185   2.116 -0.8147 -1.0212 -0.8966
 8463TIP3   OH246879   2.721   4.016   5.478  0.2926  0.1188  0.1185
 8463TIP3    H146880   2.672   3.944   5.437  0.4536  0.1234 -0.0836
 8463TIP3    H246881   2.752   3.979   5.561 -0.3693  0.2345  0.4278
 8464TIP3   OH246882   3.540   3.261   5.014  0.5790 -0.7108  0.1018
 8464TIP3    H146883   3.629   3.293   5.029  0.0272  1.4833 -0.9291
 8464TIP3    H246884   3.487   3.305   5.080  0.1792 -1.7529  0.4955
 8465TIP3   OH246885   3.756   5.486  13.590 -0.2742 -0.3334 -0.0294
 8465TIP3    H146886   3.809   5.529  13.523  0.3346 -0.1156  0.5779
 8465TIP3    H246887   3.728   5.404  13.551  0.6781 -0.5380 -0.2870
 8466TIP3   OH246888   5.512   4.400  11.775  0.6254 -0.6414  0.6285
 8466TIP3    H146889   5.533   4.458  11.848 -0.3077  0.3172  0.1712
 8466TIP3    H246890   5.572   4.426  11.706 -1.0376  1.1655 -0.2242
 8467TIP3   OH246891   0.367   4.120   1.598 -0.4237  0.3708 -0.0489
 8467TIP3    H146892   0.460   4.122   1.621 -0.6930  1.4004  1.0526
 8467TIP3    H246893   0.352   4.030   1.568  0.9669  0.2452 -0.4757
 8468TIP3   OH246894   4.934   1.897  11.006 -0.3331  0.0253  0.2128
 8468TIP3    H146895   4.967   1.835  11.072 -0.7970  0.6043  0.9991
 8468TIP3    H246896   4.920   1.843  10.929  0.0196 -0.7101  0.6455
 8469TIP3   OH246897   1.433   3.261   5.583 -0.8104  0.8196 -0.3929
 8469TIP3    H146898   1.439   3.333   5.520  0.7925  1.0735 -0.0064
 8469TIP3    H246899   1.398   3.301   5.662 -1.2230  0.8697 -0.5989
 8470TIP3   OH246900   6.371   6.456  15.966 -0.3109  0.3657  0.6317
 8470TIP3    H146901   6.319   6.534  15.988 -0.8322  0.6068 -1.2688
 8470TIP3    H246902   6.319   6.410  15.901  0.8439 -0.6150  0.3655
 8471TIP3   OH246903   3.439   5.763  14.733 -0.2809 -0.3213  0.0135
 8471TIP3    H146904   3.385   5.839  14.712  1.5601  0.9744 -0.3072
 8471TIP3    H246905   3.528   5.799  14.743  0.2505 -2.0545  2.3867
 8472TIP3   OH246906   5.084   6.666   1.921 -0.4393 -0.6608 -0.1406
 8472TIP3    H146907   5.051   6.732   1.860 -0.6059  0.4141  1.0641
 8472TIP3    H246908   5.012   6.604   1.930 -0.6654 -0.4606 -0.5351
 8473TIP3   OH246909   5.909   6.669   5.617 -0.0728  0.2554 -0.2621
 8473TIP3    H146910   5.828   6.672   5.566 -1.3078 -0.5050  1.5401
 8473TIP3    H246911   5.978   6.680   5.552 -1.4621 -1.9458 -2.3088
 8474TIP3   OH246912   1.024   6.604  13.866 -0.5753 -0.3807 -0.0599
 8474TIP3    H146913   0.970   6.682  13.856  0.8153  0.3562 -3.0821
 8474TIP3    H246914   1.088   6.627  13.933 -0.6798  0.7982 -0.3452
 8475TIP3   OH246915   3.940   6.837  15.512 -0.0226 -0.8094  0.7815
 8475TIP3    H146916   4.031   6.867  15.518 -0.1527 -0.0536 -0.6881
 8475TIP3    H246917   3.889   6.906  15.554 -0.0066 -0.7006  0.6240
 8476TIP3   OH246918   3.961   6.386  12.049 -0.1096  0.4047 -0.0274
 8476TIP3    H146919   4.053   6.389  12.024  0.6167 -0.6335  2.2187
 8476TIP3    H246920   3.923   6.317  11.995  0.7980 -0.1534  0.0318
 8477TIP3   OH246921   5.838   6.334  12.956 -0.0967  0.2220 -0.1283
 8477TIP3    H146922   5.818   6.422  12.986 -0.8256 -0.2489  0.8021
 8477TIP3    H246923   5.759   6.307  12.907 -0.8701 -0.7642  1.5722
 8478TIP3   OH246924   4.572   3.254   0.103 -0.2349 -0.1310 -0.1652
 8478TIP3    H146925   4.536   3.167   0.089 -0.7236  0.3105 -2.0542
 8478TIP3    H246926   4.587   3.288   0.014 -2.9374  2.8703  0.3212
 8479TIP3   OH246927   6.764   0.860  12.359  0.2251  0.5425 -0.2603
 8479TIP3    H146928   6.732   0.795  12.297  0.5002 -1.6567  1.7655
 8479TIP3    H246929   6.851   0.830  12.383  0.2766  1.5382  0.9056
 8480TIP3   OH246930   6.549   4.382  14.539 -0.3491 -0.2537  0.2876
 8480TIP3    H146931   6.638   4.402  14.567 -0.2747  0.3696 -0.3829
 8480TIP3    H246932   6.553   4.290  14.513  0.3074 -0.0143 -0.5143
 8481TIP3   OH246933   6.476   2.375  11.716  0.1271 -0.5768 -0.2575
 8481TIP3    H146934   6.402   2.434  11.699  1.8971  1.4251 -1.5058
 8481TIP3    H246935   6.456   2.296  11.665 -0.2567  0.7278 -2.2249
 8482TIP3   OH246936   4.972   6.017   5.857 -0.5914  0.6848  0.1607
 8482TIP3    H146937   4.941   5.981   5.774  2.5747 -0.2546 -0.7645
 8482TIP3    H246938   4.929   5.964   5.924 -1.2722 -0.2571 -0.9876
 8483TIP3   OH246939   2.555   2.324   0.990 -0.1339  0.3899  0.4809
 8483TIP3    H146940   2.474   2.356   1.028 -0.7771 -1.1020  0.4140
 8483TIP3    H246941   2.528   2.260   0.925  1.0164  1.4153 -1.1032
 8484TIP3   OH246942   4.133   3.451   4.939 -0.0815 -0.1225 -0.5828
 8484TIP3    H146943   4.139   3.366   4.984  0.9475 -0.1115 -0.6906
 8484TIP3    H246944   4.056   3.442   4.883 -0.0216 -0.9628 -0.5486
 8485TIP3   OH246945   4.572   0.139   6.080  0.0689  0.0508  0.1767
 8485TIP3    H146946   4.633   0.211   6.063 -0.0570  0.5767  1.7699
 8485TIP3    H246947   4.517   0.171   6.151 -3.5393  0.4861 -2.5181
 8486TIP3   OH246948   0.042   0.995   2.805 -0.4430  0.3153 -0.0774
 8486TIP3    H146949  -0.044   0.985   2.847  0.2925 -2.0753  0.9860
 8486TIP3    H246950   0.081   0.908   2.808  0.8382  0.6483 -3.2778
 8487TIP3   OH246951   2.629   3.150  12.833 -0.5271  0.6119  0.0820
 8487TIP3    H146952   2.637   3.231  12.883 -0.6335  0.8767 -0.3250
 8487TIP3    H246953   2.541   3.153  12.796 -1.9258 -1.3375  2.8908
 8488TIP3   OH246954   1.769   4.159  16.251 -0.1795 -0.4087  0.7388
 8488TIP3    H146955   1.722   4.115  16.180  0.1256 -0.1844  0.3948
 8488TIP3    H246956   1.718   4.237  16.270 -1.2907 -1.3985  2.0479
 8489TIP3   OH246957   2.326   6.100  16.672  0.2184 -0.5478 -0.1515
 8489TIP3    H146958   2.328   6.005  16.660 -0.2207 -0.5453 -0.2714
 8489TIP3    H246959   2.388   6.117  16.743 -0.1509 -0.9944  0.2874
 8490TIP3   OH246960   6.341   2.914  14.609 -0.0908  0.6657 -0.4179
 8490TIP3    H146961   6.351   2.974  14.536  0.2672  0.8743 -0.2032
 8490TIP3    H246962   6.367   2.965  14.686  0.7848  0.0767 -0.3060
 8491TIP3   OH246963   0.369   5.706   1.047  0.3223  0.0819 -0.0857
 8491TIP3    H146964   0.325   5.789   1.028 -0.8282 -0.3883  0.4347
 8491TIP3    H246965   0.444   5.732   1.102 -1.8874  0.5662  2.9844
 8492TIP3   OH246966   4.465   2.002  16.551  0.2285  0.6193  0.5209
 8492TIP3    H146967   4.491   1.994  16.643 -2.1159  0.0958  1.1970
 8492TIP3    H246968   4.450   2.095  16.538  1.8554  0.8668  0.2568
 8493TIP3   OH246969   2.194   0.747   3.950  0.2850 -0.1291  0.1584
 8493TIP3    H146970   2.208   0.662   3.992  1.6551 -0.3438 -0.6597
 8493TIP3    H246971   2.101   0.747   3.928  0.2428 -1.3968  0.2423
 8494TIP3   OH246972   2.197   1.783   4.130  0.5299  0.2962  0.6493
 8494TIP3    H146973   2.255   1.853   4.159 -0.9862  1.8116  0.2047
 8494TIP3    H246974   2.109   1.813   4.155 -0.3871 -0.3818 -1.4984
 8495TIP3   OH246975   0.160   4.085   6.541 -0.5330 -0.0157  0.0823
 8495TIP3    H146976   0.075   4.080   6.498 -0.4289 -0.0589 -0.1205
 8495TIP3    H246977   0.149   4.036   6.622 -0.3576 -1.0798 -0.5214
 8496TIP3   OH246978   2.327   3.374   1.203  0.4323  0.1737  0.0790
 8496TIP3    H146979   2.413   3.410   1.180  0.3638  2.1587  2.5094
 8496TIP3    H246980   2.347   3.298   1.258  0.7227  1.1173  1.3386
 8497TIP3   OH246981   0.876   0.195   0.171 -0.2224 -0.1396 -0.5785
 8497TIP3    H146982   0.808   0.250   0.131 -0.6978 -0.2877  0.0156
 8497TIP3    H246983   0.889   0.233   0.258  1.4900  0.7818 -1.1795
 8498TIP3   OH246984   2.878   4.323   2.245 -0.8583  0.7059 -0.3838
 8498TIP3    H146985   2.816   4.264   2.287  1.0305 -0.9565  0.2120
 8498TIP3    H246986   2.884   4.398   2.305 -1.4439  0.3543  0.1246
 8499TIP3   OH246987   3.288   3.918  10.996 -0.7194  0.0636 -0.2362
 8499TIP3    H146988   3.208   3.866  10.999 -0.2337 -0.6848 -0.0642
 8499TIP3    H246989   3.293   3.948  10.905  0.1044 -1.9801 -0.9169
 8500TIP3   OH246990   3.913   3.914  11.286 -0.3909  0.2498  0.6137
 8500TIP3    H146991   3.921   3.959  11.201  0.4696 -1.4459 -0.2543
 8500TIP3    H246992   3.982   3.952  11.339  0.3680 -0.0488 -0.1311
 8501TIP3   OH246993   1.562   6.487  14.063 -0.2797 -0.1987 -0.2440
 8501TIP3    H146994   1.603   6.501  14.148  1.2679  1.3461 -1.1774
 8501TIP3    H246995   1.468   6.498  14.079  0.0518  0.9164  1.1203
 8502TIP3   OH246996   5.721   3.386  11.313 -0.4525 -0.0112 -0.6261
 8502TIP3    H146997   5.627   3.372  11.325 -0.2156 -0.9641  0.2196
 8502TIP3    H246998   5.760   3.358  11.395  0.6278 -0.1010 -1.1561
 8503TIP3   OH246999   6.780   1.984   0.144  0.3402 -0.1498 -0.4209
 8503TIP3    H147000   6.800   2.072   0.173 -0.3358  0.5769 -2.0123
 8503TIP3    H247001   6.855   1.931   0.170  1.0898  1.0452 -0.1181
 8504TIP3   OH247002   3.014   3.232   2.459  0.3352  0.1091 -0.1780
 8504TIP3    H147003   2.985   3.211   2.370  0.8064  1.4754 -0.6850
 8504TIP3    H247004   2.967   3.170   2.515 -0.3520 -0.4492 -1.3325
 8505TIP3   OH247005   3.270   2.838  16.519 -0.1451  0.1154  0.2593
 8505TIP3    H147006   3.244   2.870  16.433 -0.4990 -2.6905 -0.7596
 8505TIP3    H247007   3.366   2.834  16.516 -0.0705  1.3342  0.5401
 8506TIP3   OH247008   4.905   0.464  15.799  0.6533 -0.0253  0.5551
 8506TIP3    H147009   4.956   0.532  15.754  0.3956 -0.0128  0.2834
 8506TIP3    H247010   4.842   0.434  15.734 -0.2303  0.5286  1.1385
 8507TIP3   OH247011   2.018   4.181   3.869  0.8015 -0.5205 -0.0596
 8507TIP3    H147012   2.075   4.167   3.945  1.2549 -1.0024 -0.4746
 8507TIP3    H247013   1.936   4.139   3.893  1.3015 -1.6694 -0.2477
 8508TIP3   OH247014   2.440   4.687  10.849  0.0506  0.4171 -0.6733
 8508TIP3    H147015   2.392   4.686  10.766  0.9697 -0.9141 -1.2320
 8508TIP3    H247016   2.471   4.778  10.857  2.4270  0.0021 -3.3299
 8509TIP3   OH247017   0.744   6.000   3.618  0.0750 -0.1553  0.4521
 8509TIP3    H147018   0.752   6.089   3.653 -1.4647 -0.7416  2.5185
 8509TIP3    H247019   0.706   5.950   3.690 -1.1241 -2.0209 -1.3805
 8510TIP3   OH247020   6.411   4.357  14.881  0.0767 -0.5574  0.3353
 8510TIP3    H147021   6.353   4.429  14.906 -0.2517 -0.4391 -0.6915
 8510TIP3    H247022   6.362   4.310  14.813  1.1767 -0.4332 -0.5891
 8511TIP3   OH247023   1.624   6.350  14.919  0.1732  0.1434  0.5225
 8511TIP3    H147024   1.641   6.282  14.854 -1.0247  0.9863 -0.7159
 8511TIP3    H247025   1.703   6.350  14.974  1.9376  0.4401 -1.8367
 8512TIP3   OH247026   0.121   4.553   0.064  0.3942 -0.2000 -0.5294
 8512TIP3    H147027   0.088   4.519   0.147  1.3414  1.2330  0.4902
 8512TIP3    H247028   0.082   4.641   0.058 -0.6330 -0.7342 -2.2309
 8513TIP3   OH247029   1.862   2.448   2.336 -0.1007 -0.0249 -1.0013
 8513TIP3    H147030   1.844   2.373   2.393 -0.8573  1.1153  0.3261
 8513TIP3    H247031   1.829   2.422   2.250  1.4982 -1.9700 -1.0781
 8514TIP3   OH247032   3.041   2.167   3.086  0.0117  0.1516 -0.0859
 8514TIP3    H147033   3.004   2.079   3.080  1.0016 -0.2693 -0.1909
 8514TIP3    H247034   3.003   2.203   3.166 -1.3366  0.0879 -0.6779
 8515TIP3   OH247035   4.496   6.831  13.213  0.4649  0.1312 -0.5515
 8515TIP3    H147036   4.405   6.821  13.239  0.3732  2.0044 -0.0199
 8515TIP3    H247037   4.502   6.785  13.129 -1.5618  1.8238 -1.7514
 8516TIP3   OH247038   3.007   3.872  11.726  0.2418  0.1637 -0.3261
 8516TIP3    H147039   3.046   3.932  11.789  1.0797 -1.0393  0.3551
 8516TIP3    H247040   2.971   3.802  11.780  1.2723 -1.0725 -1.1725
 8517TIP3   OH247041   2.087   3.172  16.324  0.4649 -0.2087 -0.7669
 8517TIP3    H147042   2.060   3.184  16.233  0.4582  0.8687 -0.6397
 8517TIP3    H247043   2.179   3.198  16.326  0.5909 -0.6637 -0.5516
 8518TIP3   OH247044   2.863   1.332   6.584 -0.0963 -1.0602 -0.0890
 8518TIP3    H147045   2.804   1.392   6.538 -0.5330  0.7760  2.6246
 8518TIP3    H247046   2.805   1.270   6.628  0.0530 -0.4759  0.9711
 8519TIP3   OH247047   1.329   2.967  13.108 -0.1485 -0.4423 -0.5662
 8519TIP3    H147048   1.328   3.030  13.180  1.1348 -1.6958  0.6059
 8519TIP3    H247049   1.421   2.943  13.097 -0.3538 -0.5576 -2.4073
 8520TIP3   OH247050   5.022   3.706   2.605 -0.0163  0.2035 -0.2162
 8520TIP3    H147051   5.027   3.617   2.639  1.3622  0.7813  1.2200
 8520TIP3    H247052   5.110   3.724   2.571  0.1716  1.5085  0.8904
 8521TIP3   OH247053   0.911   3.796  12.804 -0.5745 -0.0610 -0.0165
 8521TIP3    H147054   0.839   3.781  12.742 -1.5552 -0.9489  1.2798
 8521TIP3    H247055   0.963   3.716  12.802 -1.1445 -0.4716  0.9586
 8522TIP3   OH247056   6.839   3.333   3.796  0.0918 -0.3253  0.0674
 8522TIP3    H147057   6.811   3.288   3.875  0.3708 -0.3048  0.1799
 8522TIP3    H247058   6.776   3.404   3.784  0.4294  0.0763  0.6428
 8523TIP3   OH247059   6.398   1.328   1.642 -0.0695  0.3014 -0.1487
 8523TIP3    H147060   6.344   1.325   1.721  0.0856  1.0179 -0.0068
 8523TIP3    H247061   6.342   1.294   1.573 -0.1614 -0.4573  0.2954
 8524TIP3   OH247062   0.590   5.171   5.255  0.7693 -0.1797  0.0019
 8524TIP3    H147063   0.503   5.131   5.264  0.1300  1.2903  0.9328
 8524TIP3    H247064   0.651   5.105   5.287  0.1955 -1.8585 -2.1670
 8525TIP3   OH247065   5.734   5.005   0.995 -0.0930 -0.4219 -0.0647
 8525TIP3    H147066   5.804   5.039   1.051 -1.3998 -0.5024  1.6930
 8525TIP3    H247067   5.750   5.045   0.910  0.8836  1.1952  0.8308
 8526TIP3   OH247068   4.287   4.238   3.756  0.3994 -0.2459  0.1984
 8526TIP3    H147069   4.201   4.271   3.732  0.0133 -1.0202  0.4934
 8526TIP3    H247070   4.348   4.294   3.708 -0.2958 -0.6002 -1.1771
 8527TIP3   OH247071   1.953   0.386   3.755 -0.3564  0.0847 -0.8109
 8527TIP3    H147072   1.869   0.361   3.793 -0.1824  0.6467 -0.0192
 8527TIP3    H247073   1.991   0.447   3.819  0.4982  0.1038 -1.3176
 8528TIP3   OH247074   4.841   0.695  14.544  0.0772 -0.5386 -0.2482
 8528TIP3    H147075   4.904   0.767  14.549 -0.6342 -0.0127  2.6019
 8528TIP3    H247076   4.757   0.735  14.567 -1.0402 -1.6021 -2.1677
 8529TIP3   OH247077   4.002   4.955  16.388  0.0265  0.0755 -0.2104
 8529TIP3    H147078   4.071   4.997  16.338 -0.2651  0.4835 -0.2769
 8529TIP3    H247079   3.995   5.007  16.468 -0.2888  0.1157 -0.2609
 8530TIP3   OH247080   3.372   5.236   5.237  0.0078  0.4162  0.4377
 8530TIP3    H147081   3.416   5.271   5.315  0.5680  0.2613  0.1909
 8530TIP3    H247082   3.443   5.213   5.177 -0.4347  1.4296 -0.5088
 8531TIP3   OH247083   5.559   5.273  12.014  0.1699 -0.3969  0.1409
 8531TIP3    H147084   5.603   5.357  12.008  0.4708 -0.6087 -0.7134
 8531TIP3    H247085   5.467   5.292  11.993  0.0687 -0.1545  0.7694
 8532TIP3   OH247086   3.077   4.783   1.705 -0.1758 -0.0434  0.4556
 8532TIP3    H147087   3.079   4.776   1.800  1.6873 -1.0094  0.4056
 8532TIP3    H247088   2.989   4.813   1.684 -0.1066  1.8457  2.5773
 8533TIP3   OH247089   5.961   0.264   2.276 -0.1337 -0.0388  0.6180
 8533TIP3    H147090   6.008   0.343   2.246  1.9349 -2.0816 -2.1868
 8533TIP3    H247091   5.887   0.257   2.216 -0.8416  0.2199  1.4508
 8534TIP3   OH247092   4.552   5.622   4.571  0.4449  0.2538  0.0597
 8534TIP3    H147093   4.631   5.572   4.592  0.2140 -0.2924 -0.3635
 8534TIP3    H247094   4.585   5.709   4.547  0.7228  1.0457  2.8964
 8535TIP3   OH247095   1.414   4.645   4.630  0.2752  0.9351 -0.3590
 8535TIP3    H147096   1.359   4.699   4.573  0.9972  0.6144 -1.3930
 8535TIP3    H247097   1.499   4.688   4.631  0.2142  1.0676  0.7004
 8536TIP3   OH247098   1.962   4.862   2.574 -0.2396 -0.1657 -0.2001
 8536TIP3    H147099   1.879   4.833   2.611 -0.2963  0.7781  0.4355
 8536TIP3    H247100   1.966   4.955   2.594 -0.2301  0.3807 -2.5235
 8537TIP3   OH247101   6.349   4.306  15.218 -0.1461 -0.5207  0.4865
 8537TIP3    H147102   6.256   4.301  15.242  0.3134 -2.2272  2.2018
 8537TIP3    H247103   6.352   4.276  15.128 -1.3667  0.6513  0.0170
 8538TIP3   OH247104   4.995   2.329   3.871  0.1275 -0.3563 -0.0574
 8538TIP3    H147105   5.058   2.400   3.858 -1.7603  1.2873 -0.7240
 8538TIP3    H247106   5.043   2.250   3.847  1.0750  1.1008 -3.6744
 8539TIP3   OH247107   2.100   5.444  11.367  0.1763  0.6821 -0.2126
 8539TIP3    H147108   2.108   5.452  11.462  1.9453  1.3866 -0.3909
 8539TIP3    H247109   2.011   5.410  11.354  0.4951 -1.2147  1.7841
 8540TIP3   OH247110   6.227   2.845   5.810 -0.6943  0.0576 -0.7651
 8540TIP3    H147111   6.163   2.916   5.804 -1.8292 -0.7368  0.9386
 8540TIP3    H247112   6.175   2.765   5.805  0.2663 -0.6221 -0.2233
 8541TIP3   OH247113   5.665   3.868  13.055 -0.3216  0.0698 -0.4143
 8541TIP3    H147114   5.737   3.827  13.103 -0.6083  0.4033  0.3178
 8541TIP3    H247115   5.598   3.800  13.049 -0.1904 -0.0474 -0.5551
 8542TIP3   OH247116   2.725   5.724  10.458  0.3716 -0.2817 -0.4578
 8542TIP3    H147117   2.650   5.746  10.403 -0.8608 -0.2446  1.1604
 8542TIP3    H247118   2.769   5.653  10.412 -0.4509 -0.0755 -1.6009
 8543TIP3   OH247119   5.115   4.901  16.454  0.3861  0.0108  0.2835
 8543TIP3    H147120   5.174   4.826  16.447 -1.2457 -1.3509  0.4398
 8543TIP3    H247121   5.141   4.945  16.535  0.3139 -1.3808  1.0925
 8544TIP3   OH247122   6.221   4.431  11.743  0.0531 -0.3738  0.1553
 8544TIP3    H147123   6.302   4.417  11.694  1.1004 -0.2124  1.7500
 8544TIP3    H247124   6.151   4.415  11.680  1.3164  0.7533 -1.6116
 8545TIP3   OH247125   1.279   2.405  14.458  0.1768 -0.2041  0.6753
 8545TIP3    H147126   1.370   2.407  14.489  0.7551  0.8761 -0.9632
 8545TIP3    H247127   1.235   2.472  14.509  0.4160 -0.4005  1.1453
 8546TIP3   OH247128   2.965   6.636   0.126  0.2601 -0.2758 -0.0307
 8546TIP3    H147129   2.911   6.715   0.126  0.4390 -0.1426 -1.3035
 8546TIP3    H247130   2.929   6.583   0.197 -1.0877  0.1209 -0.3850
 8547TIP3   OH247131   1.062   4.340   3.638 -0.1774  0.2997 -0.5705
 8547TIP3    H147132   1.081   4.348   3.731  0.6594  1.4511 -0.8130
 8547TIP3    H247133   1.138   4.296   3.601 -0.4286  0.0017 -0.7311
 8548TIP3   OH247134   1.253   0.319   4.388  0.0042 -0.3670 -0.1030
 8548TIP3    H147135   1.335   0.333   4.341  1.1462 -0.7391  1.6874
 8548TIP3    H247136   1.227   0.230   4.365 -0.7554  0.2605 -1.8645
 8549TIP3   OH247137   1.333   4.972  12.657  0.1591 -0.2674  0.0888
 8549TIP3    H147138   1.334   4.886  12.616  0.2380 -1.0435  1.6254
 8549TIP3    H247139   1.245   4.979  12.695 -0.2065  0.7881 -0.8862
 8550TIP3   OH247140   1.449   2.646  16.622 -0.2604  0.3753 -0.1069
 8550TIP3    H147141   1.477   2.738  16.617 -0.4667  0.4763  0.4977
 8550TIP3    H247142   1.409   2.629  16.537  0.5791  0.5766 -0.5547
 8551TIP3   OH247143   0.400   4.359   3.237 -0.4410  0.0874  0.1488
 8551TIP3    H147144   0.346   4.288   3.201  1.1563 -0.9368 -0.3290
 8551TIP3    H247145   0.410   4.420   3.164 -0.8570  0.2361  0.2109
 8552TIP3   OH247146   2.605   2.014   3.742  0.7805 -0.4064  0.1263
 8552TIP3    H147147   2.585   1.948   3.675  0.0401  0.0018 -0.0696
 8552TIP3    H247148   2.610   1.965   3.824  2.0423 -0.9671 -0.2666
 8553TIP3   OH247149   0.648   3.069   1.542  0.2663 -0.0883  0.0658
 8553TIP3    H147150   0.618   3.081   1.452  0.6899  0.0526 -0.0594
 8553TIP3    H247151   0.615   2.982   1.568  1.2439 -0.7020 -0.6765
 8554TIP3   OH247152   6.713   3.985   5.828 -0.3656 -0.1436  0.0519
 8554TIP3    H147153   6.658   4.010   5.903 -2.7912  0.6049 -1.8337
 8554TIP3    H247154   6.667   3.912   5.787  0.9912 -0.6493 -0.6249
 8555TIP3   OH247155   4.835   2.329  16.258  0.5419 -0.0823 -0.0955
 8555TIP3    H147156   4.859   2.281  16.179  0.4058  1.5855 -1.1936
 8555TIP3    H247157   4.917   2.337  16.307  0.4174 -2.0650  0.5010
 8556TIP3   OH247158   0.454   6.765   1.178  0.2485 -0.2211  0.0518
 8556TIP3    H147159   0.540   6.743   1.142 -0.2817 -0.1071 -1.3324
 8556TIP3    H247160   0.473   6.825   1.250  1.3279 -0.3406 -0.1187
 8557TIP3   OH247161   5.856   4.114  12.215 -0.4989  0.3401  0.1466
 8557TIP3    H147162   5.846   4.112  12.310 -0.7747  0.0781  0.1160
 8557TIP3    H247163   5.772   4.082  12.182 -0.5902  0.9147 -0.1973
 8558TIP3   OH247164   2.450   0.864   2.646 -0.1098  0.0601 -0.0355
 8558TIP3    H147165   2.421   0.914   2.722 -0.4618  1.2467 -0.9164
 8558TIP3    H247166   2.384   0.795   2.636 -0.2493  0.1074  0.5210
 8559TIP3   OH247167   0.767   0.708   0.204 -0.2860  0.2271  0.1269
 8559TIP3    H147168   0.826   0.643   0.244  1.1997  0.4959 -1.4996
 8559TIP3    H247169   0.693   0.656   0.172 -0.5465 -0.2408  1.4266
 8560TIP3   OH247170   3.756   6.687  16.571 -0.4830 -0.1966 -0.2232
 8560TIP3    H147171   3.817   6.686  16.645 -0.6867 -2.1142 -0.0387
 8560TIP3    H247172   3.803   6.737  16.504  0.5821 -0.1960  0.4767
 8561TIP3   OH247173   2.015   5.834  16.528 -0.7448  0.2814  0.2042
 8561TIP3    H147174   1.972   5.749  16.542 -1.1706  0.6048  0.9229
 8561TIP3    H247175   2.089   5.834  16.589 -1.9926  1.2691  1.8144
 8562TIP3   OH247176   6.608   3.790  12.522 -0.4914  0.1046 -0.3445
 8562TIP3    H147177   6.681   3.824  12.573  0.2837 -1.0823 -0.6206
 8562TIP3    H247178   6.606   3.844  12.443 -0.0330  0.2535 -0.2548
 8563TIP3   OH247179   0.211   1.512  13.797 -0.1498 -0.6848 -0.1238
 8563TIP3    H147180   0.295   1.556  13.809 -0.3975 -0.6075  1.7648
 8563TIP3    H247181   0.222   1.460  13.718  2.1933 -1.7516  0.7886
 8564TIP3   OH247182   6.574   0.592  12.836 -0.0365 -0.5266  0.1335
 8564TIP3    H147183   6.551   0.522  12.775 -0.6407 -0.8622  0.7325
 8564TIP3    H247184   6.566   0.552  12.923 -0.0225  0.1846  0.4700
 8565TIP3   OH247185   1.400   5.837  16.506  0.3908  0.2889 -0.5546
 8565TIP3    H147186   1.436   5.880  16.584 -0.5122 -1.0945  0.6854
 8565TIP3    H247187   1.314   5.877  16.494  1.0894  1.5148 -1.7514
 8566TIP3   OH247188   6.564   4.933   6.569  0.0035  0.1423  0.1302
 8566TIP3    H147189   6.629   4.881   6.617 -0.3451 -0.9936 -0.6023
 8566TIP3    H247190   6.616   4.989   6.512  0.3749  0.2932  0.6073
 8567TIP3   OH247191   2.027   3.442   1.246  0.1517  0.2041 -0.1150
 8567TIP3    H147192   1.996   3.367   1.195  0.2093 -0.0263  0.1831
 8567TIP3    H247193   2.123   3.438   1.238  0.1176  1.0435 -1.2181
 8568TIP3   OH247194   6.376   5.460  12.460  0.1926  0.2075 -0.2884
 8568TIP3    H147195   6.353   5.387  12.518 -0.3116  1.3134  0.9599
 8568TIP3    H247196   6.455   5.431  12.415 -0.5509 -1.4936 -0.5668
 8569TIP3   OH247197   4.558   3.418  12.437 -0.1901  0.7091  0.0960
 8569TIP3    H147198   4.647   3.414  12.400 -0.2674 -0.3853  0.0119
 8569TIP3    H247199   4.570   3.463  12.521  0.5719 -0.0968  0.4362
 8570TIP3   OH247200   5.719   0.524   1.792 -0.3900 -0.7880  0.0755
 8570TIP3    H147201   5.660   0.509   1.866  0.1107  3.0173  1.4877
 8570TIP3    H247202   5.806   0.515   1.829 -0.1121  2.2525  0.4214
 8571TIP3   OH247203   0.234   1.127  13.609 -0.7809 -0.0133  0.0324
 8571TIP3    H147204   0.197   1.213  13.590  0.1029  0.2585 -0.5214
 8571TIP3    H247205   0.190   1.099  13.690 -1.4422  0.7287 -0.0580
 8572TIP3   OH247206   3.606   0.507  12.654 -0.1621  0.0159 -0.0968
 8572TIP3    H147207   3.664   0.515  12.578 -1.6097  1.2208 -1.1503
 8572TIP3    H247208   3.625   0.584  12.707 -0.8114  0.4547 -0.4837
 8573TIP3   OH247209   5.302   0.437   3.331 -0.4510 -0.1785  1.0158
 8573TIP3    H147210   5.345   0.352   3.330  0.0688  0.0847  0.1588
 8573TIP3    H247211   5.245   0.434   3.408 -0.8803 -1.5109  0.6689
 8574TIP3   OH247212   6.654   0.936   4.898 -0.2551 -0.1798 -0.2154
 8574TIP3    H147213   6.657   1.025   4.864 -0.7267 -0.3412 -0.7007
 8574TIP3    H247214   6.606   0.943   4.981  2.3537  0.4787  1.3339
 8575TIP3   OH247215   4.570   6.708  13.509  0.7108  0.0037  0.1443
 8575TIP3    H147216   4.576   6.613  13.503  0.9840  0.0640 -4.3563
 8575TIP3    H247217   4.514   6.733  13.436  2.3353  3.3485 -0.1636
 8576TIP3   OH247218   1.573   5.963  13.459 -0.1030  0.3283  0.1280
 8576TIP3    H147219   1.565   5.995  13.369  0.3076 -0.0640 -0.0471
 8576TIP3    H247220   1.578   5.868  13.451  0.7313  0.3365  0.5076
 8577TIP3   OH247221   6.642   2.351  13.552  0.0417  0.4010 -0.2577
 8577TIP3    H147222   6.616   2.439  13.522  0.5973  0.8372  0.5033
 8577TIP3    H247223   6.728   2.364  13.591 -0.2327 -0.3267  0.6288
 8578TIP3   OH247224   2.183   4.380  16.481  0.2515 -0.0102  0.5588
 8578TIP3    H147225   2.110   4.327  16.513  0.3286 -0.4254  0.0581
 8578TIP3    H247226   2.169   4.466  16.520 -0.0446 -0.3160  1.1375
 8579TIP3   OH247227   3.157   2.005  10.750 -0.6544 -0.1013 -0.4211
 8579TIP3    H147228   3.204   2.006  10.833  0.3824  0.9922 -0.9923
 8579TIP3    H247229   3.084   2.066  10.763 -1.0283 -0.6201 -0.0359
 8580TIP3   OH247230   3.078   5.881  14.415  0.3677 -0.0691  0.3430
 8580TIP3    H147231   3.093   5.878  14.321  0.3520  0.7516  0.3139
 8580TIP3    H247232   2.983   5.878  14.425  0.3597  0.1425  0.3245
 8581TIP3   OH247233   6.386   5.694   3.781 -0.1904  0.0991 -0.3358
 8581TIP3    H147234   6.371   5.608   3.821  1.3464  1.1702  2.8356
 8581TIP3    H247235   6.309   5.745   3.804  0.8290  0.8092  1.7523
 8582TIP3   OH247236   5.176   5.876   0.966  0.2667 -0.7492 -0.0283
 8582TIP3    H147237   5.088   5.845   0.988  0.1061 -0.4023 -0.1826
 8582TIP3    H247238   5.225   5.796   0.946  0.0340 -0.9557  0.2189
 8583TIP3   OH247239   3.019   6.175  11.862  0.2430 -0.0860 -0.9022
 8583TIP3    H147240   2.928   6.203  11.856  0.4151  0.5999 -0.4236
 8583TIP3    H247241   3.015   6.094  11.912 -0.0225  0.4368 -0.0578
 8584TIP3   OH247242   0.243   0.150  14.428  0.2552  0.1094 -0.0241
 8584TIP3    H147243   0.235   0.061  14.461  2.4464  0.0741  0.5369
 8584TIP3    H247244   0.178   0.200  14.478  0.3059 -0.8299  1.0150
 8585TIP3   OH247245   2.474   2.514  11.557 -0.0307  0.4056 -0.2340
 8585TIP3    H147246   2.442   2.435  11.601  0.6040  1.1166  1.6163
 8585TIP3    H247247   2.475   2.491  11.464  1.2661 -2.1694  0.3141
 8586TIP3   OH247248   6.399   6.555  12.648 -0.1094 -0.0314  0.0024
 8586TIP3    H147249   6.336   6.545  12.719  0.0472 -2.4534 -0.1145
 8586TIP3    H247250   6.345   6.577  12.572 -0.7394 -1.1606  0.1028
 8587TIP3   OH247251   0.455   5.539   2.657 -0.2756  0.4090  0.1651
 8587TIP3    H147252   0.540   5.533   2.613  0.7599  0.8001  2.0207
 8587TIP3    H247253   0.399   5.585   2.594  0.5905 -0.6766 -1.4694
 8588TIP3   OH247254   4.220   3.858  14.557 -0.0936 -0.2496 -0.3928
 8588TIP3    H147255   4.278   3.914  14.608  0.5333 -2.2884  1.2773
 8588TIP3    H247256   4.267   3.845  14.474  0.4490  0.4503 -0.2136
 8589TIP3   OH247257   4.382   3.524  11.297 -0.8138 -0.3140 -0.2258
 8589TIP3    H147258   4.391   3.501  11.390 -0.1326  0.3580 -0.1216
 8589TIP3    H247259   4.293   3.558  11.290 -0.0246  2.1026  0.7397
 8590TIP3   OH247260   6.146   0.234  14.638  0.3152  0.3273 -0.1829
 8590TIP3    H147261   6.071   0.293  14.644 -0.6293 -0.8768  0.3440
 8590TIP3    H247262   6.164   0.227  14.544 -1.3130 -0.6376 -0.4604
 8591TIP3   OH247263   0.994   0.806   4.653  0.0558 -0.5443  0.5735
 8591TIP3    H147264   1.058   0.875   4.639  0.1961 -0.8181 -0.1773
 8591TIP3    H247265   0.909   0.848   4.642 -0.0152  0.2067  3.1829
 8592TIP3   OH247266   5.488   2.472  14.235  0.6271  0.0132  0.1792
 8592TIP3    H147267   5.425   2.452  14.166 -2.8435  0.5539  2.8947
 8592TIP3    H247268   5.524   2.557  14.211 -2.7854  1.6638  0.3415
 8593TIP3   OH247269   5.245   4.510   5.239 -0.4336  0.1905 -0.2539
 8593TIP3    H147270   5.205   4.580   5.290 -0.3511  1.6787 -2.1323
 8593TIP3    H247271   5.335   4.539   5.224 -1.1910  1.2019 -3.5364
 8594TIP3   OH247272   6.644   1.403  12.488  0.0360  0.4018  0.0788
 8594TIP3    H147273   6.567   1.393  12.545 -0.1985  0.4223 -0.2314
 8594TIP3    H247274   6.610   1.391  12.400  0.4010  0.3613 -0.0587
 8595TIP3   OH247275   1.505   0.378  16.069  0.2717 -0.1717 -0.0843
 8595TIP3    H147276   1.515   0.390  15.975 -0.3016  0.6350 -0.0448
 8595TIP3    H247277   1.573   0.314  16.092 -0.9458 -2.0621 -1.3897
 8596TIP3   OH247278   3.378   6.632   3.730 -0.0225 -0.4659  0.0494
 8596TIP3    H147279   3.431   6.553   3.736 -0.5047 -0.7018  1.5715
 8596TIP3    H247280   3.346   6.633   3.640  0.4131 -1.7282 -0.1265
 8597TIP3   OH247281   4.636   2.369  11.983 -0.1125  0.6041 -0.4590
 8597TIP3    H147282   4.652   2.394  11.892 -1.6098  1.2061 -0.5838
 8597TIP3    H247283   4.703   2.416  12.033 -1.1448  2.7169 -0.9675
 8598TIP3   OH247284   1.524   1.502  13.140  0.3220 -0.1525  0.0827
 8598TIP3    H147285   1.601   1.506  13.197 -0.7853  3.3419  1.5887
 8598TIP3    H247286   1.531   1.579  13.085 -0.8928 -1.1203 -1.4987
 8599TIP3   OH247287   2.166   5.038   0.499  0.1294 -0.1582  0.2602
 8599TIP3    H147288   2.160   4.981   0.423 -0.4136 -2.5569  1.9934
 8599TIP3    H247289   2.196   4.981   0.570  0.3624  1.9171  1.9406
 8600TIP3   OH247290   5.009   0.756   5.305 -0.2474 -0.2878 -0.5138
 8600TIP3    H147291   4.933   0.702   5.286 -1.0640  0.0980  1.4792
 8600TIP3    H247292   5.051   0.713   5.379  0.1746  0.7546 -0.1375
 8601TIP3   OH247293   2.285   6.442   1.178 -0.3234  0.0558  0.1445
 8601TIP3    H147294   2.241   6.370   1.224 -1.9132  0.3215 -0.8673
 8601TIP3    H247295   2.250   6.437   1.089 -2.3187  3.4707  0.5631
 8602TIP3   OH247296   4.070   2.539   3.013  0.3365  0.1631  0.3930
 8602TIP3    H147297   4.041   2.601   3.080  0.3049 -0.5681  1.0730
 8602TIP3    H247298   4.165   2.548   3.011  0.3022  0.5258  0.1840
 8603TIP3   OH247299   1.860   6.855  14.432 -0.1916  0.1776  0.4047
 8603TIP3    H147300   1.832   6.843  14.341  1.3262 -0.1071 -0.0492
 8603TIP3    H247301   1.796   6.917  14.468 -2.0690 -1.2810 -0.2105
 8604TIP3   OH247302   0.008   3.722   3.648 -0.2731 -0.4634 -0.1445
 8604TIP3    H147303  -0.027   3.735   3.560  0.1776 -0.9098 -0.4025
 8604TIP3    H247304   0.029   3.810   3.680 -1.3558 -0.2184 -0.0880
 8605TIP3   OH247305   5.355   1.824   4.379  0.2449  0.3690 -0.0039
 8605TIP3    H147306   5.288   1.881   4.418 -0.7827 -1.1046  0.4911
 8605TIP3    H247307   5.340   1.830   4.285 -1.5392 -0.9960  0.1494
 8606TIP3   OH247308   5.382   5.071   1.333  0.6183 -0.1530  1.1439
 8606TIP3    H147309   5.454   5.128   1.309 -0.3095  0.5029 -0.2045
 8606TIP3    H247310   5.413   4.982   1.314  1.8531 -0.0905  2.7039
 8607TIP3   OH247311   6.428   6.746   0.739 -0.0422 -0.1820  0.0252
 8607TIP3    H147312   6.368   6.806   0.695  0.4921  0.0497 -0.3994
 8607TIP3    H247313   6.386   6.728   0.823  0.0429  1.2269  0.3950
 8608TIP3   OH247314   5.644   0.558  15.277 -0.3549 -0.1968  0.1508
 8608TIP3    H147315   5.618   0.611  15.353 -1.6449 -0.3392 -0.1796
 8608TIP3    H247316   5.706   0.494  15.313 -1.5340 -0.7605  1.2517
 8609TIP3   OH247317   3.706   2.380   5.299 -0.3316  0.2388  0.1402
 8609TIP3    H147318   3.801   2.376   5.285 -0.5380 -0.0498 -1.4711
 8609TIP3    H247319   3.695   2.433   5.378  1.1513  1.0501 -0.1528
 8610TIP3   OH247320   5.396   0.269   1.617 -0.2847 -0.1524 -0.5208
 8610TIP3    H147321   5.416   0.354   1.576  0.4300  0.7872  1.6446
 8610TIP3    H247322   5.350   0.220   1.548 -0.7543  1.9840 -1.8362
 8611TIP3   OH247323   4.137   5.235  14.925  0.1453  0.1900  0.3183
 8611TIP3    H147324   4.143   5.233  15.021 -1.2628 -0.5186  0.4218
 8611TIP3    H247325   4.068   5.298  14.907 -1.1600 -1.3080 -0.1012
 8612TIP3   OH247326   4.478   1.518   3.926 -0.1888  0.6914 -0.6402
 8612TIP3    H147327   4.512   1.441   3.881 -0.4377 -0.2407  0.7268
 8612TIP3    H247328   4.555   1.558   3.966 -0.1188  0.9576 -1.0277
 8613TIP3   OH247329   4.170   3.511  15.108 -0.0875  0.0202  0.0174
 8613TIP3    H147330   4.080   3.500  15.078  0.3510 -3.0076 -0.4462
 8613TIP3    H247331   4.222   3.455  15.050  1.8761  0.4448  1.2860
 8614TIP3   OH247332   6.199   5.384  11.418  0.3549 -0.0469  0.5807
 8614TIP3    H147333   6.179   5.298  11.382 -1.6692  0.4963  0.2921
 8614TIP3    H247334   6.261   5.422  11.356 -0.8347 -0.2595 -0.7968
 8615TIP3   OH247335   0.912   0.464  11.796 -0.3655  0.7608  0.2631
 8615TIP3    H147336   0.901   0.529  11.727  0.1538 -0.2154 -0.7664
 8615TIP3    H247337   0.894   0.512  11.877 -0.9283  1.9411 -0.5334
 8616TIP3   OH247338   0.164   3.928  16.373 -0.3980  0.4581  0.0412
 8616TIP3    H147339   0.182   3.843  16.334 -3.3955  0.2137 -1.0952
 8616TIP3    H247340   0.153   3.910  16.467  1.8263  0.1632  0.2902
 8617TIP3   OH247341   5.315   2.240  11.842 -0.2124  0.0859 -0.2622
 8617TIP3    H147342   5.373   2.171  11.810 -0.0588 -0.4137  1.0330
 8617TIP3    H247343   5.354   2.267  11.926 -0.3588  1.6408 -0.6642
 8618TIP3   OH247344   5.092   4.027   5.402  0.1085  0.3827  0.4214
 8618TIP3    H147345   5.148   4.016   5.479  0.7406 -0.1615 -0.1018
 8618TIP3    H247346   5.121   4.110   5.364  0.2083  0.3578  0.4408
 8619TIP3   OH247347   5.523   2.461  13.918 -0.7525  0.1089  0.1391
 8619TIP3    H147348   5.484   2.538  13.877  1.6545  0.8178 -1.0539
 8619TIP3    H247349   5.589   2.497  13.978 -0.3522 -1.0108  0.3929
 8620TIP3   OH247350   1.204   5.236   5.504  0.3218 -0.5396 -0.5834
 8620TIP3    H147351   1.234   5.273   5.588  1.3484  0.2890 -1.2946
 8620TIP3    H247352   1.272   5.259   5.442 -0.7147 -0.6113 -1.7913
 8621TIP3   OH247353   2.800   0.991   0.336  0.8355  0.3301  0.3122
 8621TIP3    H147354   2.790   1.086   0.346 -0.0575  0.2461  0.3387
 8621TIP3    H247355   2.881   0.971   0.382  1.9601  1.3014 -1.1557
 8622TIP3   OH247356   6.364   0.676  13.611 -0.1496  0.2675 -0.0035
 8622TIP3    H147357   6.450   0.673  13.653  0.5805 -0.2095 -1.4673
 8622TIP3    H247358   6.373   0.743  13.543 -0.3214 -1.1076 -1.4171
 8623TIP3   OH247359   2.384   6.099  16.042  0.0523  0.2410 -0.4262
 8623TIP3    H147360   2.420   6.177  16.084  1.2318 -0.7493  0.4716
 8623TIP3    H247361   2.300   6.084  16.086 -1.1486  2.0474 -1.9176
 8624TIP3   OH247362   1.102   3.990   5.643  0.2561  0.5274  0.5708
 8624TIP3    H147363   1.120   4.058   5.578  1.0382  0.2110  0.4425
 8624TIP3    H247364   1.034   4.028   5.699  0.7160  1.4320  0.5319
 8625TIP3   OH247365   5.300   1.511   3.546 -0.1578 -0.1729 -0.1750
 8625TIP3    H147366   5.383   1.467   3.567  0.7792  1.8635  0.5929
 8625TIP3    H247367   5.311   1.538   3.455 -0.3000 -0.5545 -0.3089
 8626TIP3   OH247368   6.206   3.166  15.971 -0.3911  0.0368  0.0585
 8626TIP3    H147369   6.259   3.089  15.951  0.5574 -0.1575  2.9241
 8626TIP3    H247370   6.136   3.134  16.028 -1.0374  1.0223 -0.1469
 8627TIP3   OH247371   4.323   4.365   4.761 -0.0288 -0.5221  0.4444
 8627TIP3    H147372   4.311   4.396   4.850 -1.0558  0.5966 -0.0635
 8627TIP3    H247373   4.344   4.443   4.710  0.4140 -1.1266 -0.3314
 8628TIP3   OH247374   4.126   3.557  15.391 -0.0097  0.2837  0.4226
 8628TIP3    H147375   4.064   3.628  15.411 -2.1469 -0.9209 -1.4517
 8628TIP3    H247376   4.109   3.536  15.299  3.2468 -0.1740 -0.1824
 8629TIP3   OH247377   5.089   3.555   4.324 -0.2825 -0.0055  0.3170
 8629TIP3    H147378   5.068   3.649   4.329  0.2065  0.0789  0.8413
 8629TIP3    H247379   5.184   3.551   4.337  0.0161 -0.4129 -1.6279
 8630TIP3   OH247380   4.302   2.728  15.444  0.2439  0.2342  0.5286
 8630TIP3    H147381   4.355   2.768  15.375  1.4365 -0.9609  0.7240
 8630TIP3    H247382   4.300   2.635  15.422 -1.2109  0.1532  0.9185
 8631TIP3   OH247383   4.887   6.595  12.942  0.1845 -0.4631  0.1523
 8631TIP3    H147384   4.797   6.628  12.946  0.9686  1.9845 -0.2526
 8631TIP3    H247385   4.898   6.547  13.024 -1.2103 -0.0243  0.6310
 8632TIP3   OH247386   1.223   4.642  16.660  0.1401  0.1548  0.0391
 8632TIP3    H147387   1.202   4.734  16.676 -0.8874  0.0426 -0.5576
 8632TIP3    H247388   1.149   4.594  16.698  0.2781 -0.3740 -0.3488
 8633TIP3   OH247389   4.599   0.551  11.753 -0.0093  0.5470 -0.7122
 8633TIP3    H147390   4.609   0.633  11.704  0.0241  0.5437 -0.7113
 8633TIP3    H247391   4.559   0.577  11.836  0.6679  0.6649 -0.4118
 8634TIP3   OH247392   5.545   2.939  15.557 -0.6013 -0.3709  0.0579
 8634TIP3    H147393   5.585   2.854  15.541  0.4808  0.1520 -0.1131
 8634TIP3    H247394   5.503   2.962  15.475 -0.7630 -0.6706  0.0557
 8635TIP3   OH247395   6.370   1.373  16.908  0.1392 -0.4417 -0.6423
 8635TIP3    H147396   6.427   1.301  16.932  2.2234  1.0580 -0.7814
 8635TIP3    H247397   6.321   1.393  16.987 -1.3978 -2.7412 -0.9384
 8636TIP3   OH247398   2.090   3.971  13.481  0.2558  0.4901 -0.8934
 8636TIP3    H147399   2.149   3.930  13.418 -0.5779  0.9232 -1.9979
 8636TIP3    H247400   2.019   3.907  13.492 -1.1541  1.6197 -2.7787
 8637TIP3   OH247401   3.642   6.023  15.527  0.0632 -0.1305  0.0102
 8637TIP3    H147402   3.615   6.060  15.611  1.1496  1.5811 -0.3215
 8637TIP3    H247403   3.716   5.966  15.548 -0.7278 -1.0365  0.3800
 8638TIP3   OH247404   0.608   3.739  11.021  0.3376 -0.1826 -0.0698
 8638TIP3    H147405   0.600   3.755  11.115 -0.2612  0.2438 -0.1869
 8638TIP3    H247406   0.542   3.672  11.003  0.6616 -0.4871 -0.1347
 8639TIP3   OH247407   4.114   1.297   1.833  0.3359  0.0770 -0.2052
 8639TIP3    H147408   4.019   1.302   1.842  0.2650 -0.6511 -0.4431
 8639TIP3    H247409   4.145   1.272   1.920  0.3600  0.8293  0.0069
 8640TIP3   OH247410   5.176   2.407  10.893  0.5713 -0.2194  0.3111
 8640TIP3    H147411   5.228   2.397  10.813 -0.4335  0.0479 -0.4024
 8640TIP3    H247412   5.149   2.318  10.915 -0.2550 -0.1685 -0.4304
 8641TIP3   OH247413   2.066   6.645   5.619  0.3488  0.6530 -0.6967
 8641TIP3    H147414   2.034   6.716   5.564  1.0492  0.4176 -1.4230
 8641TIP3    H247415   2.032   6.565   5.578 -1.1485  0.5753  0.5883
 8642TIP3   OH247416   0.620   5.158  13.904 -0.7240 -0.4463  0.0933
 8642TIP3    H147417   0.554   5.160  13.973  1.3699  0.9905  2.2273
 8642TIP3    H247418   0.702   5.142  13.950  0.7259  0.1460 -2.1319
 8643TIP3   OH247419   2.770   3.767  13.315 -0.8547 -0.5801  0.0297
 8643TIP3    H147420   2.831   3.824  13.269 -0.2407  0.0125  1.5093
 8643TIP3    H247421   2.824   3.723  13.381 -1.8523 -0.6974  0.7862
 8644TIP3   OH247422   2.196   3.645  14.921 -0.0606  0.1540 -0.7599
 8644TIP3    H147423   2.183   3.675  14.831  1.5660  2.1377 -0.4182
 8644TIP3    H247424   2.290   3.629  14.928 -0.0005  1.0076  0.8381
 8645TIP3   OH247425   4.473   3.553   0.539 -0.0278  1.1391  0.7496
 8645TIP3    H147426   4.431   3.484   0.590 -0.4856  0.4657 -0.5050
 8645TIP3    H247427   4.484   3.516   0.452 -0.2104  2.6170  0.0626
 8646TIP3   OH247428   0.969   4.059  11.054  0.0156 -0.0257  0.1338
 8646TIP3    H147429   1.021   3.983  11.080  0.6762  1.2195  2.7529
 8646TIP3    H247430   0.985   4.124  11.122 -1.6439  1.9796 -1.2567
 8647TIP3   OH247431   1.465   5.485  14.153  0.7763  0.2807 -0.1875
 8647TIP3    H147432   1.495   5.534  14.229 -1.1494 -0.6740  1.2461
 8647TIP3    H247433   1.409   5.546  14.105 -2.6126 -0.6318  2.2239
 8648TIP3   OH247434   4.053   0.144   0.835  0.0206 -0.1173  0.5272
 8648TIP3    H147435   4.033   0.092   0.758 -1.0762 -0.0387  0.7394
 8648TIP3    H247436   4.083   0.080   0.900 -0.1679 -0.3312  0.4056
 8649TIP3   OH247437   2.337   0.421  13.681 -0.6963 -0.1507 -0.2230
 8649TIP3    H147438   2.418   0.379  13.651 -0.8919  0.8105 -2.2605
 8649TIP3    H247439   2.269   0.355  13.667 -0.5906 -0.1639 -0.6878
 8650TIP3   OH247440   3.980   4.117   2.738 -0.4616  0.2995  0.0522
 8650TIP3    H147441   4.031   4.196   2.724  0.9509 -0.6929 -0.5651
 8650TIP3    H247442   3.998   4.092   2.829  0.0588  0.0272 -0.1230
 8651TIP3   OH247443   5.572   4.798   3.391  0.2547  0.7150  0.3702
 8651TIP3    H147444   5.622   4.739   3.447 -0.8203 -0.1295  0.4854
 8651TIP3    H247445   5.495   4.746   3.365  1.3036  0.6125 -2.9379
 8652TIP3   OH247446   3.036   3.371   5.878  0.3083 -0.8254 -0.1393
 8652TIP3    H147447   3.086   3.298   5.841  0.8462 -1.3254  1.4674
 8652TIP3    H247448   3.085   3.449   5.854  2.1219 -1.3224  1.6478
 8653TIP3   OH247449   0.266   1.442   3.789 -0.7968  0.3685  0.2398
 8653TIP3    H147450   0.353   1.479   3.805 -1.6623  2.0246  1.4023
 8653TIP3    H247451   0.283   1.351   3.766  1.2589  0.7146  0.1458
 8654TIP3   OH247452   1.053   3.358   1.924 -0.1589  0.3043 -0.3108
 8654TIP3    H147453   1.033   3.384   1.834 -1.3095  1.7281  0.3166
 8654TIP3    H247454   1.148   3.350   1.926 -0.2384 -1.9373 -2.1835
 8655TIP3   OH247455   6.694   0.841   3.280  0.2813  0.0506 -0.4205
 8655TIP3    H147456   6.704   0.752   3.314  1.6374  1.0844  2.1620
 8655TIP3    H247457   6.737   0.897   3.345  1.0995  2.4662 -2.8649
 8656TIP3   OH247458   4.248   1.501   3.243  0.3895  0.4020 -0.5607
 8656TIP3    H147459   4.289   1.421   3.277 -0.0213  0.6685  0.6071
 8656TIP3    H247460   4.320   1.564   3.239  0.3545  0.5229  0.3638
 8657TIP3   OH247461   6.791   1.681   2.799  0.4749 -0.0197 -0.4453
 8657TIP3    H147462   6.728   1.714   2.864  1.2800  1.3595 -0.3378
 8657TIP3    H247463   6.786   1.586   2.808  0.1344  0.1233  1.2325
 8658TIP3   OH247464   4.558   0.922   3.774 -0.1448 -0.3487  0.1536
 8658TIP3    H147465   4.530   0.981   3.704  2.1614  3.1785  1.9337
 8658TIP3    H247466   4.494   0.936   3.844  0.5030  0.1588  0.6454
 8659TIP3   OH247467   5.239   3.166   0.297  0.2884  0.0101 -0.3029
 8659TIP3    H147468   5.204   3.161   0.386 -1.2067 -1.4107 -0.9210
 8659TIP3    H247469   5.264   3.258   0.286 -1.1067  0.5923  0.9983
 8660TIP3   OH247470   0.226   0.188   6.511  0.7438 -0.3679  0.9039
 8660TIP3    H147471   0.319   0.204   6.495  0.9588 -2.7076 -0.6673
 8660TIP3    H247472   0.188   0.276   6.522  2.6564  0.8536 -1.3170
 8661TIP3   OH247473   0.430   4.598   2.533  0.4081  0.2302 -0.0108
 8661TIP3    H147474   0.440   4.556   2.447 -1.0056  0.6991 -0.4344
 8661TIP3    H247475   0.500   4.561   2.586  0.8864 -0.5886 -1.1662
 8662TIP3   OH247476   6.476   5.824  15.009 -0.0314  0.3057  0.5848
 8662TIP3    H147477   6.394   5.842  15.054  0.0386  1.4596  0.2907
 8662TIP3    H247478   6.456   5.750  14.951 -1.3429  1.5946 -0.6905
 8663TIP3   OH247479   5.176   2.315   4.908 -0.3462 -0.2458 -0.1039
 8663TIP3    H147480   5.102   2.332   4.966 -1.3492 -3.4191 -0.2872
 8663TIP3    H247481   5.246   2.287   4.967  0.1670  0.9577 -0.1030
 8664TIP3   OH247482   1.201   1.039  16.629 -0.2530 -0.1932 -0.3381
 8664TIP3    H147483   1.119   1.075  16.595 -0.9641 -1.7779 -0.4169
 8664TIP3    H247484   1.181   1.019  16.721  0.2260 -0.0784 -0.2088
 8665TIP3   OH247485   1.027   5.056   5.181 -0.2732  0.0813  0.3985
 8665TIP3    H147486   1.021   5.150   5.197  1.0939  0.4965 -1.3284
 8665TIP3    H247487   1.084   5.024   5.251 -0.5757  0.5396  0.8692
 8666TIP3   OH247488   5.509   3.601   0.594 -0.3217 -0.0872 -0.4215
 8666TIP3    H147489   5.496   3.642   0.679 -0.5993 -0.1524 -0.4333
 8666TIP3    H247490   5.545   3.514   0.614 -2.1517 -0.8575 -0.2746
 8667TIP3   OH247491   4.900   2.899   2.580 -0.0384  0.1411 -0.2037
 8667TIP3    H147492   4.850   2.959   2.635  0.0807  0.3922 -0.3688
 8667TIP3    H247493   4.884   2.812   2.619 -0.7097  0.1994 -0.3325
 8668TIP3   OH247494   6.606   5.370   6.066  0.4337 -0.1251 -0.5558
 8668TIP3    H147495   6.571   5.446   6.112 -0.6617 -0.9342  0.0081
 8668TIP3    H247496   6.583   5.385   5.974 -0.7842 -0.2904 -0.2932
 8669TIP3   OH247497   5.668   1.150   1.088  0.1866 -0.2011  0.3694
 8669TIP3    H147498   5.739   1.211   1.069  1.4722 -2.1203 -1.4095
 8669TIP3    H247499   5.595   1.181   1.035  0.0072  1.1235  1.3309
 8670TIP3   OH247500   5.831   2.853   1.651  0.0097 -0.0088  0.4051
 8670TIP3    H147501   5.862   2.763   1.654  0.7353  0.2490  0.8969
 8670TIP3    H247502   5.873   2.896   1.726 -0.9562  0.5372  0.6500
 8671TIP3   OH247503   6.056   0.041   4.532  0.3463  0.5992 -0.0999
 8671TIP3    H147504   5.980  -0.013   4.551  1.1781 -0.4066  0.4530
 8671TIP3    H247505   6.055   0.050   4.436  0.7081 -1.1985 -0.3041
 8672TIP3   OH247506   3.013   5.795  14.703 -0.1916 -0.4785  0.2299
 8672TIP3    H147507   3.066   5.825  14.630  0.2750  1.3545  1.2528
 8672TIP3    H247508   3.070   5.736  14.752  0.0338 -0.4798 -0.0310
 8673TIP3   OH247509   4.050   0.167  13.163 -0.2226  0.1856  0.3787
 8673TIP3    H147510   3.975   0.192  13.109  0.4387  1.2142 -0.1086
 8673TIP3    H247511   4.109   0.122  13.103 -0.5468 -0.8556  0.8208
 8674TIP3   OH247512   0.876   3.243  11.190 -0.0500 -0.1781 -0.0777
 8674TIP3    H147513   0.827   3.184  11.133  1.3411 -0.9051 -0.5735
 8674TIP3    H247514   0.959   3.257  11.145  0.5017  0.4302  1.0678
 8675TIP3   OH247515   5.566   3.274   3.141 -0.5165  0.0072 -0.5269
 8675TIP3    H147516   5.500   3.295   3.075  0.9369  0.5458 -1.8605
 8675TIP3    H247517   5.594   3.359   3.174 -0.3068 -0.2112 -0.1346
 8676TIP3   OH247518   2.397   6.552  12.890  0.0805  0.6787 -0.9034
 8676TIP3    H147519   2.392   6.456  12.884  0.4548  0.5151  0.9918
 8676TIP3    H247520   2.348   6.574  12.969  0.2842  2.0422 -1.1298
 8677TIP3   OH247521   1.968   0.310  10.761 -0.0390  0.0040 -0.1441
 8677TIP3    H147522   1.898   0.245  10.759  0.9571 -1.1158  0.1469
 8677TIP3    H247523   2.047   0.262  10.737  0.7166  1.1343 -0.0396
 8678TIP3   OH247524   5.456   6.693   2.475  0.3953 -0.0051 -0.1716
 8678TIP3    H147525   5.371   6.732   2.496  0.2907  0.6174 -1.6076
 8678TIP3    H247526   5.438   6.599   2.472  0.1905 -0.0343  1.3193
 8679TIP3   OH247527   4.406   6.123   2.364  0.3528 -0.2539  0.2667
 8679TIP3    H147528   4.344   6.054   2.340  2.3109 -2.1627  0.4085
 8679TIP3    H247529   4.398   6.130   2.460  0.8445 -1.0216  0.3724
 8680TIP3   OH247530   0.411   1.552  12.563 -0.2921 -0.0238  0.2172
 8680TIP3    H147531   0.481   1.538  12.627  0.2513 -0.2969 -0.4237
 8680TIP3    H247532   0.402   1.467  12.519 -2.0764 -0.4548  1.2937
 8681TIP3   OH247533   6.653   5.306  16.997 -0.3651 -0.2193 -0.3342
 8681TIP3    H147534   6.650   5.219  17.037  0.1944 -0.3287 -0.5324
 8681TIP3    H247535   6.566   5.316  16.957 -0.6416 -0.4378  0.2084
 8682TIP3   OH247536   5.249   6.718   4.598  0.1289  0.6044  0.0724
 8682TIP3    H147537   5.284   6.806   4.582 -2.0078  1.2309 -1.6322
 8682TIP3    H247538   5.224   6.719   4.690  1.2823  1.3131  0.4034
 8683TIP3   OH247539   4.347   5.467  16.731 -0.0082  0.5577  0.6540
 8683TIP3    H147540   4.377   5.475  16.640 -0.5389  0.7985  0.4976
 8683TIP3    H247541   4.291   5.390  16.731  0.7693 -0.0163  0.9934
 8684TIP3   OH247542   2.521   6.106  13.653 -0.6996 -0.2028  0.4722
 8684TIP3    H147543   2.432   6.130  13.677 -0.6306 -2.1135  3.0638
 8684TIP3    H247544   2.576   6.152  13.716  0.0148 -0.3863 -0.0103
 8685TIP3   OH247545   5.971   6.188   0.793  0.5219  0.1216 -0.1088
 8685TIP3    H147546   5.985   6.256   0.859  1.1326 -1.8561  1.9076
 8685TIP3    H247547   6.058   6.165   0.762  0.2023  1.6629 -2.4088
 8686TIP3   OH247548   6.133   5.413   4.691  0.0623  0.5558  0.5146
 8686TIP3    H147549   6.049   5.408   4.736  0.0875  1.2571  0.6462
 8686TIP3    H247550   6.127   5.493   4.638  0.3912  0.2502  0.0069
 8687TIP3   OH247551   1.936   5.566  15.964  0.5961 -0.0096  0.5348
 8687TIP3    H147552   2.012   5.522  16.002  0.7108  1.1545  1.7381
 8687TIP3    H247553   1.861   5.513  15.990  0.8496 -0.2437  0.7883
 8688TIP3   OH247554   6.050   3.290  13.710  0.3762 -0.3721  0.3451
 8688TIP3    H147555   6.129   3.341  13.692  0.7023 -0.4015  1.6539
 8688TIP3    H247556   6.038   3.236  13.632 -0.2341  1.9754 -1.3300
 8689TIP3   OH247557   4.876   4.139  12.622  0.3461 -0.1289  0.2456
 8689TIP3    H147558   4.913   4.161  12.536  1.6739 -3.2871 -0.1016
 8689TIP3    H247559   4.937   4.177  12.685  1.1048 -0.4992 -0.2581
 8690TIP3   OH247560   5.582   6.764  11.028 -0.5179  0.2205 -0.2160
 8690TIP3    H147561   5.543   6.791  11.111  0.9137  2.5046 -0.1864
 8690TIP3    H247562   5.528   6.806  10.961  0.0216  0.8231 -0.2888
 8691TIP3   OH247563   0.241   3.430   3.931 -0.2425  0.3658  0.3802
 8691TIP3    H147564   0.181   3.372   3.884  0.2275  0.1037  0.0975
 8691TIP3    H247565   0.326   3.386   3.925  0.0821  0.9999  0.3079
 8692TIP3   OH247566   3.367   4.211  11.511 -0.2918  0.2424 -0.1206
 8692TIP3    H147567   3.453   4.190  11.547 -0.0766  1.9907  0.5284
 8692TIP3    H247568   3.356   4.152  11.437  1.5727  0.1289 -0.3473
 8693TIP3   OH247569   4.325   2.198   3.017  0.0776 -0.1280 -0.3521
 8693TIP3    H147570   4.261   2.215   3.086 -1.7527 -1.2823 -1.6756
 8693TIP3    H247571   4.401   2.252   3.041 -1.4221  1.4398  1.1895
 8694TIP3   OH247572   6.101   3.821   3.782 -1.1600  0.2413 -0.4236
 8694TIP3    H147573   6.074   3.901   3.738 -0.8446  0.9299  0.6016
 8694TIP3    H247574   6.183   3.843   3.825  0.4258 -1.4379 -2.3810
 8695TIP3   OH247575   4.377   2.346   5.348 -0.5954 -0.2862  0.1220
 8695TIP3    H147576   4.312   2.390   5.402  0.4726  0.2415  1.0088
 8695TIP3    H247577   4.383   2.399   5.268  1.1975  1.7129  1.4573
 8696TIP3   OH247578   3.111   4.559  13.795 -0.0923 -0.3911  0.9865
 8696TIP3    H147579   3.047   4.492  13.772  1.1652 -1.7951  1.4337
 8696TIP3    H247580   3.115   4.616  13.718  0.8415 -2.4614 -0.5955
 8697TIP3   OH247581   3.625   1.364   3.084 -0.4430 -0.0859  0.2429
 8697TIP3    H147582   3.637   1.419   3.007 -0.1126 -1.3181 -0.6257
 8697TIP3    H247583   3.705   1.376   3.135 -0.0633 -0.2902 -0.2938
 8698TIP3   OH247584   2.654   6.782   4.135  0.8283 -0.3915  0.0746
 8698TIP3    H147585   2.575   6.735   4.109  0.5993 -1.3282  2.2180
 8698TIP3    H247586   2.719   6.713   4.150  2.4159  0.4059 -2.5304
 8699TIP3   OH247587   5.230   0.991   6.652  0.4860  0.1668  0.1057
 8699TIP3    H147588   5.165   1.062   6.652 -1.4209 -1.5027  0.2558
 8699TIP3    H247589   5.210   0.940   6.731  0.2116 -1.8958 -1.2356
 8700TIP3   OH247590   1.665   5.263  11.669 -0.3687  0.5807  0.1861
 8700TIP3    H147591   1.582   5.304  11.692  0.7780  1.5620  3.0573
 8700TIP3    H247592   1.708   5.327  11.611  0.1668  2.2034  2.2663
 8701TIP3   OH247593   0.367   2.762  13.709 -0.4517 -0.1987  0.0473
 8701TIP3    H147594   0.373   2.669  13.731  0.1647 -0.3587 -0.7402
 8701TIP3    H247595   0.340   2.763  13.617 -1.8499  0.4344  0.4430
 8702TIP3   OH247596   0.442   4.471   4.202 -0.8037  0.0409  0.2501
 8702TIP3    H147597   0.518   4.413   4.197 -0.2143  0.8903 -2.1670
 8702TIP3    H247598   0.477   4.553   4.239 -0.2596  0.6953 -1.5592
 8703TIP3   OH247599   5.596   4.255   0.911 -0.1648 -0.3766 -0.0841
 8703TIP3    H147600   5.503   4.234   0.898 -0.9331  2.8768 -0.5584
 8703TIP3    H247601   5.600   4.350   0.912  2.9586 -0.3697  1.8569
 8704TIP3   OH247602   4.645   2.867   0.734  0.2697  0.5068 -0.0693
 8704TIP3    H147603   4.598   2.795   0.690  0.9010  1.0738 -1.7809
 8704TIP3    H247604   4.736   2.857   0.704  0.1350  2.7871 -1.4969
 8705TIP3   OH247605   6.056   0.104   4.279  0.7634  0.0137 -0.5386
 8705TIP3    H147606   6.089   0.078   4.193  0.9614 -0.1627 -0.4116
 8705TIP3    H247607   6.040   0.198   4.271 -1.3222 -0.3750 -1.4382
 8706TIP3   OH247608   0.810   6.011   0.889  0.2584  0.5727  0.0776
 8706TIP3    H147609   0.825   5.951   0.815 -1.9217 -0.5635  0.4690
 8706TIP3    H247610   0.766   6.086   0.850 -1.4296 -0.2868  0.2449
 8707TIP3   OH247611   6.446   2.822   6.266 -0.5839 -0.0248 -0.6633
 8707TIP3    H147612   6.534   2.834   6.303 -1.3222  1.4777  0.7326
 8707TIP3    H247613   6.440   2.728   6.248  0.4644 -0.5655  1.4796
 8708TIP3   OH247614   2.539   3.550   3.627  0.0351 -0.0501  0.5319
 8708TIP3    H147615   2.541   3.645   3.622 -0.0045  0.0200  1.6849
 8708TIP3    H247616   2.559   3.530   3.718 -0.7914 -1.1188  0.4972
 8709TIP3   OH247617   0.001   2.859  11.756 -0.2936  0.0260 -0.3453
 8709TIP3    H147618   0.054   2.902  11.689  0.1606  0.8062  0.4999
 8709TIP3    H247619  -0.083   2.906  11.752 -0.7607 -0.8314 -1.2849
 8710TIP3   OH247620   1.097   1.961   4.138  0.0044 -0.0237 -0.8016
 8710TIP3    H147621   1.171   2.021   4.135 -0.0431  0.1541  0.5914
 8710TIP3    H247622   1.082   1.947   4.232 -1.9154  0.1916 -1.0338
 8711TIP3   OH247623   0.861   3.350  10.341 -0.1112 -0.1592 -0.8112
 8711TIP3    H147624   0.893   3.439  10.348 -1.4379  0.3265 -0.5274
 8711TIP3    H247625   0.861   3.317  10.431 -0.6423 -0.0563 -0.7695
 8712TIP3   OH247626   5.831   3.466   6.490 -0.3012 -0.3455  0.0323
 8712TIP3    H147627   5.829   3.404   6.417  1.2841  0.4970 -0.7806
 8712TIP3    H247628   5.920   3.460   6.525 -0.5275  0.4911  0.7899
 8713TIP3   OH247629   6.588   4.122  15.720 -0.5486 -0.2429  0.1328
 8713TIP3    H147630   6.536   4.129  15.639  0.0937  1.5896 -0.1824
 8713TIP3    H247631   6.560   4.040  15.760 -1.3651 -0.8731 -1.6229
 8714TIP3   OH247632   0.118   3.380  14.992 -0.0252 -0.7339 -0.3603
 8714TIP3    H147633   0.028   3.350  14.983 -0.2983 -0.2828  0.7617
 8714TIP3    H247634   0.136   3.426  14.910 -0.8463 -0.7495 -0.5532
 8715TIP3   OH247635   6.566   6.711   1.210 -0.0902  0.5174 -0.1858
 8715TIP3    H147636   6.644   6.655   1.208 -0.0183  0.6214 -1.8097
 8715TIP3    H247637   6.588   6.785   1.154 -0.7963  1.3385  0.6013
 8716TIP3   OH247638   5.249   3.777  15.313  0.2509 -0.2322  0.3739
 8716TIP3    H147639   5.199   3.830  15.251 -0.0736 -1.5147 -0.5022
 8716TIP3    H247640   5.189   3.706  15.338  1.2717 -1.2083  0.1226
 8717TIP3   OH247641   2.522   2.450  11.026  0.3586 -0.1697 -0.7301
 8717TIP3    H147642   2.488   2.532  10.989  0.3896  0.3387  0.3139
 8717TIP3    H247643   2.492   2.382  10.966  0.2231  0.5900 -1.5546
 8718TIP3   OH247644   5.815   6.613  15.595  0.5004  0.0256  0.2308
 8718TIP3    H147645   5.747   6.547  15.607 -0.8188  1.2487 -0.1313
 8718TIP3    H247646   5.794   6.654  15.511  0.2688  1.9622  1.1690
 8719TIP3   OH247647   6.127   5.202  14.157 -0.6777 -0.1178 -0.3834
 8719TIP3    H147648   6.177   5.121  14.168  0.5493  0.5363 -0.8700
 8719TIP3    H247649   6.065   5.182  14.087 -1.7537 -1.2237  0.8420
 8720TIP3   OH247650   1.339   1.742  14.353 -0.2040 -0.1846  0.4475
 8720TIP3    H147651   1.324   1.816  14.294 -1.0498 -0.1797  0.6665
 8720TIP3    H247652   1.277   1.755  14.425  0.4094 -0.5156  1.0432
 8721TIP3   OH247653   2.820   6.525  13.296 -0.2735  0.1722 -0.3310
 8721TIP3    H147654   2.894   6.531  13.235 -0.8109 -0.6342 -1.0903
 8721TIP3    H247655   2.814   6.613  13.335  1.8016 -0.0485  0.6482
 8722TIP3   OH247656   5.198   4.784  15.743  0.0985 -0.1659 -0.2952
 8722TIP3    H147657   5.184   4.840  15.667  1.3723 -0.2690 -0.6261
 8722TIP3    H247658   5.175   4.696  15.712 -0.5676 -0.0283 -0.1915
 8723TIP3   OH247659   1.987   6.155   1.824  0.2870  0.0494 -0.0789
 8723TIP3    H147660   1.980   6.246   1.852 -2.3867 -0.3020  0.7122
 8723TIP3    H247661   1.920   6.109   1.875  0.6614 -2.1203 -1.3963
 8724TIP3   OH247662   5.897   0.748  16.184  0.1090 -0.0310 -0.1120
 8724TIP3    H147663   5.991   0.764  16.175 -0.0379  1.2886  0.4212
 8724TIP3    H247664   5.885   0.731  16.278 -0.2460  0.2843 -0.0982
 8725TIP3   OH247665   1.081   0.244   4.911 -0.1021  0.1986  0.4086
 8725TIP3    H147666   1.155   0.211   4.860 -1.1580 -0.4242 -0.7703
 8725TIP3    H247667   1.026   0.290   4.847 -0.5868  0.9220  1.3210
 8726TIP3   OH247668   0.115   5.089  14.479 -0.6199  0.2883  0.2194
 8726TIP3    H147669   0.124   5.121  14.568  0.4592 -1.3646  0.7595
 8726TIP3    H247670   0.020   5.088  14.463 -0.8699 -0.0708  1.6114
 8727TIP3   OH247671   2.495   5.189  11.153 -0.2880  0.0359  0.1883
 8727TIP3    H147672   2.540   5.246  11.215 -0.5596 -0.1857  0.5962
 8727TIP3    H247673   2.551   5.189  11.076  0.0410  0.3427  0.4210
 8728TIP3   OH247674   6.060   5.009  14.467 -0.4518 -0.9107  0.7256
 8728TIP3    H147675   5.994   5.050  14.412  1.8704  0.0871 -1.5459
 8728TIP3    H247676   6.081   5.075  14.533 -2.0728 -1.4777  1.8727
 8729TIP3   OH247677   2.070   4.146   1.984 -0.0413  0.0988  0.6682
 8729TIP3    H147678   2.061   4.192   1.901 -0.7923  0.0255  0.7037
 8729TIP3    H247679   2.164   4.149   2.003  0.1583 -0.0191 -0.2540
 8730TIP3   OH247680   4.944   2.128  14.806 -0.1517 -0.3112  0.0157
 8730TIP3    H147681   4.959   2.041  14.842 -0.6976 -0.6299 -0.5173
 8730TIP3    H247682   4.909   2.112  14.719 -0.6002  0.4437  0.0535
 8731TIP3   OH247683   2.465   1.206   0.370  0.2991  0.3712  0.3074
 8731TIP3    H147684   2.440   1.298   0.383 -1.8559 -0.0030 -0.6702
 8731TIP3    H247685   2.485   1.200   0.277  0.6897 -0.0912  0.4239
 8732TIP3   OH247686   3.115   2.561   3.652  0.4896 -0.5208  0.3724
 8732TIP3    H147687   3.134   2.541   3.744 -0.3677 -0.5182  0.5598
 8732TIP3    H247688   3.037   2.509   3.633 -0.8818  1.4296  0.4027
 8733TIP3   OH247689   3.027   0.170  12.806  0.3481 -0.4257  0.7455
 8733TIP3    H147690   3.007   0.231  12.877 -1.5712 -2.1702  1.8338
 8733TIP3    H247691   2.961   0.189  12.739  1.3253  0.3280 -0.0335
 8734TIP3   OH247692   1.587   5.050  16.378 -0.2249  0.3600 -0.1405
 8734TIP3    H147693   1.582   4.960  16.410  0.2384  0.5631  0.5211
 8734TIP3    H247694   1.539   5.049  16.295 -1.6912 -0.1189  0.6928
 8735TIP3   OH247695   1.234   4.456  13.267  0.5874  0.7172  0.2017
 8735TIP3    H147696   1.210   4.403  13.191 -1.4734 -0.8651  1.8542
 8735TIP3    H247697   1.298   4.519  13.233  0.4649 -0.5404 -2.6024
 8736TIP3   OH247698   5.761   4.726   1.283  0.6010 -0.3509 -0.7388
 8736TIP3    H147699   5.728   4.747   1.196 -1.3319  0.2955  0.0943
 8736TIP3    H247700   5.744   4.633   1.293 -0.5048 -0.1442 -0.5477
 8737TIP3   OH247701   1.095   1.613  11.510  0.3476  0.7562 -0.0964
 8737TIP3    H147702   1.035   1.589  11.581  1.6117 -0.7417  0.5195
 8737TIP3    H247703   1.055   1.690  11.470 -1.4431  0.4238  0.9439
 8738TIP3   OH247704   1.169   4.449  14.112  0.0160 -0.1981  0.7982
 8738TIP3    H147705   1.133   4.538  14.108  0.5196  0.0490 -4.5309
 8738TIP3    H247706   1.245   4.451  14.055  0.4236 -3.9736  0.9432
 8739TIP3   OH247707   5.794   3.235   0.988  0.3490  0.4322  0.4361
 8739TIP3    H147708   5.710   3.238   1.034 -1.3176  1.7773 -2.4438
 8739TIP3    H247709   5.821   3.326   0.981  0.2066  0.3671 -1.7000
 8740TIP3   OH247710   3.602   2.666   1.439  0.3648 -0.0603  0.3431
 8740TIP3    H147711   3.617   2.589   1.384  1.9845 -0.2367  0.9896
 8740TIP3    H247712   3.555   2.631   1.515 -0.0482 -0.1709  0.0433
 8741TIP3   OH247713   5.449   5.763   0.667  0.6952 -1.1048  0.0134
 8741TIP3    H147714   5.405   5.716   0.597 -0.8885 -0.2005  0.3634
 8741TIP3    H247715   5.531   5.794   0.627 -0.4627 -0.0366 -1.6690
 8742TIP3   OH247716   3.769   3.533   4.317 -0.1170 -0.4140 -0.3424
 8742TIP3    H147717   3.709   3.549   4.243 -0.3050 -2.5221 -0.7209
 8742TIP3    H247718   3.856   3.534   4.277 -0.1238 -0.3495 -0.3567
 8743TIP3   OH247719   0.101   0.674  16.851  0.2197  0.0100 -0.0434
 8743TIP3    H147720   0.158   0.730  16.799  0.9802 -1.2386 -0.6046
 8743TIP3    H247721   0.105   0.712  16.939  1.3713  0.3505 -0.2250
 8744TIP3   OH247722   4.214   1.928   4.386 -0.3640  0.3374 -0.4536
 8744TIP3    H147723   4.127   1.887   4.384 -0.0490 -0.3999  0.4596
 8744TIP3    H247724   4.270   1.864   4.429  0.4270  1.2188 -0.1432
 8745TIP3   OH247725   6.236   3.260   3.536 -0.1430  0.4819  0.1530
 8745TIP3    H147726   6.328   3.280   3.552  0.0385 -1.0489  1.3726
 8745TIP3    H247727   6.224   3.274   3.442  1.5485 -0.0293 -0.1834
 8746TIP3   OH247728   3.005   1.393  11.227  0.0948 -0.2672 -1.3355
 8746TIP3    H147729   2.945   1.453  11.183 -1.0494 -0.5043 -0.1557
 8746TIP3    H247730   3.078   1.448  11.256 -0.4938  0.3852 -1.0836
 8747TIP3   OH247731   4.573   4.350   3.036 -0.6802  0.1501 -0.2435
 8747TIP3    H147732   4.608   4.404   2.965 -1.1220 -0.5928 -1.0615
 8747TIP3    H247733   4.485   4.326   3.006 -1.0724  0.2333  0.7985
 8748TIP3   OH247734   4.779   0.872   3.913 -0.2797  0.4660 -0.1966
 8748TIP3    H147735   4.699   0.879   3.862  0.1070  0.6231 -0.7993
 8748TIP3    H247736   4.751   0.882   4.004 -1.2735 -1.9891 -0.1635
 8749TIP3   OH247737   4.666   1.637   3.752 -1.0510 -0.2260 -0.2783
 8749TIP3    H147738   4.669   1.544   3.773 -0.9287 -0.1061  0.2390
 8749TIP3    H247739   4.601   1.644   3.682 -0.2215 -0.8475 -1.1313
 8750TIP3   OH247740   4.850   2.758   0.379  0.3775  0.6891 -0.1984
 8750TIP3    H147741   4.859   2.810   0.458 -0.8287  1.1160 -0.3151
 8750TIP3    H247742   4.823   2.821   0.312 -1.2733 -0.0841 -0.3034
 8751TIP3   OH247743   1.742   5.327  16.836 -0.3547  0.6939  0.0805
 8751TIP3    H147744   1.809   5.393  16.818 -0.5410  0.3643 -2.0912
 8751TIP3    H247745   1.781   5.271  16.903  2.3805 -0.5683 -2.3922
 8752TIP3   OH247746   2.622   3.691  14.646  0.4844  0.1144 -0.3192
 8752TIP3    H147747   2.640   3.606  14.605 -1.2740 -0.3809 -0.1702
 8752TIP3    H247748   2.585   3.744  14.576 -2.1571 -0.6016  0.4218
 8753TIP3   OH247749   0.297   0.374  16.625  0.1648  0.2097  0.4186
 8753TIP3    H147750   0.308   0.293  16.574  0.5267  0.4279  0.1459
 8753TIP3    H247751   0.332   0.443  16.569 -2.1103  0.8975 -0.2841
 8754TIP3   OH247752   1.145   1.983   2.867 -0.5029  0.0789  0.0808
 8754TIP3    H147753   1.233   1.953   2.888 -0.0519  1.5534  0.3996
 8754TIP3    H247754   1.087   1.913   2.899  0.5695 -1.5023 -1.2521
 8755TIP3   OH247755   3.973   3.082   0.133  0.1260 -0.3376 -0.4732
 8755TIP3    H147756   3.957   3.165   0.090  0.7489 -0.7429 -1.5344
 8755TIP3    H247757   3.887   3.053   0.163  0.2489  2.0948  2.6826
 8756TIP3   OH247758   4.261   3.050  11.832 -0.2769  0.7180  0.0468
 8756TIP3    H147759   4.236   2.958  11.840  0.6437  0.4298 -0.2394
 8756TIP3    H247760   4.180   3.096  11.812 -0.6156 -0.1491 -0.6321
 8757TIP3   OH247761   6.129   3.824   5.253 -0.1803  0.2434  0.0177
 8757TIP3    H147762   6.103   3.913   5.229  0.2721  0.1470 -0.8479
 8757TIP3    H247763   6.195   3.800   5.188 -2.0982 -1.6895 -1.3328
 8758TIP3   OH247764   5.124   4.244   3.861  0.2434 -0.0910  0.1640
 8758TIP3    H147765   5.130   4.269   3.953  0.8719 -3.0419  1.0185
 8758TIP3    H247766   5.212   4.214   3.839 -0.1244 -0.2627 -1.1325
 8759TIP3   OH247767   0.942   3.855   5.067  0.1472  0.0275  0.5312
 8759TIP3    H147768   0.920   3.921   5.132  0.4655 -1.4730  2.2474
 8759TIP3    H247769   0.866   3.797   5.065  0.7835 -0.8450  0.7912
 8760TIP3   OH247770   5.835   5.365   3.243  0.2358 -0.5049  0.1465
 8760TIP3    H147771   5.837   5.441   3.301 -1.7220 -0.3926  0.1275
 8760TIP3    H247772   5.926   5.335   3.240  1.1029  1.9279 -0.0039
 8761TIP3   OH247773   2.712   0.629  14.303  0.2106 -0.2093 -0.0880
 8761TIP3    H147774   2.780   0.610  14.238  0.0240  0.2469 -0.4190
 8761TIP3    H247775   2.723   0.723  14.322  0.3669 -0.3736  0.6533
 8762TIP3   OH247776   0.610   2.920   2.442 -0.4837  0.0643  0.3498
 8762TIP3    H147777   0.624   3.015   2.444  0.3272 -0.0636  1.2497
 8762TIP3    H247778   0.691   2.885   2.405 -0.5655 -0.3230  0.5374
 8763TIP3   OH247779   0.533   2.373   3.383  0.6240 -0.0581 -0.6764
 8763TIP3    H147780   0.569   2.453   3.420 -0.6827  0.2651 -0.0497
 8763TIP3    H247781   0.450   2.400   3.343  0.5794 -0.9457 -1.2145
 8764TIP3   OH247782   3.909   5.885  12.274  0.0853  0.0564 -0.1623
 8764TIP3    H147783   3.985   5.888  12.216  0.0227 -0.7123 -0.2906
 8764TIP3    H247784   3.857   5.961  12.249  0.0761 -0.2460 -1.0982
 8765TIP3   OH247785   3.353   4.536  12.412 -0.1690  0.0894  0.8196
 8765TIP3    H147786   3.335   4.629  12.423 -2.1762 -0.2101  0.3253
 8765TIP3    H247787   3.341   4.520  12.318  1.7020 -0.3970  0.6168
 8766TIP3   OH247788   6.481   1.408   1.270 -0.3000 -0.1324 -0.3110
 8766TIP3    H147789   6.569   1.419   1.307 -0.6581  2.6957 -0.0700
 8766TIP3    H247790   6.423   1.446   1.335 -1.5110 -0.0683 -1.3909
 8767TIP3   OH247791   0.048   5.131  11.948 -0.3358  0.3154  0.2356
 8767TIP3    H147792   0.139   5.134  11.977  0.3872  0.9872 -1.9359
 8767TIP3    H247793   0.053   5.125  11.853 -2.5756  0.5586  0.0471
 8768TIP3   OH247794   3.877   3.115   0.630  0.6897  0.3018  0.4569
 8768TIP3    H147795   3.784   3.136   0.638  0.0871 -1.7215 -0.6305
 8768TIP3    H247796   3.899   3.138   0.540  0.5927 -1.4024 -0.0355
 8769TIP3   OH247797   5.595   1.999   5.276  0.5967  0.7751  0.4761
 8769TIP3    H147798   5.622   1.925   5.331 -0.1059  0.7864  0.8488
 8769TIP3    H247799   5.521   2.038   5.323  0.9153  1.6794  0.2525
 8770TIP3   OH247800   1.683   1.120   2.126  0.8737  0.0866  0.4316
 8770TIP3    H147801   1.603   1.152   2.085  1.0524 -0.3028 -0.2373
 8770TIP3    H247802   1.726   1.199   2.160 -0.2747  0.1965  1.7074
 8771TIP3   OH247803   3.263   6.835  15.598 -0.0609  0.6638  0.5543
 8771TIP3    H147804   3.188   6.874  15.552  1.1924  1.6801 -0.7641
 8771TIP3    H247805   3.328   6.905  15.598  1.1193 -0.4103  1.0630
 8772TIP3   OH247806   5.938   5.304   5.556 -0.2076 -0.0862  0.1469
 8772TIP3    H147807   5.860   5.348   5.590  0.5326  0.6680  0.9103
 8772TIP3    H247808   5.967   5.358   5.483 -0.7226 -0.6921 -0.5232
 8773TIP3   OH247809   6.337   5.437  10.805 -0.4012  0.4337 -0.0391
 8773TIP3    H147810   6.365   5.473  10.721  1.2834  1.1014  0.7691
 8773TIP3    H247811   6.351   5.507  10.868  0.6353 -0.8014  1.1738
 8774TIP3   OH247812   3.062   2.161  14.984  0.1093  0.1962 -0.4362
 8774TIP3    H147813   3.072   2.084  15.041  2.9433  0.2086 -0.8044
 8774TIP3    H247814   2.985   2.141  14.931 -3.4370  0.6167  3.8966
 8775TIP3   OH247815   3.536   1.352  13.650  0.0762 -0.5255 -0.3614
 8775TIP3    H147816   3.476   1.426  13.657 -1.2784 -1.6805  1.1321
 8775TIP3    H247817   3.606   1.372  13.711 -0.9075 -0.9524  0.9707
 8776TIP3   OH247818   5.828   0.446   3.054  0.0168 -0.4246 -0.9118
 8776TIP3    H147819   5.889   0.449   3.128 -1.3086 -1.1901  0.2800
 8776TIP3    H247820   5.753   0.499   3.082 -0.5130 -0.7252 -1.7034
 8777TIP3   OH247821   2.122   0.067   5.519  0.2593  0.3662  0.3773
 8777TIP3    H147822   2.035   0.060   5.557  0.3104 -0.7323  0.3147
 8777TIP3    H247823   2.179   0.088   5.593 -0.2196  2.4448  0.2152
 8778TIP3   OH247824   0.552   0.999  15.314  0.0465 -0.0809  0.6833
 8778TIP3    H147825   0.647   0.995  15.316  0.0266 -2.2360  0.2257
 8778TIP3    H247826   0.528   0.961  15.230 -1.2215  1.6562  0.1947
 8779TIP3   OH247827   0.033   3.010   1.124 -0.4752  0.4815 -0.5145
 8779TIP3    H147828   0.108   3.070   1.127  0.4017 -0.6060  0.1338
 8779TIP3    H247829  -0.043   3.066   1.138  0.3220  1.4366  0.1517
 8780TIP3   OH247830   1.704   3.251  12.499 -0.5535  0.2506 -0.4567
 8780TIP3    H147831   1.714   3.158  12.479 -1.4161  0.0771 -0.1448
 8780TIP3    H247832   1.609   3.265  12.499 -0.4023  1.5776 -2.4718
 8781TIP3   OH247833   5.159   5.052  13.249  0.2005  0.0682  0.3014
 8781TIP3    H147834   5.206   5.075  13.169  1.6741 -0.3585  1.0069
 8781TIP3    H247835   5.196   5.109  13.317  0.8872 -1.3800  1.2011
 8782TIP3   OH247836   2.971   0.298   1.310 -0.0569 -0.6478 -0.2854
 8782TIP3    H147837   2.998   0.213   1.277  0.4518  0.5255 -3.2650
 8782TIP3    H247838   2.951   0.349   1.231  0.8654  2.3897  1.2662
 8783TIP3   OH247839   6.206   5.589   3.250 -0.0140  0.4351 -0.3781
 8783TIP3    H147840   6.131   5.536   3.224  0.5086 -0.6861  0.3387
 8783TIP3    H247841   6.249   5.538   3.319  2.4365  0.1780 -1.9756
 8784TIP3   OH247842   4.327   3.611   3.597 -0.2243 -0.1920 -0.0557
 8784TIP3    H147843   4.241   3.652   3.590  0.4684  1.2568 -0.3289
 8784TIP3    H247844   4.372   3.635   3.516  0.1426 -1.6923 -0.3297
 8785TIP3   OH247845   2.479   0.893   3.578 -0.0640 -0.2333  0.0136
 8785TIP3    H147846   2.568   0.863   3.563  0.1583 -1.1825  2.6489
 8785TIP3    H247847   2.484   0.948   3.656 -1.2411  3.0535 -2.0230
 8786TIP3   OH247848   4.521   4.206   5.189  0.5888 -0.1526 -0.1789
 8786TIP3    H147849   4.504   4.122   5.148  0.9712 -0.4769  0.3105
 8786TIP3    H247850   4.587   4.248   5.133 -0.5661  0.4041 -1.1653
 8787TIP3   OH247851   0.002   5.182   2.939  0.1554 -0.3379  0.0026
 8787TIP3    H147852   0.087   5.170   2.897  1.0327  0.1429  1.5744
 8787TIP3    H247853  -0.031   5.093   2.952  1.2244 -0.6302  0.9208
 8788TIP3   OH247854   4.673   5.837  12.744  0.2593  0.6889 -0.0908
 8788TIP3    H147855   4.604   5.852  12.679 -0.7881 -0.8684  0.6061
 8788TIP3    H247856   4.709   5.752  12.720  0.0237  0.2091  1.1942
 8789TIP3   OH247857   3.514   4.461  11.305  0.2154 -0.2165  0.2655
 8789TIP3    H147858   3.514   4.435  11.213 -3.0392 -2.1629  0.6527
 8789TIP3    H247859   3.520   4.379  11.353 -1.3972  0.4446  1.7099
 8790TIP3   OH247860   4.791   2.590  11.290  0.4412 -0.2427 -0.1016
 8790TIP3    H147861   4.809   2.510  11.341 -0.6787 -0.9867 -0.8364
 8790TIP3    H247862   4.716   2.630  11.335  0.7310  0.1747  0.0123
 8791TIP3   OH247863   0.410   4.246  11.021 -0.2936 -0.3144  0.0362
 8791TIP3    H147864   0.388   4.314  11.085  1.2198  1.3455 -1.1132
 8791TIP3    H247865   0.367   4.274  10.941  1.3086 -0.0099 -0.7627
 8792TIP3   OH247866   2.672   5.805  13.216  0.2849  0.0229 -1.0377
 8792TIP3    H147867   2.596   5.862  13.215  0.0407 -0.1639  1.2821
 8792TIP3    H247868   2.638   5.720  13.244  1.4298  0.1468  0.8614
 8793TIP3   OH247869   5.591   0.477   2.216  0.2122 -0.2420  0.0709
 8793TIP3    H147870   5.551   0.478   2.129  1.6444  0.6011 -0.6238
 8793TIP3    H247871   5.568   0.391   2.252 -0.4883 -0.5683 -1.1022
 8794TIP3   OH247872   0.518   0.994  16.069 -0.0010  0.1182 -0.3313
 8794TIP3    H147873   0.440   0.986  16.015 -0.2956  0.8121 -0.0138
 8794TIP3    H247874   0.504   0.931  16.140 -0.0031 -0.1709 -0.5840
 8795TIP3   OH247875   5.467   0.244  11.349  0.0340  0.5145 -0.3020
 8795TIP3    H147876   5.447   0.317  11.290  0.0344  0.5993 -0.1974
 8795TIP3    H247877   5.388   0.189  11.346 -0.8784  1.6443  1.3080
 8796TIP3   OH247878   2.487   2.318  13.660 -0.3665 -0.5391 -0.2032
 8796TIP3    H147879   2.461   2.314  13.752 -1.2899  2.9233 -0.1710
 8796TIP3    H247880   2.413   2.280  13.613 -0.9842 -0.1189  0.4041
 8797TIP3   OH247881   3.183   3.726  14.942 -0.2227 -0.1638  0.3451
 8797TIP3    H147882   3.128   3.792  14.901  0.7242  0.6533  0.3361
 8797TIP3    H247883   3.204   3.764  15.028  0.8829 -0.1333  0.0710
 8798TIP3   OH247884   6.057   2.782   2.347 -1.0198 -0.2217 -0.0567
 8798TIP3    H147885   6.088   2.763   2.259  1.0202  2.3680 -0.0366
 8798TIP3    H247886   5.965   2.807   2.336 -1.2509 -1.4779 -1.1807
 8799TIP3   OH247887   1.429   3.469  12.161  0.2134 -0.3077  0.2430
 8799TIP3    H147888   1.522   3.482  12.181  0.1735 -0.1567  0.3333
 8799TIP3    H247889   1.383   3.520  12.229  0.0790  1.7532 -1.3012
 8800TIP3   OH247890   4.643   2.458  15.818  1.0974 -0.3747  0.2775
 8800TIP3    H147891   4.686   2.470  15.903  0.8599  1.0024  0.2269
 8800TIP3    H247892   4.664   2.538  15.769 -2.0963  0.7450  0.5187
 8801TIP3   OH247893   1.733   1.893  11.571 -0.3362  0.0286  0.5948
 8801TIP3    H147894   1.794   1.905  11.498 -0.6973 -1.0088  0.1051
 8801TIP3    H247895   1.672   1.827  11.540 -1.4333  0.7050  1.2685
 8802TIP3   OH247896   1.862   6.473  13.020  0.6194 -0.1804 -1.1768
 8802TIP3    H147897   1.923   6.472  12.946  0.4347  0.7572 -1.3614
 8802TIP3    H247898   1.780   6.441  12.983  0.6147 -0.0215 -1.3089
 8803TIP3   OH247899   0.242   6.720  11.549 -0.2104  0.1672 -0.0213
 8803TIP3    H147900   0.249   6.815  11.540 -1.2270  0.0728 -2.6468
 8803TIP3    H247901   0.330   6.688  11.530 -0.4008  0.4993 -1.5620
 8804TIP3   OH247902   0.867   0.298  15.905 -0.0612  0.6405  0.2892
 8804TIP3    H147903   0.821   0.214  15.900 -1.0331  1.2385 -1.7369
 8804TIP3    H247904   0.958   0.274  15.922 -0.4128 -0.7971  0.2809
 8805TIP3   OH247905   6.353   3.688   5.084  0.5794  0.1462  0.7077
 8805TIP3    H147906   6.444   3.676   5.113  0.3841 -0.2110  1.1837
 8805TIP3    H247907   6.302   3.629   5.139  0.0191  0.5702  0.6528
 8806TIP3   OH247908   3.018   1.986  15.437 -0.3099 -0.5275  0.4889
 8806TIP3    H147909   3.078   1.920  15.470  0.3629 -1.1517 -1.8140
 8806TIP3    H247910   3.026   2.059  15.500  2.1345 -0.9608  0.7846
 8807TIP3   OH247911   4.633   0.394   1.689 -0.9133  0.4155 -0.0290
 8807TIP3    H147912   4.727   0.403   1.672 -0.7943  1.3488  1.0711
 8807TIP3    H247913   4.612   0.306   1.657  0.9974 -1.1249  2.5427
 8808TIP3   OH247914   2.024   0.144  15.805  0.1898 -0.2003  0.5607
 8808TIP3    H147915   2.090   0.074  15.808  1.5747  1.0611  0.3900
 8808TIP3    H247916   1.995   0.146  15.714 -0.9110 -1.4766  0.8577
 8809TIP3   OH247917   1.496   2.246   0.122  0.1332  0.1367 -0.1945
 8809TIP3    H147918   1.437   2.243   0.047  0.1410  1.0726 -0.2474
 8809TIP3    H247919   1.470   2.324   0.171  1.3636  0.6152 -0.2609
 8810TIP3   OH247920   4.993   0.235   1.104 -0.1779  0.2637  0.4847
 8810TIP3    H147921   4.919   0.233   1.044  0.8117 -0.0088 -0.7576
 8810TIP3    H247922   4.987   0.321   1.146  0.4025  1.4447 -1.7090
 8811TIP3   OH247923   0.378   4.594   6.515  0.3700 -0.2035  0.0361
 8811TIP3    H147924   0.448   4.561   6.458  0.7062 -0.3890  0.5548
 8811TIP3    H247925   0.419   4.608   6.599 -0.5956 -2.1019  0.8915
 8812TIP3   OH247926   2.426   3.599  11.227 -0.3700  0.2041  0.2762
 8812TIP3    H147927   2.333   3.613  11.212 -0.7980 -2.9912 -0.8341
 8812TIP3    H247928   2.433   3.582  11.321 -0.7446  1.1820  0.4951
 8813TIP3   OH247929   6.747   6.823  16.579 -0.1202 -0.5663 -0.1746
 8813TIP3    H147930   6.683   6.813  16.510 -1.1845  1.5649  0.4333
 8813TIP3    H247931   6.810   6.887  16.545  1.5031 -2.3031 -0.5928
 8814TIP3   OH247932   6.216   4.974  15.551  0.2065 -0.1343  0.0298
 8814TIP3    H147933   6.275   4.899  15.565 -1.1434 -1.0548  1.0500
 8814TIP3    H247934   6.155   4.943  15.484 -0.4845 -0.0503  0.6074
 8815TIP3   OH247935   2.949   1.270   4.937  0.3135  0.0651  0.3654
 8815TIP3    H147936   2.989   1.297   5.020 -2.5060  1.2842  1.4658
 8815TIP3    H247937   2.940   1.351   4.887 -1.5079  0.0272  0.5585
 8816TIP3   OH247938   6.694   1.544  13.700 -0.3904 -0.1909  0.1743
 8816TIP3    H147939   6.744   1.504  13.771 -1.6909 -0.0696  1.2159
 8816TIP3    H247940   6.631   1.477  13.674 -0.6759  0.1677 -0.0747
 8817TIP3   OH247941   1.819   5.842  13.804 -0.0682  0.4524  0.0568
 8817TIP3    H147942   1.759   5.889  13.745  0.7596  1.6741  0.1357
 8817TIP3    H247943   1.856   5.911  13.859  2.2660 -0.0676 -0.7433
 8818TIP3   OH247944   5.965   6.859  12.740  0.0533  0.3888  0.2233
 8818TIP3    H147945   5.944   6.929  12.678  0.7823  0.2676 -0.1793
 8818TIP3    H247946   5.923   6.886  12.822  0.3736  1.3381  0.0921
 8819TIP3   OH247947   0.864   2.212   4.588 -0.2456  0.2062 -0.1371
 8819TIP3    H147948   0.839   2.205   4.496  1.4648 -0.7170 -0.5783
 8819TIP3    H247949   0.935   2.148   4.599 -0.3927  0.3035  1.8206
 8820TIP3   OH247950   2.701   6.715   4.972 -0.8320  0.4899  0.2531
 8820TIP3    H147951   2.622   6.661   4.976  0.8817 -2.2281  0.0520
 8820TIP3    H247952   2.738   6.709   5.061  0.4417 -0.5015 -0.2982
 8821TIP3   OH247953   3.871   3.400  14.112  0.1452  0.0412 -0.3698
 8821TIP3    H147954   3.883   3.363  14.200  0.7507  3.2694  1.0603
 8821TIP3    H247955   3.789   3.449  14.118  0.7417  1.1774 -1.2385
 8822TIP3   OH247956   1.443   6.757  16.544  0.2684  0.1280 -0.1971
 8822TIP3    H147957   1.489   6.809  16.609 -1.4465  1.9336 -0.3351
 8822TIP3    H247958   1.433   6.671  16.585  1.3134  0.5237  0.9305
 8823TIP3   OH247959   1.581   4.019   4.801  0.2452 -0.3417  0.1331
 8823TIP3    H147960   1.533   4.096   4.830 -1.5791 -0.6099 -1.8791
 8823TIP3    H247961   1.543   3.947   4.852 -0.0975 -0.2760 -0.0243
 8824TIP3   OH247962   0.999   0.445  13.441  0.3457 -0.0263 -0.3779
 8824TIP3    H147963   0.994   0.408  13.529 -1.3580  0.9204 -0.0490
 8824TIP3    H247964   1.082   0.411  13.406  1.7346  0.6133  2.0376
 8825TIP3   OH247965   2.794   3.723   3.846  0.0246 -0.2702  0.8242
 8825TIP3    H147966   2.728   3.653   3.850  0.3996 -0.7329 -0.4300
 8825TIP3    H247967   2.746   3.803   3.863 -0.8567 -0.6147  0.0421
 8826TIP3   OH247968   4.318   2.381  13.233  0.1813  0.0112 -0.1334
 8826TIP3    H147969   4.310   2.290  13.206  0.6685  0.1660 -0.8568
 8826TIP3    H247970   4.366   2.378  13.316  0.3120 -0.3811 -0.2205
 8827TIP3   OH247971   4.326   4.770  11.891  0.2780  0.2733 -0.1167
 8827TIP3    H147972   4.321   4.745  11.799 -0.6949 -0.3394  0.0927
 8827TIP3    H247973   4.350   4.690  11.937 -1.0480  0.1321  0.3582
 8828TIP3   OH247974   0.115   0.403   4.509  0.0063 -0.2317 -0.3722
 8828TIP3    H147975   0.187   0.416   4.447 -1.3961 -1.7752 -2.4301
 8828TIP3    H247976   0.087   0.312   4.495 -1.9301  0.1260  0.8239
 8829TIP3   OH247977   1.625   0.831   3.652 -0.3132 -0.4561  0.0642
 8829TIP3    H147978   1.539   0.811   3.614  1.0971 -3.0390 -2.1890
 8829TIP3    H247979   1.664   0.745   3.668  2.0540  0.6348  0.5769
 8830TIP3   OH247980   0.686   1.932   6.308  0.2535 -0.2298  0.0087
 8830TIP3    H147981   0.773   1.921   6.269 -0.9356  1.1059 -3.3357
 8830TIP3    H247982   0.640   1.851   6.286 -0.3511  0.4323 -1.2219
 8831TIP3   OH247983   2.382   6.100   2.400 -0.0738 -0.6148 -0.2187
 8831TIP3    H147984   2.471   6.092   2.436  0.0804  0.1847 -0.4004
 8831TIP3    H247985   2.367   6.017   2.355  0.3997 -0.9420  0.2044
 8832TIP3   OH247986   2.413   3.346  14.764 -0.0325 -0.4510  0.4462
 8832TIP3    H147987   2.498   3.302  14.763  0.9270  1.2933  1.1283
 8832TIP3    H247988   2.372   3.320  14.681  1.2300 -1.1882  0.0174
 8833TIP3   OH247989   6.333   4.983  16.949  0.5882 -0.3965 -0.0713
 8833TIP3    H147990   6.263   4.965  17.012  0.4554  0.2658 -0.0187
 8833TIP3    H247991   6.314   4.925  16.876  0.4884 -0.8532  0.3144
 8834TIP3   OH247992   0.518   4.448  11.386 -0.3652  0.2806  0.2147
 8834TIP3    H147993   0.445   4.438  11.324 -1.0680 -0.5201  1.1407
 8834TIP3    H247994   0.483   4.416  11.469  1.1831 -0.5308  0.5879
 8835TIP3   OH247995   4.703   0.511  16.594  0.3893  0.1782  0.7244
 8835TIP3    H147996   4.672   0.580  16.536  0.7375 -0.5472 -0.3438
 8835TIP3    H247997   4.623   0.465  16.621  0.3701 -0.8518 -0.9617
 8836TIP3   OH247998   1.039   2.678   0.948 -0.0500 -0.4324  0.0129
 8836TIP3    H147999   1.079   2.764   0.941 -1.5931  0.4496  1.3198
 8836TIP3    H248000   0.951   2.695   0.982 -1.8323 -2.1950 -3.2643
 8837TIP3   OH248001   0.895   5.240  15.072 -0.3046  0.1556  0.2076
 8837TIP3    H148002   0.896   5.331  15.103 -1.3065  0.0756  0.5086
 8837TIP3    H248003   0.808   5.208  15.094  0.3463 -1.1878  0.9648
 8838TIP3   OH248004   3.944   2.047   3.084  0.1519 -0.0243  0.3174
 8838TIP3    H148005   3.994   2.097   3.149  2.0087 -0.2416 -0.8568
 8838TIP3    H248006   4.011   1.999   3.034 -1.1260  0.4190 -1.9832
 8839TIP3   OH248007   4.361   0.180  12.912  0.1052 -0.2496  0.1029
 8839TIP3    H148008   4.281   0.201  12.863  0.8796 -0.6219 -1.3859
 8839TIP3    H248009   4.347   0.092  12.945 -0.0818 -0.3338 -0.1977
 8840TIP3   OH248010   2.642   3.463  11.407 -0.5473  0.1956  0.0546
 8840TIP3    H148011   2.702   3.389  11.410  0.0186  0.6688  0.8975
 8840TIP3    H248012   2.562   3.431  11.450 -0.6598 -0.2259 -0.4641
 8841TIP3   OH248013   0.063   4.121   2.393  0.5639 -0.5442  0.1539
 8841TIP3    H148014   0.106   4.168   2.321  0.7469 -0.3597  0.3807
 8841TIP3    H248015   0.042   4.035   2.356  1.9692 -0.9829  0.2950
 8842TIP3   OH248016   3.532   5.569   4.306  0.1093  0.6285 -0.0723
 8842TIP3    H148017   3.443   5.581   4.338 -0.4217 -0.9132 -0.8938
 8842TIP3    H248018   3.568   5.497   4.358  1.0403  1.4921  0.5270
 8843TIP3   OH248019   1.520   4.109   1.191 -0.2363  0.8939 -0.3376
 8843TIP3    H148020   1.498   4.050   1.263 -2.8726 -0.3295 -1.9603
 8843TIP3    H248021   1.560   4.053   1.125  1.3013  1.8176 -0.2371
 8844TIP3   OH248022   4.228   5.288  11.923  0.4748 -0.2226  0.2438
 8844TIP3    H148023   4.187   5.226  11.864  0.0104  0.6131 -0.3270
 8844TIP3    H248024   4.305   5.320  11.875  0.5762 -0.1756  0.4351
 8845TIP3   OH248025   4.411   2.394   3.777  0.1065 -0.1207 -0.4642
 8845TIP3    H148026   4.419   2.489   3.769 -0.0159 -0.0046  0.5678
 8845TIP3    H248027   4.350   2.368   3.708 -1.2875  0.7971  0.3902
 8846TIP3   OH248028   2.476   2.637  13.456  0.3394 -0.0763  0.1054
 8846TIP3    H148029   2.452   2.615  13.366  1.4685  2.5235 -0.9518
 8846TIP3    H248030   2.546   2.575  13.478 -2.1548 -2.9479  0.5587
 8847TIP3   OH248031   6.402   6.410   3.031  0.8112  0.6117  0.2078
 8847TIP3    H148032   6.392   6.316   3.018  0.0216  0.3862  2.0705
 8847TIP3    H248033   6.433   6.443   2.947  1.6248 -1.3761 -0.3257
 8848TIP3   OH248034   0.222   4.282   5.470  0.2348 -0.7803  0.2523
 8848TIP3    H148035   0.296   4.324   5.428  1.4146 -1.3987  1.6197
 8848TIP3    H248036   0.253   4.260   5.558 -1.2455 -1.9372  0.5408
 8849TIP3   OH248037   5.370   3.558   4.340  0.1159 -0.0678  0.0554
 8849TIP3    H148038   5.382   3.472   4.299  1.5858  0.0364  0.2301
 8849TIP3    H248039   5.397   3.545   4.431 -0.4147  0.3995  0.2851
 8850TIP3   OH248040   1.493   4.744   1.696 -0.4304 -0.6792 -0.0038
 8850TIP3    H148041   1.497   4.654   1.665 -0.4117  0.2578 -3.1100
 8850TIP3    H248042   1.583   4.777   1.685 -0.6872  0.0375  0.0127
 8851TIP3   OH248043   1.730   6.321   5.624 -0.0580 -0.0052  0.3032
 8851TIP3    H148044   1.703   6.351   5.711  0.0177 -1.8020  0.9884
 8851TIP3    H248045   1.671   6.248   5.604  0.4486 -0.1334 -0.8086
 8852TIP3   OH248046   0.676   2.087   0.302  0.0049 -0.2050 -0.3529
 8852TIP3    H148047   0.662   2.005   0.349 -2.8676 -0.4487 -1.4544
 8852TIP3    H248048   0.765   2.113   0.326  1.0750 -3.6580 -0.0549
 8853TIP3   OH248049   4.069   1.595   3.866 -0.0289  0.0702 -0.2676
 8853TIP3    H148050   4.062   1.664   3.932 -0.8508  0.0366 -0.3056
 8853TIP3    H248051   4.114   1.523   3.910  0.5602  0.5214 -0.1366
 8854TIP3   OH248052   6.600   5.634  13.307  0.3277  0.2581  0.1712
 8854TIP3    H148053   6.548   5.588  13.372 -1.0647  1.5287  0.0247
 8854TIP3    H248054   6.598   5.578  13.230  0.7030 -0.5390  0.7317
 8855TIP3   OH248055   1.961   6.746  12.059  0.4137 -0.6919 -0.2677
 8855TIP3    H148056   1.907   6.824  12.067 -0.3630 -1.3280  1.2360
 8855TIP3    H248057   2.011   6.744  12.141  1.9471 -0.6949 -1.1676
 8856TIP3   OH248058   5.375   3.123   1.792  0.1852 -0.3060 -0.1173
 8856TIP3    H148059   5.379   3.060   1.864  3.5232 -1.3252 -1.0421
 8856TIP3    H248060   5.297   3.099   1.743 -1.3902 -0.4747  2.2829
 8857TIP3   OH248061   6.418   4.953   1.435  0.0365  0.1100 -0.3781
 8857TIP3    H148062   6.407   4.880   1.496 -0.3965  2.1214  2.1560
 8857TIP3    H248063   6.512   4.964   1.426  0.1019 -0.2697 -0.1430
 8858TIP3   OH248064   5.798   6.313  11.401 -0.0252 -0.5251 -0.4660
 8858TIP3    H148065   5.770   6.259  11.328  2.1742 -0.1732 -1.6511
 8858TIP3    H248066   5.819   6.398  11.363 -0.1663  0.1069  0.8010
 8859TIP3   OH248067   6.124   4.501   5.171  0.3394 -0.3217  0.3959
 8859TIP3    H148068   6.098   4.557   5.243  1.4954 -0.8165  1.2412
 8859TIP3    H248069   6.042   4.474   5.130 -0.2887  0.7291  0.9260
 8860TIP3   OH248070   3.987   6.163  14.939 -0.2833 -0.0713 -0.0516
 8860TIP3    H148071   3.920   6.098  14.956 -0.7029  0.6310  1.0485
 8860TIP3    H248072   4.064   6.132  14.987 -0.8825  0.8934  1.6222
 8861TIP3   OH248073   6.464   4.977  10.451 -0.0345  0.4690  0.4213
 8861TIP3    H148074   6.485   4.930  10.531  0.9191  0.7278  0.3297
 8861TIP3    H248075   6.484   5.069  10.470  1.1268  0.4136 -0.4018
 8862TIP3   OH248076   6.124   4.593  12.932  0.6666 -0.2695  0.2888
 8862TIP3    H148077   6.168   4.579  12.848  0.5166 -0.3150  0.2186
 8862TIP3    H248078   6.051   4.650  12.911  0.3132 -0.7121  0.2957
 8863TIP3   OH248079   3.610   1.789   3.811  0.6300 -0.0844  0.4086
 8863TIP3    H148080   3.645   1.851   3.874 -0.3912  2.5105 -1.3893
 8863TIP3    H248081   3.518   1.778   3.835  0.8752 -1.1887  0.8957
 8864TIP3   OH248082   3.336   6.216  12.709  0.2722 -0.0712 -0.2343
 8864TIP3    H148083   3.332   6.230  12.614  1.9428 -2.5089 -0.7569
 8864TIP3    H248084   3.252   6.178  12.732  0.4342 -0.9841 -1.0786
 8865TIP3   OH248085   4.860   6.467  13.198 -0.2704 -0.8335  0.3310
 8865TIP3    H148086   4.833   6.388  13.151 -1.6876  0.3789 -1.0112
 8865TIP3    H248087   4.822   6.457  13.285  0.4826 -2.0857  0.5521
 8866TIP3   OH248088   6.211   5.979   5.813 -0.4819 -0.5004  0.2330
 8866TIP3    H148089   6.141   6.030   5.773  0.4350  0.7270  0.1222
 8866TIP3    H248090   6.267   5.954   5.739 -0.0248 -0.2084  0.4774
 8867TIP3   OH248091   2.941   3.191  17.005  0.2358  0.1823 -1.2919
 8867TIP3    H148092   2.940   3.258  17.073  1.2813 -1.9024  0.9157
 8867TIP3    H248093   2.898   3.116  17.045  0.6416 -1.0516 -3.0475
 8868TIP3   OH248094   1.608   1.745   2.969 -0.0449  0.4878  0.7491
 8868TIP3    H148095   1.544   1.806   2.932 -0.9380 -1.4653 -1.1478
 8868TIP3    H248096   1.689   1.763   2.921 -0.9593 -1.4050 -1.6921
 8869TIP3   OH248097   6.773   3.006  13.907 -0.0383 -0.6853  0.7090
 8869TIP3    H148098   6.761   2.935  13.970  0.4532 -0.8336  0.6426
 8869TIP3    H248099   6.696   3.061  13.918 -1.7672 -2.5933 -1.0496
 8870TIP3   OH248100   6.717   4.705   3.280  0.4430  0.0213  0.2071
 8870TIP3    H148101   6.767   4.778   3.244  1.7578 -0.4692  1.0037
 8870TIP3    H248102   6.659   4.746   3.345  0.5291  0.4582  0.0164
 8871TIP3   OH248103   6.166   2.278  13.507  0.2483  0.1330  0.0101
 8871TIP3    H148104   6.094   2.239  13.457 -1.6304  0.5963  2.1899
 8871TIP3    H248105   6.143   2.371  13.512  1.1643  0.3388  0.5000
 8872TIP3   OH248106   2.051   3.815  16.848 -0.1614 -0.2378 -0.7895
 8872TIP3    H148107   2.089   3.903  16.845 -0.6864  0.0885  0.9312
 8872TIP3    H248108   1.974   3.820  16.792 -0.4997  0.5680 -0.2630
 8873TIP3   OH248109   5.027   5.692   1.635  0.0590 -0.2587  0.1778
 8873TIP3    H148110   5.081   5.614   1.647  0.3499  0.1002  1.4134
 8873TIP3    H248111   5.057   5.752   1.704  0.5957  1.3835 -1.4208
 8874TIP3   OH248112   2.919   4.020   2.224 -0.4834  0.1365 -0.0606
 8874TIP3    H148113   2.948   4.111   2.216 -0.2199 -0.0096 -0.8428
 8874TIP3    H248114   2.830   4.020   2.190 -1.0395  0.3680  1.3039
 8875TIP3   OH248115   0.733   1.493   2.865 -0.6499  0.1726  0.0178
 8875TIP3    H148116   0.693   1.412   2.897 -1.6072  0.5574 -0.1639
 8875TIP3    H248117   0.757   1.541   2.944 -1.5143  0.3972  0.1523
 8876TIP3   OH248118   2.137   2.598   4.841  0.0840 -0.4362 -0.0811
 8876TIP3    H148119   2.067   2.622   4.903 -0.3032  3.2744 -1.6646
 8876TIP3    H248120   2.218   2.626   4.885  0.1908 -1.1915  0.2082
 8877TIP3   OH248121   6.442   1.642  12.939 -0.3266  0.1906  0.2145
 8877TIP3    H148122   6.451   1.705  13.010  2.4833  0.5360 -0.3288
 8877TIP3    H248123   6.401   1.565  12.980  1.3272  0.3166  2.2901
 8878TIP3   OH248124   3.980   5.533  12.846 -0.0609 -0.1434  0.1721
 8878TIP3    H148125   3.950   5.623  12.860 -1.3595 -0.8163  1.9309
 8878TIP3    H248126   4.047   5.519  12.913  1.4230  0.0289 -1.2045
 8879TIP3   OH248127   5.797   0.838   5.138  0.1650 -0.1123 -0.4494
 8879TIP3    H148128   5.866   0.802   5.082  1.3391 -1.2872  1.6251
 8879TIP3    H248129   5.742   0.763   5.160  0.4316  0.0641  0.9040
 8880TIP3   OH248130   3.413   2.806   2.225 -0.1757  0.2417  0.2305
 8880TIP3    H148131   3.498   2.791   2.268  2.0251  2.7185 -2.7528
 8880TIP3    H248132   3.401   2.901   2.228 -0.6739  0.3779 -2.9998
 8881TIP3   OH248133   2.943   3.202  15.722  0.2833 -0.0189  0.2579
 8881TIP3    H148134   2.938   3.124  15.667  1.2821 -0.3560  0.6251
 8881TIP3    H248135   3.000   3.262  15.674 -1.2331  0.8900 -0.4774
 8882TIP3   OH248136   4.976   1.876   6.166 -0.2340 -1.1455 -0.0659
 8882TIP3    H148137   4.988   1.962   6.125  0.8465 -1.5658 -0.6857
 8882TIP3    H248138   4.881   1.866   6.174 -0.3728  0.0299 -0.1430
 8883TIP3   OH248139   4.114   2.179  15.435  0.6813  0.0980  0.4215
 8883TIP3    H148140   4.119   2.164  15.341  0.9913 -2.6409  0.7836
 8883TIP3    H248141   4.027   2.216  15.449 -0.6002 -2.2288 -0.7265
 8884TIP3   OH248142   6.505   4.096  14.543 -0.0123 -0.6311 -0.4480
 8884TIP3    H148143   6.531   4.042  14.618 -1.5815  0.7240  1.1800
 8884TIP3    H248144   6.425   4.054  14.510  0.1890 -0.7301 -0.8138
 8885TIP3   OH248145   1.558   1.061  11.089 -0.4393 -0.1409 -0.5483
 8885TIP3    H148146   1.642   1.081  11.047  0.3911  0.4207  1.2691
 8885TIP3    H248147   1.572   0.977  11.133 -1.2494 -0.6588 -1.2469
 8886TIP3   OH248148   1.629   5.383   2.880 -0.4333  0.2945 -0.4529
 8886TIP3    H148149   1.676   5.453   2.834 -0.3111  0.2915 -0.3320
 8886TIP3    H248150   1.643   5.402   2.972 -0.8988  0.4514 -0.4141
 8887TIP3   OH248151   1.571   4.280   2.295 -0.0145  0.4797 -0.0985
 8887TIP3    H148152   1.657   4.250   2.266  0.5798 -0.6914  2.6319
 8887TIP3    H248153   1.542   4.340   2.226  2.1171 -0.5700 -2.0214
 8888TIP3   OH248154   2.489   4.948  10.781  0.0532  0.6668 -0.1928
 8888TIP3    H148155   2.413   4.999  10.753 -1.5049 -0.3721  1.8785
 8888TIP3    H248156   2.515   4.988  10.864  1.6004  0.7795 -0.6982
 8889TIP3   OH248157   4.758   3.654   3.556 -0.1929  0.5856  0.0724
 8889TIP3    H148158   4.683   3.696   3.514 -0.9411 -0.4226  0.3479
 8889TIP3    H248159   4.828   3.660   3.492 -1.8270 -2.6800 -2.3311
 8890TIP3   OH248160   5.964   1.653  15.774  0.5111 -0.0855 -0.7965
 8890TIP3    H148161   6.011   1.680  15.853 -0.7563  2.5010 -0.8553
 8890TIP3    H248162   5.997   1.564  15.756  2.8029  0.3025  1.0726
 8891TIP3   OH248163   5.293   1.429  15.374  0.3549  0.5347  0.0347
 8891TIP3    H148164   5.315   1.355  15.318  0.5919  0.3822  0.3280
 8891TIP3    H248165   5.197   1.430  15.375  0.3292 -0.5107  0.9880
 8892TIP3   OH248166   3.593   0.893   4.766  0.3362 -0.1554 -0.2830
 8892TIP3    H148167   3.499   0.909   4.780  0.1441 -1.2129 -0.3088
 8892TIP3    H248168   3.596   0.822   4.703  1.1490 -1.0478  0.7296
 8893TIP3   OH248169   6.434   1.834  13.190 -0.6886 -0.4095 -0.3246
 8893TIP3    H148170   6.423   1.920  13.150  1.1094  0.4459  0.8809
 8893TIP3    H248171   6.529   1.821  13.193 -0.8704 -3.4401 -2.4282
 8894TIP3   OH248172   5.703   3.713   2.239 -0.4271 -0.0357  0.3129
 8894TIP3    H148173   5.688   3.669   2.323 -1.2095 -1.8790 -0.7327
 8894TIP3    H248174   5.619   3.753   2.218 -0.0668  0.9264  0.6635
 8895TIP3   OH248175   3.525   6.189   5.957 -0.3097 -0.5090  0.0926
 8895TIP3    H148176   3.480   6.247   6.019 -0.0267  2.9109 -2.5839
 8895TIP3    H248177   3.457   6.164   5.895  0.2694 -0.2119 -0.6691
 8896TIP3   OH248178   4.286   4.010  13.255 -0.2820  0.0179 -0.1350
 8896TIP3    H148179   4.223   4.060  13.202  0.8022  0.7665 -0.7542
 8896TIP3    H248180   4.240   3.928  13.275 -0.9315 -0.0637 -1.7984
 8897TIP3   OH248181   2.420   6.640   4.655  0.4205 -0.1925 -0.6354
 8897TIP3    H148182   2.437   6.627   4.561  0.4678 -0.1137 -0.6372
 8897TIP3    H248183   2.329   6.611   4.666  1.2752 -3.0004 -0.1533
 8898TIP3   OH248184   0.045   1.969   2.100  0.3576 -0.2314 -0.2009
 8898TIP3    H148185   0.100   1.896   2.071  1.0573  0.8284 -1.6962
 8898TIP3    H248186  -0.034   1.961   2.046  0.8275  0.6062 -1.0549
 8899TIP3   OH248187   1.788   2.654  11.216  0.2552 -0.1521  0.5189
 8899TIP3    H148188   1.798   2.670  11.122  1.0896 -0.3976  0.5627
 8899TIP3    H248189   1.715   2.711  11.242 -0.9452 -1.1359 -0.5471
 8900TIP3   OH248190   2.386   3.097  12.719 -0.2229  0.1243  0.7459
 8900TIP3    H148191   2.290   3.099  12.717 -0.2251 -0.3413  0.4564
 8900TIP3    H248192   2.410   3.024  12.662  0.3544  1.0921 -0.2756
 8901TIP3   OH248193   0.897   3.006  16.453 -0.3925 -0.3622 -0.2322
 8901TIP3    H148194   0.980   3.044  16.425 -0.4716 -0.5201 -0.6930
 8901TIP3    H248195   0.867   3.064  16.523  0.7368 -1.0575  0.8629
 8902TIP3   OH248196   6.270   1.718   0.083 -0.4246  0.0119  0.2616
 8902TIP3    H148197   6.246   1.625   0.091 -1.1019 -0.0417 -1.8523
 8902TIP3    H248198   6.360   1.716   0.050  0.0375  0.1471  1.4700
 8903TIP3   OH248199   6.472   4.336   4.931  0.1246 -0.0952 -0.5160
 8903TIP3    H148200   6.391   4.385   4.917 -0.3134 -0.5137  0.4823
 8903TIP3    H248201   6.497   4.355   5.021  1.6522  0.7514 -1.0737
 8904TIP3   OH248202   4.761   2.332   5.516  0.3125 -0.0272  0.5455
 8904TIP3    H148203   4.673   2.311   5.548  0.2871 -1.8378 -0.5699
 8904TIP3    H248204   4.773   2.275   5.440  1.7285  1.5574 -0.4830
 8905TIP3   OH248205   4.653   4.537  15.869  0.3728  0.0930 -0.0442
 8905TIP3    H148206   4.720   4.605  15.869  1.7328 -1.1968  0.4211
 8905TIP3    H248207   4.687   4.470  15.928 -1.0061 -0.9145 -0.3489
 8906TIP3   OH248208   0.539   4.797  14.505 -0.7292 -0.0325  0.4675
 8906TIP3    H148209   0.588   4.880  14.506 -1.5928  0.5053 -0.4102
 8906TIP3    H248210   0.535   4.772  14.413  0.2535 -1.5212  0.7916
 8907TIP3   OH248211   3.243   6.782   4.160 -0.1360  1.2926  0.0311
 8907TIP3    H148212   3.215   6.765   4.070  0.4479  2.4172 -0.3766
 8907TIP3    H248213   3.313   6.719   4.176 -0.1231  1.2060 -0.3590
 8908TIP3   OH248214   1.087   6.559  14.858 -0.4666 -0.0192  0.0233
 8908TIP3    H148215   1.114   6.536  14.947  0.7291  0.6278 -0.1490
 8908TIP3    H248216   1.097   6.478  14.808  0.5419  0.0440  0.1128
 8909TIP3   OH248217   4.098   5.108  15.449  0.5998 -0.5336  0.5003
 8909TIP3    H148218   4.188   5.134  15.466  1.1590 -1.4416 -0.9341
 8909TIP3    H248219   4.095   5.088  15.356 -1.0721 -0.6071  0.5279
 8910TIP3   OH248220   0.042   6.216   1.261  0.0631 -0.2596 -0.1581
 8910TIP3    H148221  -0.010   6.171   1.327 -1.5285  1.3306 -0.2278
 8910TIP3    H248222   0.107   6.152   1.232  0.4717 -1.1747  2.5450
 8911TIP3   OH248223   5.850   2.698  12.550 -0.0958 -0.7024 -0.5547
 8911TIP3    H148224   5.831   2.788  12.524  0.4544 -0.8522 -1.5361
 8911TIP3    H248225   5.796   2.644  12.493 -0.3801 -0.9985 -0.0098
 8912TIP3   OH248226   6.099   2.214  16.128  0.2859 -0.3624  0.2435
 8912TIP3    H148227   6.038   2.211  16.054 -0.1865 -1.0541  0.6440
 8912TIP3    H248228   6.159   2.141  16.112  0.1099 -0.5880  0.5923
 8913TIP3   OH248229   2.110   2.864  16.382 -0.1101 -0.3646 -0.0936
 8913TIP3    H148230   2.106   2.953  16.347 -0.1583 -0.2225  0.2663
 8913TIP3    H248231   2.194   2.830  16.353  0.2234  0.0527  0.3552
 8914TIP3   OH248232   2.689   3.692  11.225 -0.4049 -0.2499  0.0941
 8914TIP3    H148233   2.631   3.760  11.190 -0.1899 -0.7171 -1.2126
 8914TIP3    H248234   2.639   3.611  11.216 -0.0072 -0.4947  0.0902
 8915TIP3   OH248235   1.166   0.072   4.616 -0.1604  0.2009 -0.0757
 8915TIP3    H148236   1.205   0.044   4.533 -1.4205  2.3110 -1.4734
 8915TIP3    H248237   1.229   0.134   4.652 -0.6306  0.9865 -0.5952
 8916TIP3   OH248238   1.898   4.364  13.162 -0.1019 -0.2605 -0.2378
 8916TIP3    H148239   1.921   4.315  13.241 -0.9354 -0.0639  0.1358
 8916TIP3    H248240   1.860   4.298  13.103  2.0475 -0.7503 -1.1789
 8917TIP3   OH248241   4.671   5.776  14.747 -0.0157  0.2286  0.7357
 8917TIP3    H148242   4.696   5.705  14.688  0.9588  0.1180  1.2547
 8917TIP3    H248243   4.582   5.799  14.721  0.9651  1.3653 -1.9250
 8918TIP3   OH248244   2.399   3.394  13.142 -0.9909  0.2079  0.6097
 8918TIP3    H148245   2.336   3.461  13.116 -1.6754 -1.2280 -1.8605
 8918TIP3    H248246   2.476   3.410  13.088 -0.7267 -0.3050  0.8216
 8919TIP3   OH248247   3.961   0.475  15.390  0.5357 -0.0319  0.2476
 8919TIP3    H148248   3.877   0.430  15.398  0.5959  0.0776  1.8652
 8919TIP3    H248249   3.985   0.498  15.480  1.3977  1.6048 -0.3539
 8920TIP3   OH248250   1.033   1.544   5.915  0.6033  0.0648 -0.3570
 8920TIP3    H148251   1.040   1.539   6.010 -0.7005  1.9253 -0.1048
 8920TIP3    H248252   0.971   1.474   5.892 -0.4813  0.7635  0.3875
 8921TIP3   OH248253   6.696   0.607  16.544 -0.8423 -0.2779  0.3896
 8921TIP3    H148254   6.753   0.579  16.472 -0.4081 -0.3985  0.7756
 8921TIP3    H248255   6.632   0.665  16.503 -0.2349  0.1286  0.0095
 8922TIP3   OH248256   5.628   3.411   1.779  0.4559 -0.4071 -0.3038
 8922TIP3    H148257   5.535   3.407   1.800  0.3570  0.3085 -0.5743
 8922TIP3    H248258   5.671   3.431   1.862  0.3771 -0.8238 -0.1627
 8923TIP3   OH248259   6.815   6.344  16.735  0.1478 -0.3292  0.2861
 8923TIP3    H148260   6.765   6.425  16.732  0.2978  0.0231  3.5493
 8923TIP3    H248261   6.906   6.372  16.722 -0.0875 -0.5859 -2.5526
 8924TIP3   OH248262   3.215   1.749   3.168 -0.2332  0.0688 -0.4482
 8924TIP3    H148263   3.232   1.837   3.136 -1.7007  0.7402  0.5130
 8924TIP3    H248264   3.221   1.756   3.263 -2.4529 -0.3312 -0.2216
 8925TIP3   OH248265   2.274   3.726  15.265  0.0484 -0.3244  0.1771
 8925TIP3    H148266   2.230   3.644  15.288  0.3748 -0.0690  1.8095
 8925TIP3    H248267   2.258   3.784  15.340 -0.6727  1.3217 -1.1925
 8926TIP3   OH248268   5.264   5.829  16.387  0.5364  0.1522  0.3480
 8926TIP3    H148269   5.207   5.768  16.340  1.0783 -0.1122  0.0162
 8926TIP3    H248270   5.211   5.907  16.400 -0.6498 -0.8486  1.9781
 8927TIP3   OH248271   5.637   3.549   3.217 -0.4243 -0.0183  0.0820
 8927TIP3    H148272   5.653   3.487   3.287  0.8146 -0.1333 -0.2725
 8927TIP3    H248273   5.714   3.541   3.160 -1.2328  0.3315 -1.0883
 8928TIP3   OH248274   2.532   4.787  10.543 -0.5629 -0.7135  0.0005
 8928TIP3    H148275   2.445   4.770  10.507 -0.8459  1.0676 -0.2434
 8928TIP3    H248276   2.515   4.823  10.630 -0.0386 -0.8824  0.1782
 8929TIP3   OH248277   0.207   4.079  16.845  0.2819  0.3055 -0.1671
 8929TIP3    H148278   0.212   4.167  16.810  1.2560  0.5447  0.5438
 8929TIP3    H248279   0.281   4.072  16.904 -0.0777 -0.8211  0.1780
 8930TIP3   OH248280   3.290   6.023   5.328  0.0878 -0.6263 -0.3798
 8930TIP3    H148281   3.369   6.070   5.302  0.3588 -0.7887  0.1453
 8930TIP3    H248282   3.258   6.070   5.405 -1.2521  0.4456 -1.5212
 8931TIP3   OH248283   2.159   5.927  13.446 -0.1178  0.0989 -0.5029
 8931TIP3    H148284   2.107   5.989  13.498 -0.2942 -1.7569  1.7237
 8931TIP3    H248285   2.103   5.850  13.438  0.7825 -0.4565 -1.6196
 8932TIP3   OH248286   3.389   5.743  13.659  0.0813  0.6441 -0.1719
 8932TIP3    H148287   3.456   5.698  13.709  0.2357 -0.3038 -1.1977
 8932TIP3    H248288   3.433   5.771  13.578 -0.4441  1.1213 -0.3026
 8933TIP3   OH248289   4.682   0.032   2.869  0.2235 -0.5472  0.2423
 8933TIP3    H148290   4.735   0.094   2.819  1.1550  0.4557  2.3576
 8933TIP3    H248291   4.594   0.068   2.866  0.8585  1.3507  1.9788
 8934TIP3   OH248292   0.495   1.015   3.200  0.4352 -0.3405  0.1059
 8934TIP3    H148293   0.540   1.086   3.244  1.7022 -0.7393 -0.4986
 8934TIP3    H248294   0.532   0.935   3.238 -0.3848 -0.6956  0.2023
 8935TIP3   OH248295   4.916   1.522  16.365  0.4696 -0.0977 -0.2320
 8935TIP3    H148296   5.010   1.511  16.350  0.5243  0.3965 -0.2542
 8935TIP3    H248297   4.903   1.497  16.456  0.5667 -0.5011 -0.3295
 8936TIP3   OH248298   4.211   1.491   4.305  0.0004 -0.4166 -0.2606
 8936TIP3    H148299   4.156   1.548   4.358  0.5887 -0.3397  0.2746
 8936TIP3    H248300   4.158   1.412   4.292 -0.5648 -0.0124 -0.4714
 8937TIP3   OH248301   3.338   1.281  11.616 -0.4862 -0.2463 -0.3715
 8937TIP3    H148302   3.323   1.216  11.547 -0.4427  0.3276 -0.9252
 8937TIP3    H248303   3.328   1.232  11.697  0.4596 -1.1555 -0.7876
 8938TIP3   OH248304   6.132   4.122  13.657  0.2773  0.2207 -0.3602
 8938TIP3    H148305   6.201   4.173  13.613 -0.1743 -0.5599 -2.0508
 8938TIP3    H248306   6.147   4.032  13.627  1.0254 -0.7228  2.5117
 8939TIP3   OH248307   4.923   2.627  12.108  0.3844 -0.2761  0.6218
 8939TIP3    H148308   4.956   2.716  12.117 -0.6002 -0.0929  3.7494
 8939TIP3    H248309   4.939   2.604  12.016  0.9311  2.9722 -0.2157
 8940TIP3   OH248310   3.311   0.746  13.539 -0.3852 -0.2712  0.0402
 8940TIP3    H148311   3.287   0.777  13.452  0.8189  1.1850  0.1870
 8940TIP3    H248312   3.233   0.762  13.592 -1.7501 -2.7244 -1.0573
 8941TIP3   OH248313   1.900   6.840   2.363 -0.1740 -0.0586 -0.0296
 8941TIP3    H148314   1.918   6.861   2.454  0.1330 -0.9844  0.1330
 8941TIP3    H248315   1.891   6.744   2.361 -1.8508  0.0750 -0.6718
 8942TIP3   OH248316   2.524   3.353  15.137 -0.5025  0.0923 -0.1481
 8942TIP3    H148317   2.582   3.416  15.179 -1.7329  0.9296  0.3432
 8942TIP3    H248318   2.462   3.407  15.087 -0.1664 -0.8199 -1.6103
 8943TIP3   OH248319   3.204   0.377  15.442  0.0436 -0.5745 -0.2329
 8943TIP3    H148320   3.205   0.460  15.394  0.7440 -1.0456 -1.0861
 8943TIP3    H248321   3.296   0.363  15.465 -0.3581 -0.0551  1.8415
 8944TIP3   OH248322   3.172   0.351  13.929  0.3477  0.3782 -0.0965
 8944TIP3    H148323   3.237   0.415  13.959  0.6222 -0.0747  0.2755
 8944TIP3    H248324   3.109   0.403  13.879  1.3838  0.7292 -1.0858
 8945TIP3   OH248325   2.237   2.278   0.067 -0.2813  0.5010 -0.3281
 8945TIP3    H148326   2.243   2.363   0.023 -1.7258  1.9042  1.9185
 8945TIP3    H248327   2.294   2.288   0.144 -0.0532 -0.7755 -0.3234
 8946TIP3   OH248328   2.052   4.992  16.254  0.1528  0.4411  0.2937
 8946TIP3    H148329   1.996   5.047  16.199 -0.2044 -0.4171 -0.2197
 8946TIP3    H248330   1.992   4.953  16.318 -0.4018 -2.4662 -1.7823
 8947TIP3   OH248331   3.814   4.818  15.308  0.2758  0.4063 -0.8069
 8947TIP3    H148332   3.725   4.815  15.343 -0.0023 -0.4384 -1.5832
 8947TIP3    H248333   3.819   4.746  15.246  1.1718  1.0947 -1.5703
 8948TIP3   OH248334   3.121   5.774   0.512  0.0358  0.1592  0.4032
 8948TIP3    H148335   3.084   5.761   0.425 -2.7691 -0.2786  1.5590
 8948TIP3    H248336   3.142   5.868   0.515 -0.0513  0.2256 -0.6306
 8949TIP3   OH248337   1.240   2.703  14.621 -0.1199 -0.2608 -0.0159
 8949TIP3    H148338   1.280   2.760  14.556 -2.3158  1.6533  0.1998
 8949TIP3    H248339   1.260   2.744  14.705 -1.1901 -0.1090  0.1815
 8950TIP3   OH248340   4.285   3.025   1.634  0.3009  0.2825 -0.2093
 8950TIP3    H148341   4.343   2.973   1.579  0.8592  0.0487  0.5810
 8950TIP3    H248342   4.198   2.988   1.620  0.7032 -0.9705  0.4396
 8951TIP3   OH248343   2.138   3.957   3.107  0.3016  0.3125  0.1132
 8951TIP3    H148344   2.201   3.932   3.175  0.1730 -1.1114 -0.2621
 8951TIP3    H248345   2.105   3.874   3.073 -1.9098  1.0000  0.4077
 8952TIP3   OH248346   1.926   6.199  14.536 -0.0122 -0.0169 -0.1001
 8952TIP3    H148347   1.965   6.242  14.612 -0.2759 -0.5879  0.3614
 8952TIP3    H248348   1.841   6.166  14.567 -0.3141  0.1168 -0.7551
 8953TIP3   OH248349   5.422   2.979  16.494 -0.2181  0.0279  0.1293
 8953TIP3    H148350   5.413   2.895  16.538  1.7839 -1.5039 -2.1281
 8953TIP3    H248351   5.482   3.030  16.550  0.4839 -0.9917  0.3266
 8954TIP3   OH248352   2.097   5.558   3.716 -0.4068 -0.3420  0.2718
 8954TIP3    H148353   2.185   5.595   3.713 -0.5768  0.2345  1.5494
 8954TIP3    H248354   2.096   5.504   3.796 -0.9026 -1.1845 -0.2802
 8955TIP3   OH248355   2.364   6.675  12.193 -0.0245  0.8594  0.0495
 8955TIP3    H148356   2.307   6.747  12.166  0.2995  0.9093 -0.5237
 8955TIP3    H248357   2.375   6.687  12.287 -1.7957  0.2473  0.3778
 8956TIP3   OH248358   1.383   4.194   5.250 -0.1530 -0.3868 -0.7110
 8956TIP3    H148359   1.459   4.251   5.241  1.1306 -1.7636  0.7640
 8956TIP3    H248360   1.344   4.193   5.163  1.6187  0.2491 -1.5725
 8957TIP3   OH248361   0.900   3.323  11.821  0.0247 -1.0932  0.6900
 8957TIP3    H148362   0.988   3.290  11.801  1.6887  1.9255  2.2884
 8957TIP3    H248363   0.868   3.358  11.738 -0.6666 -4.0202 -0.3968
 8958TIP3   OH248364   4.008   2.799  14.661  0.5299  0.1662  0.1377
 8958TIP3    H148365   4.024   2.892  14.643 -0.5528  0.2885 -0.2652
 8958TIP3    H248366   3.975   2.764  14.579  0.1340 -0.3789  0.5204
 8959TIP3   OH248367   2.536   0.576  12.668 -0.0022 -0.1031 -0.5191
 8959TIP3    H148368   2.582   0.595  12.586 -0.2814 -0.2569 -0.7110
 8959TIP3    H248369   2.495   0.659  12.692  0.2848  0.0087 -0.3991
 8960TIP3   OH248370   0.669   5.801   1.790 -0.0090  0.4948 -0.7852
 8960TIP3    H148371   0.581   5.785   1.825  0.7644  1.8092  2.0772
 8960TIP3    H248372   0.690   5.889   1.820  3.0070 -0.4997  0.3114
 8961TIP3   OH248373   2.885   1.122  12.620  0.2785  0.2997  0.0614
 8961TIP3    H148374   2.835   1.197  12.588 -1.6692 -0.6022  0.8112
 8961TIP3    H248375   2.941   1.157  12.689 -0.8182  1.0242  0.6021
 8962TIP3   OH248376   6.731   6.447   2.366 -0.3808  0.1384 -0.4306
 8962TIP3    H148377   6.681   6.529   2.363  0.0799  0.4909  0.8428
 8962TIP3    H248378   6.772   6.441   2.280  0.0309  1.5529 -0.3702
 8963TIP3   OH248379   5.112   6.340  15.751  0.1020  0.3776  0.6850
 8963TIP3    H148380   5.191   6.321  15.701  0.5574  0.5911  1.3016
 8963TIP3    H248381   5.069   6.411  15.703  0.8404  0.9863  0.8975
 8964TIP3   OH248382   3.531   4.097  13.182 -0.3629  0.1127  0.0951
 8964TIP3    H148383   3.545   4.138  13.097  0.6168  0.1054  0.2301
 8964TIP3    H248384   3.452   4.137  13.217 -0.9729 -0.1461 -0.9680
 8965TIP3   OH248385   3.997   6.492  17.097  0.1841 -0.2670  0.3992
 8965TIP3    H148386   4.065   6.432  17.068  0.1742 -1.1302  2.0465
 8965TIP3    H248387   3.916   6.457  17.059  0.2834 -0.8834  0.7377
 8966TIP3   OH248388   2.219   6.776   6.310  0.1301  0.0103  0.1598
 8966TIP3    H148389   2.298   6.811   6.269  1.0979 -1.2852  0.8189
 8966TIP3    H248390   2.207   6.829   6.389 -0.3204  0.9370 -0.5252
 8967TIP3   OH248391   6.859   5.584  14.700  0.0422  0.6437 -0.1436
 8967TIP3    H148392   6.884   5.565  14.610 -1.3126  0.8256 -0.5795
 8967TIP3    H248393   6.812   5.505  14.730  0.7422  0.4628  0.5094
 8968TIP3   OH248394   1.802   2.707  14.988  0.7034  0.1845 -0.0779
 8968TIP3    H148395   1.843   2.647  15.050  0.7924  0.2851 -0.0384
 8968TIP3    H248396   1.737   2.754  15.040 -0.5753 -1.0748 -0.4748
 8969TIP3   OH248397   6.609   2.824   6.046 -0.2551  0.2944 -0.3012
 8969TIP3    H148398   6.520   2.842   6.076  0.4581  0.9435  1.5416
 8969TIP3    H248399   6.662   2.825   6.125  1.2340 -1.2894 -1.1971
 8970TIP3   OH248400   4.013   0.451  14.480 -0.1031  0.7526  0.1401
 8970TIP3    H148401   4.077   0.522  14.479 -0.4696  1.1300 -1.7432
 8970TIP3    H248402   3.955   0.471  14.553  0.9825  1.2757  0.8762
 8971TIP3   OH248403   3.099   6.580  12.184  0.0322 -0.1619 -0.1844
 8971TIP3    H148404   3.061   6.666  12.171 -0.7898 -0.4242  0.3595
 8971TIP3    H248405   3.023   6.522  12.194  0.5667 -0.9918 -0.8200
 8972TIP3   OH248406   2.194   4.574   5.103 -0.6828 -0.7398 -0.2418
 8972TIP3    H148407   2.247   4.500   5.133 -0.1996 -0.5770 -0.6814
 8972TIP3    H248408   2.131   4.535   5.043 -1.2246 -0.9688  0.4622
 8973TIP3   OH248409   5.695   5.188  14.928  0.3901  0.9434  0.2535
 8973TIP3    H148410   5.650   5.178  15.011  2.1011 -1.0481  1.0586
 8973TIP3    H248411   5.688   5.102  14.886  2.3018  0.9073 -0.1203
 8974TIP3   OH248412   0.760   2.680   4.465  0.0856 -0.2030  0.1597
 8974TIP3    H148413   0.777   2.586   4.462  1.7208  0.0687  0.1315
 8974TIP3    H248414   0.820   2.717   4.400  0.8263  1.0287  1.4932
 8975TIP3   OH248415   3.897   1.344  16.046  0.2515 -0.1646 -0.4342
 8975TIP3    H148416   3.802   1.338  16.041  0.1072 -0.2033  1.5694
 8975TIP3    H248417   3.928   1.257  16.020 -0.3886 -0.7888  0.7780
 8976TIP3   OH248418   5.096   2.766  15.234 -0.0443  0.4312 -0.3906
 8976TIP3    H148419   5.165   2.779  15.299  0.4682 -0.8427 -0.6582
 8976TIP3    H248420   5.015   2.788  15.281  0.4606  1.2248  0.1388
 8977TIP3   OH248421   2.983   1.906  15.928 -0.0355 -0.1910 -0.2104
 8977TIP3    H148422   2.936   1.935  16.006  0.2247  3.4123 -1.2583
 8977TIP3    H248423   2.958   1.967  15.860  0.2659 -2.8122 -2.8818
 8978TIP3   OH248424   3.453   1.832  10.339  0.5023 -0.3819 -0.3300
 8978TIP3    H148425   3.414   1.901  10.391 -0.2265 -0.9283 -0.1343
 8978TIP3    H248426   3.380   1.795  10.289  0.8785 -1.0103 -0.4309
 8979TIP3   OH248427   2.385   4.887   0.721 -0.5470  0.3015 -0.4309
 8979TIP3    H148428   2.476   4.896   0.693 -0.4562  0.0152 -0.2377
 8979TIP3    H248429   2.378   4.940   0.800 -0.8228  1.1694 -1.0269
 8980TIP3   OH248430   2.700   6.043   4.386  0.2417 -0.4101  0.0011
 8980TIP3    H148431   2.722   5.959   4.346  1.6390 -0.3038  0.4995
 8980TIP3    H248432   2.739   6.039   4.474  1.9086  1.4213 -0.5787
 8981TIP3   OH248433   0.868   5.551  11.116 -0.7823 -0.1833 -0.2143
 8981TIP3    H148434   0.964   5.552  11.120 -0.7632 -1.8531  1.1704
 8981TIP3    H248435   0.848   5.550  11.023  0.6983 -2.7715 -0.6110
 8982TIP3   OH248436   0.646   1.812   1.337  0.3762  0.4975  0.0515
 8982TIP3    H148437   0.655   1.778   1.248 -0.0804  2.9796 -1.0287
 8982TIP3    H248438   0.735   1.837   1.361  0.7356 -1.3809  0.8997
 8983TIP3   OH248439   1.571   6.238  13.805 -0.2935  0.1257 -0.4611
 8983TIP3    H148440   1.536   6.256  13.892 -0.4740 -2.7986  0.1631
 8983TIP3    H248441   1.494   6.216  13.752 -0.1269  1.3444 -1.2402
 8984TIP3   OH248442   3.719   4.869   3.785  0.3990  0.2541  0.4518
 8984TIP3    H148443   3.661   4.938   3.752  0.1424  0.4790  1.3344
 8984TIP3    H248444   3.667   4.789   3.778  0.0010  0.4414  1.1524
 8985TIP3   OH248445   2.558   4.538   2.193 -0.5443 -0.0250 -0.3616
 8985TIP3    H148446   2.580   4.445   2.197  0.9029  0.2852 -0.3484
 8985TIP3    H248447   2.609   4.572   2.119 -0.6047  0.8590 -0.0164
 8986TIP3   OH248448   2.155   0.362   4.744 -0.4740 -0.0051  0.3996
 8986TIP3    H148449   2.104   0.442   4.737 -2.0338 -1.0740 -1.5290
 8986TIP3    H248450   2.093   0.297   4.778  0.3570 -0.7297  0.5664
 8987TIP3   OH248451   5.250   0.722   4.465 -0.5605 -0.0606  0.3118
 8987TIP3    H148452   5.318   0.762   4.520 -1.8437  0.5741  1.4998
 8987TIP3    H248453   5.170   0.769   4.488 -1.5581 -1.3142 -0.4778
 8988TIP3   OH248454   0.799   6.761  15.050 -0.4015  0.0434  0.2262
 8988TIP3    H148455   0.826   6.791  15.136  0.6453 -1.3559  0.4261
 8988TIP3    H248456   0.737   6.827  15.019  0.9154  1.7579  1.0870
 8989TIP3   OH248457   4.948   5.003  12.582  0.0999  0.4489  0.3661
 8989TIP3    H148458   5.040   4.976  12.589  0.6997  2.6213  1.8999
 8989TIP3    H248459   4.911   4.982  12.667 -0.5988  0.4129  0.0569
 8990TIP3   OH248460   5.336   2.833  12.688 -0.2506  0.2854  0.2491
 8990TIP3    H148461   5.366   2.832  12.779 -0.9233 -1.0846  0.4683
 8990TIP3    H248462   5.353   2.923  12.658  0.9174  0.4634  1.4012
 8991TIP3   OH248463   5.274   5.556   4.600  0.0891 -0.4291  0.7479
 8991TIP3    H148464   5.343   5.581   4.538 -1.5477  0.7555 -0.6919
 8991TIP3    H248465   5.311   5.483   4.649  1.8640 -0.7138 -0.9104
 8992TIP3   OH248466   0.912   0.103  13.348  0.0404  0.4993  0.0789
 8992TIP3    H148467   0.822   0.082  13.373 -0.3732  1.6620 -0.3533
 8992TIP3    H248468   0.964   0.085  13.426 -0.4894 -0.6766  0.1703
 8993TIP3   OH248469   5.474   3.442  10.932 -0.3462  0.6193  0.1642
 8993TIP3    H148470   5.475   3.350  10.961  0.6138  0.8108  0.8011
 8993TIP3    H248471   5.443   3.438  10.842 -0.0200 -0.3759  0.0770
 8994TIP3   OH248472   3.235   3.651  13.926  0.1975  0.3185 -0.0033
 8994TIP3    H148473   3.266   3.732  13.966 -0.4605  1.0672 -0.9575
 8994TIP3    H248474   3.140   3.657  13.932  0.1077  0.1645 -1.1104
 8995TIP3   OH248475   3.868   4.185   0.668  0.1729  0.1509 -0.0673
 8995TIP3    H148476   3.958   4.205   0.643  0.1515  2.3657  1.3003
 8995TIP3    H248477   3.814   4.242   0.613 -0.1291  1.4416  1.4798
 8996TIP3   OH248478   1.637   1.738   0.619  0.5745 -0.3507 -0.6188
 8996TIP3    H148479   1.636   1.742   0.715 -0.7224 -2.2640 -0.4907
 8996TIP3    H248480   1.545   1.747   0.594  0.9813  0.9348 -1.7750
 8997TIP3   OH248481   4.505   1.996  11.340 -0.3214 -0.0895  0.1293
 8997TIP3    H148482   4.582   1.950  11.305  0.5671  0.1800  1.6468
 8997TIP3    H248483   4.517   2.086  11.311 -0.9305 -0.3444 -0.9906
 8998TIP3   OH248484   3.879   5.801  13.948  0.5836 -0.7208 -0.0419
 8998TIP3    H148485   3.807   5.864  13.949  1.6573  0.5551  1.7965
 8998TIP3    H248486   3.838   5.719  13.919 -1.1890  0.3961 -0.8762
 8999TIP3   OH248487   6.022   3.679   1.121 -0.4757  0.1913 -0.0491
 8999TIP3    H148488   6.114   3.705   1.112 -1.0761  2.3452 -0.4423
 8999TIP3    H248489   6.002   3.696   1.213 -1.0228  1.8030 -0.4314
 9000TIP3   OH248490   0.684   1.507  15.100  0.6032 -0.1095 -0.2340
 9000TIP3    H148491   0.630   1.561  15.042 -0.4787 -0.4206  0.4463
 9000TIP3    H248492   0.703   1.563  15.175 -1.9234 -1.0747  1.2763
 9001TIP3   OH248493   1.442   6.841  14.604 -0.3835  0.9136  1.0294
 9001TIP3    H148494   1.526   6.796  14.592 -1.0353  0.2417 -1.6856
 9001TIP3    H248495   1.396   6.789  14.670 -0.0645 -0.8813 -0.1009
 9002TIP3   OH248496   4.670   2.174   6.014 -0.3012  0.3991  0.3624
 9002TIP3    H148497   4.721   2.186   6.094  0.8841 -0.6150 -0.2044
 9002TIP3    H248498   4.720   2.219   5.947 -0.3907 -0.2098 -0.1207
 9003TIP3   OH248499   0.313   5.329  10.924  0.7584  0.0161  0.1735
 9003TIP3    H148500   0.304   5.315  10.830 -0.0473  1.1973  0.0461
 9003TIP3    H248501   0.275   5.251  10.965 -0.2203  0.1314 -0.4797
 9004TIP3   OH248502   3.189   6.337  11.253  0.8552 -0.3495 -0.1178
 9004TIP3    H148503   3.263   6.278  11.242  1.9438  1.4036 -3.2365
 9004TIP3    H248504   3.112   6.280  11.246  1.8747 -1.5839 -2.3045
 9005TIP3   OH248505   2.933   0.051  11.607 -0.2185 -0.1084  0.2448
 9005TIP3    H148506   2.999   0.110  11.570  0.4627 -0.9075  0.1508
 9005TIP3    H248507   2.951  -0.033  11.566 -0.8667 -0.4941  0.7394
 9006TIP3   OH248508   6.544   2.035   1.092  0.4497  0.0947  0.2589
 9006TIP3    H148509   6.560   2.088   1.170 -3.0671  2.5686 -0.4593
 9006TIP3    H248510   6.588   2.082   1.021 -0.7148  0.8428 -0.0008
 9007TIP3   OH248511   6.657   6.124  11.824  1.1292 -0.0006  0.4791
 9007TIP3    H148512   6.604   6.199  11.852 -0.2378 -0.6860 -0.1728
 9007TIP3    H248513   6.712   6.104  11.900  0.1098  0.4490  1.3632
 9008TIP3   OH248514   6.291   1.420  12.395 -0.1755  0.1735 -0.7436
 9008TIP3    H148515   6.251   1.504  12.419 -1.2040 -0.3640 -0.5125
 9008TIP3    H248516   6.299   1.374  12.479 -0.7188 -0.4115 -1.0030
 9009TIP3   OH248517   1.940   4.669   0.911  0.3986 -0.6569 -0.4390
 9009TIP3    H148518   1.973   4.642   0.997  0.0490 -0.3159 -0.1945
 9009TIP3    H248519   1.997   4.742   0.886 -1.2741  1.1909  0.8316
 9010TIP3   OH248520   0.872   6.626   4.350 -0.7055  0.3960 -0.2382
 9010TIP3    H148521   0.899   6.624   4.442  0.3826  0.7536 -0.5379
 9010TIP3    H248522   0.787   6.669   4.351 -1.3914 -0.9161  0.7511
 9011TIP3   OH248523   4.770   2.364   4.229  0.3663  0.0097  0.4619
 9011TIP3    H148524   4.749   2.299   4.162 -0.0142 -0.4607  1.0277
 9011TIP3    H248525   4.752   2.320   4.312 -0.4065  1.0119  0.8420
 9012TIP3   OH248526   5.026   3.855  11.006 -0.0475  0.9208 -0.6365
 9012TIP3    H148527   4.931   3.853  11.017 -0.2380  0.6489 -2.1430
 9012TIP3    H248528   5.053   3.763  11.012 -0.1225  0.7934 -1.9528
 9013TIP3   OH248529   6.829   1.782  11.754  0.6083  0.0575 -0.4083
 9013TIP3    H148530   6.917   1.756  11.725  0.3467 -1.4995  0.0675
 9013TIP3    H248531   6.795   1.704  11.798 -0.5685  1.0174  0.4493
 9014TIP3   OH248532   0.105   5.171   4.627 -0.0008  0.0333 -0.1607
 9014TIP3    H148533   0.072   5.235   4.690 -2.8432 -1.4215  0.0008
 9014TIP3    H248534   0.168   5.119   4.677  1.5720  1.9283 -0.0163
 9015TIP3   OH248535   4.948   2.011  17.069 -0.1924  0.2809  0.1205
 9015TIP3    H148536   5.007   1.944  17.036 -0.6057  0.1824 -0.4158
 9015TIP3    H248537   4.876   2.014  17.006  0.4165  2.0814 -0.5646
 9016TIP3   OH248538   1.929   5.351   4.377 -0.1063 -0.0873 -0.3696
 9016TIP3    H148539   1.865   5.414   4.345 -1.0984 -0.4756  0.7700
 9016TIP3    H248540   1.953   5.382   4.465  0.0630 -0.8076 -0.1492
 9017TIP3   OH248541   2.586   4.837   5.398 -0.5785 -0.3193 -0.4643
 9017TIP3    H148542   2.678   4.809   5.394 -0.9946 -1.8946 -0.0165
 9017TIP3    H248543   2.577   4.899   5.326  1.1865  1.0640  0.4163
 9018TIP3   OH248544   3.333   0.823   3.502  0.1514  0.3555 -0.0358
 9018TIP3    H148545   3.301   0.733   3.510  0.0999  0.4609  1.0708
 9018TIP3    H248546   3.367   0.829   3.413 -2.1302 -0.0130 -0.9917
 9019TIP3   OH248547   6.420   5.632   2.947 -0.1921  0.0066 -0.6152
 9019TIP3    H148548   6.336   5.677   2.955 -0.2997 -0.3995  1.1166
 9019TIP3    H248549   6.459   5.640   3.034  1.0978 -0.7219 -1.0969
 9020TIP3   OH248550   5.596   2.203   3.663  0.9763 -0.0466 -0.3060
 9020TIP3    H148551   5.593   2.293   3.695  2.0761 -0.5356  1.2814
 9020TIP3    H248552   5.510   2.189   3.624  0.3873  1.3462  0.4035
 9021TIP3   OH248553   2.747   5.246  15.316  0.5935  0.2468  0.2070
 9021TIP3    H148554   2.816   5.220  15.378 -1.5037 -1.1979  2.1226
 9021TIP3    H248555   2.742   5.341  15.325  1.3409  0.2161  1.1430
 9022TIP3   OH248556   2.434   4.929   3.394 -0.1510  0.0672 -0.0636
 9022TIP3    H148557   2.351   4.936   3.347  0.3669 -0.0706 -1.0339
 9022TIP3    H248558   2.425   4.852   3.449 -0.6245 -0.0053 -0.2414
 9023TIP3   OH248559   4.479   4.051   2.293 -0.1373 -0.4113 -0.0143
 9023TIP3    H148560   4.472   3.970   2.243 -1.3924  0.6029 -1.5781
 9023TIP3    H248561   4.572   4.062   2.309  0.5546  0.0201 -3.6304
 9024TIP3   OH248562   4.410   6.791  15.753 -0.0080 -0.4132 -0.1716
 9024TIP3    H148563   4.396   6.697  15.748 -1.1796 -0.2749  0.3845
 9024TIP3    H248564   4.346   6.822  15.816 -0.8282  1.0018 -1.6426
 9025TIP3   OH248565   0.198   6.631   6.805  0.5206  0.2586 -0.3324
 9025TIP3    H148566   0.235   6.719   6.808 -0.4399  0.6631  0.0281
 9025TIP3    H248567   0.107   6.644   6.779  0.4356 -0.6537 -0.5293
 9026TIP3   OH248568   3.638   2.459  14.097 -0.5292 -0.2402  0.2099
 9026TIP3    H148569   3.568   2.396  14.115 -2.2975  1.6666  0.3628
 9026TIP3    H248570   3.662   2.493  14.183  1.0134 -1.2235  0.2162
 9027TIP3   OH248571   4.249   0.532  11.503 -0.2659  0.0708  0.0224
 9027TIP3    H148572   4.216   0.442  11.493 -0.3573  0.3283 -2.6953
 9027TIP3    H248573   4.338   0.529  11.470  0.0358  0.8301  0.7355
 9028TIP3   OH248574   0.943   5.655  11.880 -0.0454 -0.1001 -0.2805
 9028TIP3    H148575   0.880   5.724  11.859 -0.4601 -0.5801 -0.6346
 9028TIP3    H248576   0.987   5.686  11.960 -1.3878 -0.1919  0.5216
 9029TIP3   OH248577   5.230   2.846   5.212  0.1510  0.0100 -0.1787
 9029TIP3    H148578   5.177   2.785   5.160  0.2446 -1.5249  1.4514
 9029TIP3    H248579   5.320   2.821   5.193  0.1950 -0.1476  0.2299
 9030TIP3   OH248580   1.952   0.575   3.270 -0.1851  0.3228  0.7148
 9030TIP3    H148581   1.942   0.619   3.354  0.4358 -0.6367  1.3058
 9030TIP3    H248582   1.883   0.508   3.269  0.0030  0.1301  0.5917
 9031TIP3   OH248583   1.815   5.119  16.189  0.5473  0.1881  0.3950
 9031TIP3    H148584   1.822   5.191  16.127  0.4799  0.0342  0.2095
 9031TIP3    H248585   1.764   5.156  16.262 -1.5444 -0.3230 -0.7057
 9032TIP3   OH248586   1.400   4.305  12.354  0.1559 -0.3361  0.4384
 9032TIP3    H148587   1.463   4.369  12.319  0.7387 -0.9440  0.3646
 9032TIP3    H248588   1.333   4.297  12.286  1.7940 -2.2737 -1.0733
 9033TIP3   OH248589   5.473   0.190   2.407  0.0637 -0.3341  0.4051
 9033TIP3    H148590   5.548   0.173   2.350  0.1724  0.1365  0.4028
 9033TIP3    H248591   5.510   0.188   2.496 -0.0555 -0.8058  0.4441
 9034TIP3   OH248592   3.193   4.329  13.561  0.7052 -0.0782 -0.1876
 9034TIP3    H148593   3.109   4.315  13.604  0.1461  1.2404 -0.7862
 9034TIP3    H248594   3.174   4.391  13.490  2.2464  0.5488 -0.1020
 9035TIP3   OH248595   0.679   3.232  15.213 -0.4416  0.3292 -0.1173
 9035TIP3    H148596   0.774   3.239  15.223 -0.6969  1.9555  1.8341
 9035TIP3    H248597   0.666   3.211  15.121  1.8578 -1.6930 -0.0851
 9036TIP3   OH248598   2.245   0.193   5.706  0.2044  0.3870  0.1947
 9036TIP3    H148599   2.334   0.210   5.736  0.0644 -2.2514  2.4434
 9036TIP3    H248600   2.189   0.214   5.780 -0.8053 -0.2756 -0.3477
 9037TIP3   OH248601   3.094   0.261  10.834 -0.1808  0.0337  0.1467
 9037TIP3    H148602   3.187   0.238  10.828  0.3429  1.8958  0.6606
 9037TIP3    H248603   3.054   0.218  10.758  0.5190 -3.1756  1.3985
 9038TIP3   OH248604   5.101   2.633  13.329  0.1676  0.0222  0.4315
 9038TIP3    H148605   5.157   2.625  13.252 -0.9343  0.0449 -0.3843
 9038TIP3    H248606   5.154   2.597  13.400  2.0643  1.9774  0.1088
 9039TIP3   OH248607   4.116   1.994  11.456  0.2404 -0.0796  0.4097
 9039TIP3    H148608   4.050   2.015  11.522 -1.6485 -0.1758 -1.3491
 9039TIP3    H248609   4.177   2.068  11.458 -0.7906  0.7770  1.0131
 9040TIP3   OH248610   1.433   0.899   1.196  0.2184  0.1359 -0.2212
 9040TIP3    H148611   1.463   0.984   1.161  1.7962 -1.1376 -2.1952
 9040TIP3    H248612   1.469   0.835   1.135 -3.1084 -1.8565 -0.2701
 9041TIP3   OH248613   4.547   1.812   0.762  0.1449  0.4833  0.2615
 9041TIP3    H148614   4.589   1.771   0.685 -0.6526 -1.0057  0.5744
 9041TIP3    H248615   4.559   1.906   0.748  5.3518  0.2794  1.2896
 9042TIP3   OH248616   1.679   5.975   1.840 -0.3639 -0.1405  0.0948
 9042TIP3    H148617   1.693   5.925   1.760  1.2742  1.1198 -0.4698
 9042TIP3    H248618   1.604   6.032   1.820 -0.4037 -0.3259 -0.2939
 9043TIP3   OH248619   3.350   3.635   1.557  0.0033 -0.0279  0.1376
 9043TIP3    H148620   3.305   3.679   1.485 -0.7250  0.3612  0.8262
 9043TIP3    H248621   3.440   3.624   1.525 -0.0388  1.1018 -0.4189
 9044TIP3   OH248622   2.665   1.458   2.674  0.1450  0.2674  0.3348
 9044TIP3    H148623   2.717   1.391   2.720  0.2319  0.7016  0.8833
 9044TIP3    H248624   2.666   1.533   2.733  1.9946  1.5864 -1.3090
 9045TIP3   OH248625   4.161   0.330  16.531  0.4498 -0.4141 -0.3248
 9045TIP3    H148626   4.187   0.238  16.532  0.7913 -0.3371  1.5170
 9045TIP3    H248627   4.082   0.332  16.477 -0.7272 -2.1608  1.1928
 9046TIP3   OH248628   3.931   3.938   2.140 -0.3019 -0.2938  0.4647
 9046TIP3    H148629   3.972   3.995   2.205 -0.5873 -1.9116  2.1755
 9046TIP3    H248630   3.951   3.849   2.171  1.0715 -1.2137 -2.6740
 9047TIP3   OH248631   3.053   4.990   2.027 -0.4577  0.8073 -0.2491
 9047TIP3    H148632   3.047   4.896   2.015 -0.3013  0.2847  2.9239
 9047TIP3    H248633   3.088   5.023   1.944 -0.0927 -1.9438 -1.2831
 9048TIP3   OH248634   3.146   3.081  16.622 -0.1603  0.4779  0.7620
 9048TIP3    H148635   3.194   3.138  16.562 -0.6433  1.5680  1.3667
 9048TIP3    H248636   3.162   2.992  16.590  0.2739  0.9781 -0.4624
 9049TIP3   OH248637   0.005   5.557  13.575  1.1202  0.1236  0.1939
 9049TIP3    H148638   0.069   5.486  13.586  1.2040  0.3061  0.9333
 9049TIP3    H248639   0.011   5.580  13.483 -1.1291 -2.9421 -0.8887
 9050TIP3   OH248640   3.238   1.043   3.119 -0.3474 -0.2263  0.4103
 9050TIP3    H148641   3.286   1.117   3.083  0.6260 -1.7434 -1.6177
 9050TIP3    H248642   3.227   1.064   3.212  0.7882  1.9480  0.1108
 9051TIP3   OH248643   3.418   3.960  13.960  0.6086 -0.0364  0.1381
 9051TIP3    H148644   3.464   3.879  13.936  0.4767 -0.1978  0.4130
 9051TIP3    H248645   3.375   3.988  13.880  0.8064 -0.1401 -0.0050
 9052TIP3   OH248646   4.502   0.172  13.891 -0.2754  0.5996  0.1855
 9052TIP3    H148647   4.511   0.187  13.797  0.6251 -0.3175  0.0979
 9052TIP3    H248648   4.566   0.231  13.931 -0.1720  0.4945  0.1748
 9053TIP3   OH248649   5.877   0.644   5.504  0.6321  0.1274  0.1377
 9053TIP3    H148650   5.964   0.680   5.493  0.4411  1.2913  1.9539
 9053TIP3    H248651   5.818   0.713   5.474  0.3160  0.3889  1.2914
 9054TIP3   OH248652   6.727   0.035   2.938  0.0479 -0.5295 -0.1391
 9054TIP3    H148653   6.739   0.130   2.944  0.1781 -0.4689 -1.2047
 9054TIP3    H248654   6.635   0.024   2.913  0.6504 -0.5571 -2.5380
 9055TIP3   OH248655   0.936   5.143  15.990 -0.3085  0.1653  0.0505
 9055TIP3    H148656   0.891   5.072  16.034 -0.2575 -0.1433 -0.3844
 9055TIP3    H248657   0.876   5.218  15.997 -1.3598 -0.4963 -1.3881
 9056TIP3   OH248658   0.998   3.490   1.187  0.2077  0.7935 -0.0379
 9056TIP3    H148659   1.045   3.411   1.163  0.3525  0.2772  1.7472
 9056TIP3    H248660   0.924   3.459   1.239  0.9989  1.8195  1.8366
 9057TIP3   OH248661   2.153   5.113   2.981 -0.0998 -0.0662  0.1701
 9057TIP3    H148662   2.097   5.034   2.981 -1.5041  0.8766 -0.9762
 9057TIP3    H248663   2.092   5.185   2.966  1.0763  1.3427  1.7574
 9058TIP3   OH248664   6.467   5.669  15.679 -0.5633  0.2773  0.2472
 9058TIP3    H148665   6.397   5.607  15.698 -1.4587  0.9343 -0.8074
 9058TIP3    H248666   6.461   5.685  15.585  1.2656  0.0632  0.0576
 9059TIP3   OH248667   5.095   3.300  12.142  0.0292 -0.4408 -0.1918
 9059TIP3    H148668   5.141   3.378  12.175 -0.4321 -0.0331 -0.5006
 9059TIP3    H248669   5.063   3.257  12.221 -1.0324  0.5075 -0.0805
 9060TIP3   OH248670   4.901   5.205  14.258  1.0725  0.0114 -0.1783
 9060TIP3    H148671   4.868   5.156  14.334  0.8170  1.4402  0.6758
 9060TIP3    H248672   4.961   5.145  14.215 -1.0724 -1.9309 -0.6084
 9061TIP3   OH248673   3.570   6.824  14.459 -0.2543 -0.1280  0.1050
 9061TIP3    H148674   3.494   6.767  14.446  0.3788 -1.3408  1.4533
 9061TIP3    H248675   3.540   6.889  14.522 -0.8319  0.7830 -1.0722
 9062TIP3   OH248676   3.943   1.423  12.198 -0.4401  0.5064 -0.6569
 9062TIP3    H148677   3.869   1.413  12.138  0.8818 -0.4895 -2.1802
 9062TIP3    H248678   3.907   1.401  12.284 -1.6941 -0.9666 -1.5141
 9063TIP3   OH248679   5.792   0.049  11.642  0.6079 -0.2199 -0.2518
 9063TIP3    H148680   5.770  -0.038  11.676 -1.4837  0.9715  1.7558
 9063TIP3    H248681   5.843   0.089  11.712  0.6977  0.5140 -0.7283
 9064TIP3   OH248682   5.349   3.396   5.522 -0.0325 -0.1307 -0.1972
 9064TIP3    H148683   5.342   3.461   5.592 -0.0787 -1.1835  0.8060
 9064TIP3    H248684   5.271   3.341   5.532  0.7753 -1.2911 -0.0253
 9065TIP3   OH248685   0.827   1.299  10.607  0.4237 -0.0972 -0.0195
 9065TIP3    H148686   0.779   1.224  10.571 -0.8720 -0.3197  2.0080
 9065TIP3    H248687   0.787   1.376  10.568  1.1423 -0.3993 -1.4031
 9066TIP3   OH248688   6.379   4.747  15.565  0.6202  0.2372 -0.1507
 9066TIP3    H148689   6.442   4.755  15.637  1.5672 -0.6189 -0.8659
 9066TIP3    H248690   6.424   4.785  15.489 -0.0924  0.4693 -0.4705
 9067TIP3   OH248691   6.092   1.630   5.004  0.1906 -0.5597  0.5741
 9067TIP3    H148692   6.043   1.559   5.046  0.1625 -0.7364  0.2513
 9067TIP3    H248693   6.183   1.615   5.029  0.5468 -2.1208 -1.3849
 9068TIP3   OH248694   5.419   0.840   4.814  0.7128 -0.2103  0.3918
 9068TIP3    H148695   5.324   0.850   4.812  0.7130 -0.1526  0.6816
 9068TIP3    H248696   5.447   0.889   4.891  0.9828 -0.1861  0.2789
 9069TIP3   OH248697   6.012   5.651   3.982 -0.0825 -0.2464  0.4015
 9069TIP3    H148698   5.949   5.618   3.917 -0.3677  1.3274 -0.1522
 9069TIP3    H248699   5.959   5.676   4.057 -0.3086  2.0424 -0.4469
 9070TIP3   OH248700   2.502   4.435   5.810 -0.3943  0.6626 -0.3915
 9070TIP3    H148701   2.417   4.408   5.847  0.3503  0.7783  1.5147
 9070TIP3    H248702   2.556   4.356   5.818  0.1596  1.0781  0.0021
 9071TIP3   OH248703   3.176   2.656   2.664  0.0261 -0.0281 -0.4575
 9071TIP3    H148704   3.249   2.595   2.676  0.5769  0.6426 -0.3864
 9071TIP3    H248705   3.138   2.630   2.580  0.2326 -0.4917 -0.4129
 9072TIP3   OH248706   2.778   0.086  14.191  0.0086 -0.1964 -0.4494
 9072TIP3    H148707   2.864   0.045  14.191  0.6070  0.8998 -2.7795
 9072TIP3    H248708   2.796   0.180  14.185 -1.3400  0.4397  3.1959
 9073TIP3   OH248709   4.207   6.399  12.613 -0.2588  0.3370 -0.2383
 9073TIP3    H148710   4.244   6.358  12.691  0.5209  0.9878 -0.2556
 9073TIP3    H248711   4.156   6.472  12.648  1.7152  1.8672 -0.4099
 9074TIP3   OH248712   6.377   6.010   6.621 -0.3256 -0.2006 -0.1498
 9074TIP3    H148713   6.287   6.015   6.589 -0.7574  0.1472  1.0631
 9074TIP3    H248714   6.399   6.100   6.643  0.1159 -0.3690  0.1003
 9075TIP3   OH248715   1.576   6.121  14.241 -0.4217 -0.7231  0.3184
 9075TIP3    H148716   1.643   6.189  14.244 -1.6278  0.5714 -0.6659
 9075TIP3    H248717   1.602   6.058  14.307  1.1625  0.3093  0.7156
 9076TIP3   OH248718   4.439   5.533  16.473 -0.3051  0.1467 -0.0781
 9076TIP3    H148719   4.437   5.591  16.397  2.1083 -0.2819 -0.5595
 9076TIP3    H248720   4.530   5.536  16.502 -0.5653 -1.8448  1.1045
 9077TIP3   OH248721   4.112   2.598   3.780  0.4794  0.1636 -0.0638
 9077TIP3    H148722   4.199   2.622   3.749  0.9014 -1.8009 -0.5573
 9077TIP3    H248723   4.123   2.588   3.875  0.9565 -0.6110 -0.1897
 9078TIP3   OH248724   0.989   3.737  12.190 -0.0756  0.5563  0.2511
 9078TIP3    H148725   0.988   3.646  12.162  1.2506  0.0693  1.6646
 9078TIP3    H248726   0.899   3.755  12.217 -0.4611 -0.1482 -0.5165
 9079TIP3   OH248727   2.556   4.053   4.385 -0.3326  0.5580  0.1301
 9079TIP3    H148728   2.610   4.036   4.308 -1.3315  0.7031 -0.6275
 9079TIP3    H248729   2.597   4.002   4.455  1.0918  1.1148 -0.2814
 9080TIP3   OH248730   0.186   4.236  13.946 -0.0289 -0.5760  0.1402
 9080TIP3    H148731   0.217   4.193  14.026  0.6414  0.3488  0.3953
 9080TIP3    H248732   0.098   4.267  13.968  0.6895  0.9527  1.0534
 9081TIP3   OH248733   0.030   1.641  14.456  0.2420  0.0800  0.0425
 9081TIP3    H148734   0.027   1.735  14.437 -1.8192 -0.2420 -1.5458
 9081TIP3    H248735   0.003   1.635  14.548  1.7883  1.0858  0.6095
 9082TIP3   OH248736   0.214   3.327   2.919 -0.3488  0.0654  0.0279
 9082TIP3    H148737   0.121   3.330   2.894 -0.4514 -1.5819  0.0844
 9082TIP3    H248738   0.214   3.311   3.013  0.0059  0.5391  0.1131
 9083TIP3   OH248739   0.110   3.525  12.720  0.2667 -0.4043 -0.3686
 9083TIP3    H148740   0.136   3.593  12.658 -0.0491  0.4233  0.3920
 9083TIP3    H248741   0.088   3.572  12.800  2.1342 -1.5530  0.9001
 9084TIP3   OH248742   5.319   2.350  12.918  0.2859  0.1824 -0.0983
 9084TIP3    H148743   5.252   2.362  12.851 -1.7108  2.8435  2.1265
 9084TIP3    H248744   5.369   2.432  12.916 -1.0866  1.2247  2.7819
 9085TIP3   OH248745   4.303   6.850  15.258  1.0683 -0.1269  0.1108
 9085TIP3    H148746   4.338   6.937  15.243  1.0835 -0.0462  0.6003
 9085TIP3    H248747   4.271   6.852  15.348 -2.0863  0.4498 -0.8981
 9086TIP3   OH248748   1.615   5.527  12.051 -0.2590 -0.1910 -0.3139
 9086TIP3    H148749   1.564   5.452  12.022 -1.6610  0.6908 -0.2576
 9086TIP3    H248750   1.553   5.601  12.047  0.3329  0.5100  1.9859
 9087TIP3   OH248751   1.539   1.909  12.697 -0.5321  0.1406 -0.0594
 9087TIP3    H148752   1.563   1.821  12.728 -0.2160 -0.2152 -1.2634
 9087TIP3    H248753   1.603   1.967  12.739 -0.2544 -0.3016  0.1417
 9088TIP3   OH248754   2.123   4.976   5.236  0.0672  0.9627  0.5462
 9088TIP3    H148755   2.041   5.010   5.203 -0.7009 -0.9488  0.3589
 9088TIP3    H248756   2.176   4.959   5.158 -0.2360  0.1192  0.5142
 9089TIP3   OH248757   3.018   5.066  11.582  0.7530  0.4269  0.2201
 9089TIP3    H148758   3.103   5.024  11.596  1.2785  1.2278 -0.4182
 9089TIP3    H248759   2.985   5.083  11.670  0.3135 -1.6899  0.4975
 9090TIP3   OH248760   0.187   1.713  16.557  0.2603 -0.0115  0.6396
 9090TIP3    H148761   0.130   1.712  16.633  0.4562 -2.1306  0.8152
 9090TIP3    H248762   0.223   1.625  16.552  1.0644  0.3611 -1.3104
 9091TIP3   OH248763   4.074   1.693  11.392 -0.4335  0.1291 -0.0977
 9091TIP3    H148764   4.163   1.662  11.411 -0.8375 -0.8020  0.3353
 9091TIP3    H248765   4.082   1.788  11.392  0.2525  0.1073  1.5421
 9092TIP3   OH248766   1.274   6.070   5.926 -0.3202  0.3624 -0.1814
 9092TIP3    H148767   1.355   6.105   5.888 -0.3204 -0.7431 -1.2457
 9092TIP3    H248768   1.301   6.032   6.010  0.0580  0.9708 -0.0233
 9093TIP3   OH248769   2.120   3.007  14.691 -0.3784 -0.3858 -0.0066
 9093TIP3    H148770   2.085   3.092  14.718 -0.4188  0.1325 -1.5595
 9093TIP3    H248771   2.211   3.024  14.669  0.2229 -1.2233  1.6880
 9094TIP3   OH248772   0.999   5.570   4.457 -0.1320 -0.5029  0.0047
 9094TIP3    H148773   0.954   5.550   4.539  0.4553  0.1570  0.4991
 9094TIP3    H248774   0.945   5.638   4.416  0.2222  0.0361  0.4279
 9095TIP3   OH248775   3.298   3.808  12.001  0.4448 -0.2411  0.6343
 9095TIP3    H148776   3.296   3.867  12.076 -0.9867  1.6193 -0.7679
 9095TIP3    H248777   3.310   3.865  11.926 -0.0617 -1.8432 -0.7379
 9096TIP3   OH248778   5.136   0.638  14.672  0.3265  0.4119 -0.3453
 9096TIP3    H148779   5.213   0.614  14.620 -0.2220 -1.1126 -0.4923
 9096TIP3    H248780   5.071   0.571  14.651 -0.7853  1.2419  0.3636
 9097TIP3   OH248781   2.144   4.591   3.686  0.7259 -0.2425 -0.5249
 9097TIP3    H148782   2.090   4.624   3.757  2.5487  0.3889  0.6365
 9097TIP3    H248783   2.128   4.497   3.685  0.2605 -0.1795  0.3458
 9098TIP3   OH248784   4.722   6.553   1.219  0.2081 -0.1911 -0.4327
 9098TIP3    H148785   4.736   6.617   1.149 -0.0840 -1.5786 -1.8147
 9098TIP3    H248786   4.791   6.572   1.283  1.1343  0.4884 -1.5807
 9099TIP3   OH248787   5.740   2.165  13.053 -0.2686 -0.2707 -0.3555
 9099TIP3    H148788   5.736   2.070  13.056 -1.6603 -0.2339 -0.2272
 9099TIP3    H248789   5.689   2.194  13.129 -2.6455  0.5413 -2.0967
 9100TIP3   OH248790   1.320   3.953   3.944  0.1783 -0.1590  0.0069
 9100TIP3    H148791   1.410   3.959   3.974 -0.4094 -0.9282  2.0484
 9100TIP3    H248792   1.323   3.890   3.872  1.3035  0.1501 -0.2342
 9101TIP3   OH248793   1.903   5.469   0.006  0.7318  0.2755 -0.0015
 9101TIP3    H148794   1.988   5.488  -0.035  1.2662  1.4517  1.5828
 9101TIP3    H248795   1.883   5.548   0.056 -2.3465  0.8976 -1.9689
 9102TIP3   OH248796   2.401   4.095  15.132  0.3617  0.4205 -0.0643
 9102TIP3    H148797   2.472   4.050  15.087 -0.6618  0.1452 -1.4631
 9102TIP3    H248798   2.437   4.181  15.155  0.9170  0.5675 -1.4114
 9103TIP3   OH248799   3.552   5.356   1.790  0.0361 -0.4302 -0.0884
 9103TIP3    H148800   3.487   5.400   1.735  1.9191  0.1990 -1.9404
 9103TIP3    H248801   3.561   5.269   1.752  1.6168  0.1300 -1.0757
 9104TIP3   OH248802   1.742   2.532   3.973 -0.2771  0.1491  0.3952
 9104TIP3    H148803   1.730   2.459   4.034  3.1923 -0.7761  0.1706
 9104TIP3    H248804   1.737   2.491   3.886  2.6007 -0.1539  0.2718
 9105TIP3   OH248805   0.782   5.015   5.368  0.1256 -0.1204 -0.0448
 9105TIP3    H148806   0.840   4.999   5.294 -0.1719  1.5181 -0.6893
 9105TIP3    H248807   0.829   5.079   5.422 -0.4237  0.0514  0.2394
 9106TIP3   OH248808   6.138   3.149  16.592 -0.0683 -0.0010  0.2641
 9106TIP3    H148809   6.209   3.155  16.528 -0.0255 -1.2016  0.1784
 9106TIP3    H248810   6.119   3.240  16.615  1.9138  0.3337  0.7698
 9107TIP3   OH248811   2.409   5.446   4.428  0.1409 -0.0713 -0.0778
 9107TIP3    H148812   2.377   5.431   4.339 -1.2601 -1.6851  0.6151
 9107TIP3    H248813   2.467   5.521   4.421 -0.8687  0.6001 -2.1374
 9108TIP3   OH248814   0.767   3.519  16.133 -0.1945  0.0122 -0.2173
 9108TIP3    H148815   0.799   3.602  16.168  0.5857 -0.2497 -0.2867
 9108TIP3    H248816   0.813   3.509  16.049  0.7855 -1.1440  0.4202
 9109TIP3   OH248817   5.647   0.758   0.555  0.2819 -0.8202  0.0665
 9109TIP3    H148818   5.711   0.689   0.542  0.7959  0.0026 -2.3295
 9109TIP3    H248819   5.588   0.751   0.479 -1.2117 -0.2428  1.1205
 9110TIP3   OH248820   1.195   5.111   1.680  0.1449 -0.7918 -0.1026
 9110TIP3    H148821   1.273   5.065   1.649  0.6440  0.5018 -0.8712
 9110TIP3    H248822   1.208   5.117   1.775  1.5172  0.2661 -0.3113
 9111TIP3   OH248823   3.496   2.920   4.541  0.4411  0.5060 -0.2018
 9111TIP3    H148824   3.496   2.832   4.503 -1.7896 -0.3121  1.4327
 9111TIP3    H248825   3.567   2.918   4.605  1.6922  0.5976 -1.5532
 9112TIP3   OH248826   4.808   2.799  14.747  0.2838  0.5589  0.1062
 9112TIP3    H148827   4.795   2.868  14.813  0.9332 -1.1374  2.1065
 9112TIP3    H248828   4.787   2.718  14.793 -2.2166 -0.5598 -2.6747
 9113TIP3   OH248829   1.394   0.294  16.635 -0.2397  0.5778  0.1149
 9113TIP3    H148830   1.379   0.252  16.550 -0.5836 -0.8880  0.8628
 9113TIP3    H248831   1.469   0.247  16.672 -1.0520  0.1451  1.2629
 9114TIP3   OH248832   1.470   5.010   3.632 -0.3587  0.0143  0.1882
 9114TIP3    H148833   1.462   4.944   3.562 -0.6134  1.3529 -1.0881
 9114TIP3    H248834   1.433   4.967   3.709 -0.1269 -1.4911 -0.4934
 9115TIP3   OH248835   5.526   2.375   4.735 -0.7070 -0.1425 -0.1867
 9115TIP3    H148836   5.477   2.449   4.701  0.6251  1.1991  0.6766
 9115TIP3    H248837   5.607   2.374   4.684  0.2587  0.4213  1.2588
 9116TIP3   OH248838   3.282   6.725  12.595  0.0884  0.3752  0.4757
 9116TIP3    H148839   3.268   6.773  12.514 -1.7720  1.6517  1.4982
 9116TIP3    H248840   3.195   6.709  12.630  0.7800 -1.3211  1.6002
 9117TIP3   OH248841   1.625   4.108  16.018  0.1428 -0.1690 -0.0442
 9117TIP3    H148842   1.580   4.062  15.948 -2.3056  2.7874 -0.6136
 9117TIP3    H248843   1.669   4.181  15.975 -1.0233  1.4477  1.3542
 9118TIP3   OH248844   5.251   6.066  15.178 -0.1951 -0.0972  0.1934
 9118TIP3    H148845   5.321   6.116  15.220  0.8523 -0.6156 -0.8852
 9118TIP3    H248846   5.174   6.081  15.233 -0.3607  3.9022 -0.8112
 9119TIP3   OH248847   2.824   1.035   5.563 -0.4978 -0.0915  0.3525
 9119TIP3    H148848   2.810   0.961   5.504 -0.0348 -0.6798  0.9548
 9119TIP3    H248849   2.746   1.037   5.618 -0.1249 -0.7018  0.9194
 9120TIP3   OH248850   1.445   0.109  11.634 -0.0648 -0.0042 -0.0469
 9120TIP3    H148851   1.520   0.138  11.686  0.0923 -2.3841  1.2331
 9120TIP3    H248852   1.394   0.055  11.695 -2.3141  0.7368 -1.1742
 9121TIP3   OH248853   1.858   4.461  16.423 -0.5061 -0.2692  0.3026
 9121TIP3    H148854   1.772   4.446  16.382 -1.5610 -2.2392  2.9231
 9121TIP3    H248855   1.839   4.517  16.498  0.6644  0.0228  0.3851
 9122TIP3   OH248856   3.358   1.361   2.305 -0.3270  0.0612  0.4348
 9122TIP3    H148857   3.421   1.430   2.284 -0.1331 -0.2932 -0.1655
 9122TIP3    H248858   3.322   1.386   2.390  0.0644  0.6690  0.4236
 9123TIP3   OH248859   1.878   4.916  16.451 -0.3540 -0.6106  0.0008
 9123TIP3    H148860   1.865   4.867  16.532  0.9070 -0.8570  0.0728
 9123TIP3    H248861   1.888   5.007  16.480 -1.5966 -0.4358 -0.0421
 9124TIP3   OH248862   6.753   1.403  12.106 -0.2981  0.3352 -0.1690
 9124TIP3    H148863   6.825   1.410  12.169 -0.3893  2.8354 -0.2559
 9124TIP3    H248864   6.675   1.426  12.157 -0.6774  0.2067 -0.6877
 9125TIP3   OH248865   2.832   6.641   0.778 -0.2409 -0.1715 -0.4524
 9125TIP3    H148866   2.832   6.566   0.718 -0.6275  0.6299 -1.4786
 9125TIP3    H248867   2.910   6.691   0.753 -0.7320  0.4817 -0.6986
 9126TIP3   OH248868   4.992   0.167   5.893  0.3251  0.8727 -0.3095
 9126TIP3    H148869   5.058   0.140   5.957  2.3206  0.2471 -2.5050
 9126TIP3    H248870   4.944   0.086   5.873 -0.4368  1.1096  0.4864
 9127TIP3   OH248871   5.469   5.203  13.310  0.4043  0.4640  0.1961
 9127TIP3    H148872   5.403   5.216  13.378  0.7211  0.7918  0.4500
 9127TIP3    H248873   5.430   5.240  13.231  0.0169  0.0394  0.1891
 9128TIP3   OH248874   4.657   6.777  16.325 -0.0935  0.1800  0.3904
 9128TIP3    H148875   4.607   6.757  16.246 -0.7708  1.0805  0.5760
 9128TIP3    H248876   4.606   6.845  16.369  2.0523  2.3870 -0.2592
 9129TIP3   OH248877   4.956   2.941  13.810 -0.5612  0.2441  0.0677
 9129TIP3    H148878   4.898   3.000  13.763  0.6141  0.2478 -1.4494
 9129TIP3    H248879   4.968   2.867  13.751  0.3985 -0.0939  0.6631
 9130TIP3   OH248880   4.313   0.527   4.870 -0.2861  0.3412 -0.5671
 9130TIP3    H148881   4.395   0.513   4.823 -0.8278 -1.8109 -0.9748
 9130TIP3    H248882   4.252   0.560   4.803 -0.3122 -0.0797 -0.7532
 9131TIP3   OH248883   2.834   3.833   1.664 -0.0686  0.6050  0.1438
 9131TIP3    H148884   2.801   3.923   1.661 -3.0823 -0.3953 -2.6220
 9131TIP3    H248885   2.765   3.781   1.624  3.6301 -2.2441 -3.4907
 9132TIP3   OH248886   5.394   3.154  12.858 -0.1394  0.0284  0.0006
 9132TIP3    H148887   5.442   3.106  12.926 -1.1443  0.8008  1.3201
 9132TIP3    H248888   5.309   3.110  12.854  0.1470 -0.4459 -1.2911
 9133TIP3   OH248889   3.634   2.261   3.476 -0.3388  0.2831  0.2339
 9133TIP3    H148890   3.669   2.304   3.398  0.8174  1.7495  1.4836
 9133TIP3    H248891   3.589   2.330   3.524  0.4425 -0.1575  1.6793
 9134TIP3   OH248892   0.812   2.356  12.959  0.2483  0.0191 -0.7354
 9134TIP3    H148893   0.724   2.388  12.978  0.3713 -0.1051  0.0498
 9134TIP3    H248894   0.845   2.416  12.892 -0.4555  0.0179 -1.0973
 9135TIP3   OH248895   1.215   0.960  15.166 -0.4489  0.3785 -0.2616
 9135TIP3    H148896   1.122   0.975  15.184 -0.2238 -0.6145  2.0173
 9135TIP3    H248897   1.216   0.882  15.110 -0.9734 -1.4206  2.0671
 9136TIP3   OH248898   3.350   4.530  10.519  0.1339 -0.0162 -0.3790
 9136TIP3    H148899   3.405   4.597  10.560  0.2632  1.5405 -2.9033
 9136TIP3    H248900   3.296   4.496  10.591  1.8131  0.9819  1.4577
 9137TIP3   OH248901   3.164   1.105  17.113  0.6418  0.3880 -0.1765
 9137TIP3    H148902   3.176   1.135  17.023 -1.8228 -2.3153 -1.5725
 9137TIP3    H248903   3.082   1.145  17.141  2.0611  2.3587  1.5592
 9138TIP3   OH248904   0.048   2.112   5.282 -0.3005  0.2677 -0.0205
 9138TIP3    H148905   0.074   2.025   5.313  0.9943  0.7819  0.3899
 9138TIP3    H248906   0.111   2.133   5.213 -0.5625  0.9194 -0.0736
 9139TIP3   OH248907   2.602   5.972  15.545 -0.7253 -0.2627  0.7704
 9139TIP3    H148908   2.549   5.958  15.623 -0.6241 -1.5218  0.6268
 9139TIP3    H248909   2.549   5.939  15.473  0.0324 -1.0843  0.5695
 9140TIP3   OH248910   3.788   3.687   4.549 -0.0543 -0.1955 -0.0976
 9140TIP3    H148911   3.710   3.741   4.537 -0.3725 -0.2574  1.4659
 9140TIP3    H248912   3.787   3.627   4.475 -1.2061  0.1540 -0.3890
 9141TIP3   OH248913   3.051   0.186   5.930  0.3937  0.1048 -0.5341
 9141TIP3    H148914   2.987   0.123   5.964 -0.1088  0.7237 -0.3182
 9141TIP3    H248915   3.069   0.157   5.841  0.4954 -0.5974 -0.2906
 9142TIP3   OH248916   3.151   1.292  12.348 -0.0413  0.1969  0.3755
 9142TIP3    H148917   3.207   1.278  12.425  0.4373 -1.4464 -0.2390
 9142TIP3    H248918   3.153   1.386  12.334  2.3860  0.2311  0.5318
 9143TIP3   OH248919   5.055   3.492   0.519  0.3444  0.0454  0.1710
 9143TIP3    H148920   5.040   3.585   0.539  1.8144  0.3619 -0.1209
 9143TIP3    H248921   5.075   3.491   0.426  2.2608 -0.3033  0.5632
 9144TIP3   OH248922   4.049   3.107  11.429  0.0014  0.5640  0.1353
 9144TIP3    H148923   4.043   3.197  11.400 -0.8474  0.3042 -0.5389
 9144TIP3    H248924   4.129   3.073  11.388 -0.1933  0.7317 -0.3878
 9145TIP3   OH248925   4.382   4.254   3.291  0.0878  0.0675  0.4227
 9145TIP3    H148926   4.456   4.226   3.345 -0.3365  2.0186  2.1017
 9145TIP3    H248927   4.422   4.291   3.212  0.7424 -1.7865 -0.1661
 9146TIP3   OH248928   4.322   4.816  16.380  0.3904  0.0981 -0.2480
 9146TIP3    H148929   4.352   4.737  16.336 -1.8582 -0.4735 -0.8576
 9146TIP3    H248930   4.277   4.866  16.312 -1.5965  0.0419  0.9467
 9147TIP3   OH248931   1.849   1.175  11.334 -0.5023 -0.5038  0.1110
 9147TIP3    H148932   1.895   1.179  11.250 -1.4552  0.6554 -0.3934
 9147TIP3    H248933   1.761   1.209  11.315 -1.5123 -2.4317  1.0954
 9148TIP3   OH248934   5.984   0.761   4.955  0.0056 -0.3839 -0.0208
 9148TIP3    H148935   5.944   0.748   4.869  0.7806 -1.7939 -0.2064
 9148TIP3    H248936   6.046   0.689   4.963 -0.9362 -1.0176  2.2574
 9149TIP3   OH248937   5.476   4.302   3.148 -0.1095 -0.4770 -0.0719
 9149TIP3    H148938   5.486   4.275   3.057 -0.1821  2.0016 -0.8912
 9149TIP3    H248939   5.542   4.252   3.195 -0.0330 -1.7728 -1.4733
 9150TIP3   OH248940   3.863   2.251   0.476 -0.1447 -0.2321 -0.2406
 9150TIP3    H148941   3.909   2.335   0.481  0.3398 -0.5707  2.5548
 9150TIP3    H248942   3.780   2.266   0.520  1.0089 -1.7321  2.7983
 9151TIP3   OH248943   5.641   5.223  10.739 -0.0102 -0.2469  0.6224
 9151TIP3    H148944   5.616   5.131  10.741  1.7615 -0.7497  1.3862
 9151TIP3    H248945   5.687   5.233  10.655  0.2725 -0.2106  0.7789
 9152TIP3   OH248946   5.902   5.516   3.705 -0.1272  0.1012 -0.0401
 9152TIP3    H148947   5.985   5.493   3.664  0.7158  1.2232  0.9549
 9152TIP3    H248948   5.854   5.433   3.712  0.6254 -0.4438 -1.2257
 9153TIP3   OH248949   2.624   5.293  12.893  0.2922  0.3803 -0.3766
 9153TIP3    H148950   2.697   5.307  12.832 -0.5839 -1.0404 -1.8413
 9153TIP3    H248951   2.546   5.295  12.837 -0.4549 -2.2471  0.4495
 9154TIP3   OH248952   0.288   0.477   2.833 -0.0507  0.1880 -0.3079
 9154TIP3    H148953   0.289   0.559   2.783 -1.3228  0.1310 -0.4612
 9154TIP3    H248954   0.199   0.443   2.821  0.7702 -1.8014 -1.1823
 9155TIP3   OH248955   3.133   0.265   2.455  0.3354 -0.2855  0.1862
 9155TIP3    H148956   3.161   0.268   2.546  0.6222  1.1729  0.0765
 9155TIP3    H248957   3.089   0.348   2.440  1.5041  0.1051 -1.3560
 9156TIP3   OH248958   3.137   3.395   4.375 -0.1562 -0.1674  0.0079
 9156TIP3    H148959   3.106   3.314   4.416 -0.6094  0.1678  0.3403
 9156TIP3    H248960   3.060   3.451   4.372  0.5374  0.9103  1.3866
 9157TIP3   OH248961   1.668   5.372   3.866 -0.1748 -0.7002  0.4671
 9157TIP3    H148962   1.677   5.277   3.872 -0.1872 -0.7491 -0.2327
 9157TIP3    H248963   1.574   5.388   3.880 -0.0105 -0.6981  1.6232
 9158TIP3   OH248964   0.510   5.824   2.207  0.4637 -0.1847 -0.6892
 9158TIP3    H148965   0.478   5.787   2.125 -0.0817 -0.6446 -0.2748
 9158TIP3    H248966   0.450   5.896   2.225  0.3017 -0.3790 -0.4541
 9159TIP3   OH248967   3.186   5.306  16.144 -0.3476 -0.0367  0.1646
 9159TIP3    H148968   3.188   5.284  16.050  2.9273  1.3012 -0.2187
 9159TIP3    H248969   3.146   5.229  16.185  1.0544 -2.1242 -2.0591
 9160TIP3   OH248970   3.129   0.062   3.691  0.2052 -0.4796 -0.2369
 9160TIP3    H148971   3.157  -0.022   3.656 -1.9695 -1.0789 -0.7120
 9160TIP3    H248972   3.099   0.043   3.780  1.2935  0.1380  0.2770
 9161TIP3   OH248973   4.155   3.632   5.227 -0.0330 -0.1751 -0.6571
 9161TIP3    H148974   4.119   3.682   5.300 -0.5638  0.2621 -1.1989
 9161TIP3    H248975   4.207   3.563   5.268 -1.9240 -1.1733  0.1869
 9162TIP3   OH248976   3.894   6.762  12.180 -0.3574  0.0069 -0.0263
 9162TIP3    H148977   3.850   6.750  12.265 -1.2580  1.2630 -0.2842
 9162TIP3    H248978   3.840   6.712  12.119 -0.4740  0.1794 -0.0663
 9163TIP3   OH248979   5.377   2.866   5.919 -0.2101  0.3420  0.4450
 9163TIP3    H148980   5.450   2.871   5.980 -0.0477 -1.4366  0.4452
 9163TIP3    H248981   5.316   2.934   5.949 -0.2860 -0.6779  2.8297
 9164TIP3   OH248982   6.306   2.302   2.771  0.1010  0.9103 -0.1470
 9164TIP3    H148983   6.262   2.354   2.704 -0.2777  0.6818 -0.0779
 9164TIP3    H248984   6.272   2.336   2.854 -1.6513 -0.7379 -0.1384
 9165TIP3   OH248985   0.572   0.204   0.481  0.2700  0.3755  0.5148
 9165TIP3    H148986   0.494   0.200   0.536 -0.4861 -0.6145 -0.5778
 9165TIP3    H248987   0.569   0.123   0.430  1.7949  0.5267  0.1475
 9166TIP3   OH248988   3.701   1.499   0.773  0.5339  0.5674  0.5962
 9166TIP3    H148989   3.769   1.458   0.826  0.4607 -0.3194  0.0307
 9166TIP3    H248990   3.619   1.463   0.807  0.5209 -0.5327 -0.5113
 9167TIP3   OH248991   5.732   2.909  16.921 -0.0806  0.1564 -0.0407
 9167TIP3    H148992   5.797   2.976  16.944  0.7718  0.2108 -2.3460
 9167TIP3    H248993   5.724   2.855  17.000  1.2800  1.3176  0.9540
 9168TIP3   OH248994   3.457   4.611  10.781  0.5568  0.7019 -0.1712
 9168TIP3    H148995   3.401   4.619  10.858 -0.7606 -0.4236 -0.9746
 9168TIP3    H248996   3.517   4.685  10.788  0.8251  0.3518  2.2050
 9169TIP3   OH248997   2.169   0.437   3.170  0.5103  0.2634 -0.1118
 9169TIP3    H148998   2.170   0.424   3.076  1.3822 -0.9937  0.0533
 9169TIP3    H248999   2.083   0.476   3.188 -0.5223 -1.4007 -1.1902
 9170TIP3   OH249000   5.079   2.417  14.476 -0.2945 -0.2296  0.3844
 9170TIP3    H149001   5.039   2.502  14.491 -0.1219 -0.6145  3.7832
 9170TIP3    H249002   5.171   2.430  14.500 -0.0342 -1.1446 -0.0792
 9171TIP3   OH249003   1.539   4.532  12.280 -0.3538  0.1510  0.0384
 9171TIP3    H149004   1.554   4.620  12.315 -2.2664 -0.3329  2.3898
 9171TIP3    H249005   1.503   4.546  12.193  1.4079  1.5903 -0.5039
 9172TIP3   OH249006   6.836   6.029   3.754 -0.0187  0.1406  0.6087
 9172TIP3    H149007   6.795   6.111   3.727  2.0819  1.2414  0.5352
 9172TIP3    H249008   6.765   5.965   3.753 -0.9923  0.9969 -3.4717
 9173TIP3   OH249009   6.188   6.503  15.072  0.2000  0.0371  0.1368
 9173TIP3    H149010   6.184   6.418  15.029  1.7149 -1.1808  2.2303
 9173TIP3    H249011   6.098   6.521  15.100 -0.1744 -0.7338 -0.5392
 9174TIP3   OH249012   0.421   3.863  15.448 -0.5579  0.6793 -0.2526
 9174TIP3    H149013   0.482   3.841  15.378 -2.0532 -0.9345 -1.1170
 9174TIP3    H249014   0.392   3.952  15.427 -1.9606 -0.2191 -2.5116
 9175TIP3   OH249015   2.373   0.439   5.520 -0.8813  0.4354 -1.0749
 9175TIP3    H149016   2.463   0.470   5.515 -0.5178 -0.5791 -1.0458
 9175TIP3    H249017   2.337   0.482   5.598  0.2635 -0.8252  0.2000
 9176TIP3   OH249018   0.354   1.003  16.945 -0.2670 -0.2640 -0.3859
 9176TIP3    H149019   0.409   1.064  16.994 -0.7120 -0.0658 -0.1373
 9176TIP3    H249020   0.267   1.013  16.982  0.0861 -2.8761  1.4618
 9177TIP3   OH249021   0.605   6.863  15.359 -0.0219 -0.0223  0.1082
 9177TIP3    H149022   0.548   6.787  15.374  0.3846 -0.7913 -1.9258
 9177TIP3    H249023   0.545   6.937  15.353 -0.6656 -0.5792 -0.4204
 9178TIP3   OH249024   0.389   2.136  12.532  0.9039  0.2542  1.0620
 9178TIP3    H149025   0.381   2.073  12.461  1.5979  1.4318 -0.1029
 9178TIP3    H249026   0.402   2.082  12.610  0.6279 -1.0535  0.2447
 9179TIP3   OH249027   1.802   2.349   3.338  0.0887 -0.3689 -0.4266
 9179TIP3    H149028   1.825   2.264   3.301 -0.3986 -0.9240  0.5315
 9179TIP3    H249029   1.706   2.353   3.331  0.0751 -0.0734 -0.0948
 9180TIP3   OH249030   2.443   2.360  13.931 -0.1269 -0.3183 -0.5948
 9180TIP3    H149031   2.383   2.295  13.969  0.8219 -0.5932  0.4770
 9180TIP3    H249032   2.423   2.441  13.976 -0.5193 -0.1171 -1.1167
 9181TIP3   OH249033   4.204   0.684   4.655 -0.2267  0.3291 -0.3612
 9181TIP3    H149034   4.191   0.777   4.675 -0.4539 -0.0589  1.4783
 9181TIP3    H249035   4.215   0.681   4.560  0.5417  2.3174 -0.3744
 9182TIP3   OH249036   5.556   5.465   5.046  0.1357  0.0997  0.1944
 9182TIP3    H149037   5.615   5.475   5.121 -0.6761 -1.2882  1.0638
 9182TIP3    H249038   5.581   5.382   5.006  1.0093  1.1436 -1.5333
 9183TIP3   OH249039   3.659   4.445  13.142  0.5027 -0.2804 -0.1329
 9183TIP3    H149040   3.740   4.435  13.193  0.8198  0.7771 -0.4136
 9183TIP3    H249041   3.590   4.447  13.208  0.9388  1.3897  0.3273
 9184TIP3   OH249042   1.139   0.560   4.490  0.0236 -0.8241  0.3260
 9184TIP3    H149043   1.161   0.575   4.582  0.2596  0.0301  0.1410
 9184TIP3    H249044   1.186   0.480   4.466  0.8894 -0.4118  0.6336
 9185TIP3   OH249045   6.452   3.939   0.944  1.0184  0.2021 -0.3647
 9185TIP3    H149046   6.506   3.955   0.867 -0.2015  1.0794 -1.0798
 9185TIP3    H249047   6.427   4.026   0.975  0.5443 -0.1673  0.3393
 9186TIP3   OH249048   0.916   1.486  17.013  0.1966  0.0667 -0.0756
 9186TIP3    H149049   0.923   1.548  16.940 -0.6399 -0.5818 -0.7295
 9186TIP3    H249050   0.866   1.413  16.977 -1.5780  0.3986  1.5653
 9187TIP3   OH249051   6.270   4.058  10.705  0.0090  0.7366 -0.3215
 9187TIP3    H149052   6.313   4.129  10.753  0.3266  2.3253 -2.7862
 9187TIP3    H249053   6.176   4.075  10.716  0.0519  0.2849  0.8232
 9188TIP3   OH249054   2.033   1.283   3.389 -0.0048 -0.2362 -0.0425
 9188TIP3    H149055   2.104   1.224   3.412  0.2209  0.4338  1.0363
 9188TIP3    H249056   1.987   1.238   3.318  0.4050 -1.5054  0.4667
 9189TIP3   OH249057   2.995   3.989  12.283  0.1062  0.0604  0.3514
 9189TIP3    H149058   2.903   3.964  12.291  0.1934 -0.1089  0.8946
 9189TIP3    H249059   2.993   4.083  12.266 -0.1389  0.2996  1.5952
 9190TIP3   OH249060   3.321   5.944  12.912 -0.1940  0.3274 -0.6857
 9190TIP3    H149061   3.365   5.922  12.829 -1.4021 -2.5629 -0.6904
 9190TIP3    H249062   3.228   5.931  12.893 -0.4085 -2.0714  1.4846
 9191TIP3   OH249063   3.158   2.381   5.262  0.0196  0.5847  0.1633
 9191TIP3    H149064   3.225   2.443   5.293 -0.3980  0.9548  0.3347
 9191TIP3    H249065   3.202   2.296   5.264  1.3805  1.1223 -2.3156
 9192TIP3   OH249066   3.536   6.652   5.336 -0.0504 -0.0234 -0.7234
 9192TIP3    H149067   3.576   6.733   5.368 -1.2863  0.6502 -0.8079
 9192TIP3    H249068   3.541   6.659   5.241  2.5251 -1.4657 -0.7821
 9193TIP3   OH249069   3.046   4.710   2.433 -0.0151  0.2003 -0.0893
 9193TIP3    H149070   3.141   4.700   2.419 -0.0572  0.0276 -0.2583
 9193TIP3    H249071   3.039   4.775   2.503  0.2257  0.3558 -0.2055
 9194TIP3   OH249072   6.021   6.188   2.697  0.2147  0.5149 -0.2854
 9194TIP3    H149073   6.076   6.209   2.621  3.2109  1.0631  1.8495
 9194TIP3    H249074   5.982   6.272   2.722 -0.8227  0.3235 -1.1840
 9195TIP3   OH249075   6.329   3.177   0.847 -0.0662 -0.6373  0.9507
 9195TIP3    H149076   6.337   3.200   0.940  0.0893  1.4066  0.4811
 9195TIP3    H249077   6.243   3.210   0.822  0.9226  1.2229 -0.2090
 9196TIP3   OH249078   6.803   1.314  14.247 -0.5552 -0.1825 -0.2775
 9196TIP3    H149079   6.847   1.331  14.330 -1.8347  0.9917  0.1937
 9196TIP3    H249080   6.872   1.322  14.181  0.2420  0.0528  0.5714
 9197TIP3   OH249081   1.813   5.299   2.504  0.0645  0.1407 -0.5217
 9197TIP3    H149082   1.802   5.314   2.410 -0.3201  1.0389 -0.3470
 9197TIP3    H249083   1.731   5.257   2.531  0.4673 -0.7746 -0.7146
 9198TIP3   OH249084   1.794   2.643  14.427 -0.0740  0.2621 -0.0568
 9198TIP3    H149085   1.708   2.655  14.386 -0.8091  0.4727  1.4972
 9198TIP3    H249086   1.775   2.624  14.519  1.5607  0.5766  0.3756
 9199TIP3   OH249087   0.498   6.435  13.384 -0.0686 -1.0001  0.2083
 9199TIP3    H149088   0.477   6.458  13.474 -1.7595  3.2189 -1.0058
 9199TIP3    H249089   0.571   6.493  13.361 -1.2926 -0.1371 -1.7601
 9200TIP3   OH249090   3.545   4.503   4.199  0.0373  0.0379  0.0671
 9200TIP3    H149091   3.593   4.431   4.240 -0.8308  0.3470  1.7314
 9200TIP3    H249092   3.612   4.555   4.154  1.2467  0.2419  1.9804
 9201TIP3   OH249093   2.666   0.504  11.162  0.6672  0.4422  0.1217
 9201TIP3    H149094   2.654   0.471  11.073  0.1721 -0.2772  0.4354
 9201TIP3    H249095   2.689   0.426  11.213 -0.5525  0.5455  0.8907
 9202TIP3   OH249096   4.518   0.121  10.296 -0.1069 -0.6313  0.5756
 9202TIP3    H149097   4.512   0.151  10.387 -0.0027 -1.0978  0.7348
 9202TIP3    H249098   4.518   0.202  10.245  1.1814 -0.2942  1.0645
 9203TIP3   OH249099   2.295   5.689   4.101  0.0665 -0.4732  0.2890
 9203TIP3    H149100   2.333   5.751   4.163 -0.9057  1.3355 -0.8367
 9203TIP3    H249101   2.204   5.718   4.091  0.3644 -0.2515 -2.4599
 9204TIP3   OH249102   6.720   3.591   3.856 -0.0089  0.3700 -0.4568
 9204TIP3    H149103   6.769   3.593   3.938  1.3545 -2.0624 -1.1209
 9204TIP3    H249104   6.773   3.644   3.796 -1.2098  2.4824  0.2608
 9205TIP3   OH249105   1.689   0.999  14.474 -0.4247 -0.4689  0.1334
 9205TIP3    H149106   1.652   0.935  14.414 -1.7700  0.0703  0.3418
 9205TIP3    H249107   1.766   0.956  14.511 -0.5098 -1.4241 -0.7547
 9206TIP3   OH249108   4.177   6.357  16.436 -0.0852 -0.3752  0.0730
 9206TIP3    H149109   4.139   6.400  16.359 -1.2785 -0.2593  0.6956
 9206TIP3    H249110   4.213   6.275  16.402  1.4089  0.6450 -0.9702
 9207TIP3   OH249111   3.534   0.559  13.887 -0.2177 -0.3024  0.1808
 9207TIP3    H149112   3.470   0.610  13.937 -0.6131  0.6300 -1.2109
 9207TIP3    H249113   3.483   0.519  13.817  0.1341 -2.4531  1.0944
 9208TIP3   OH249114   3.265   6.741   0.958 -0.1387  0.4726  0.5159
 9208TIP3    H149115   3.248   6.649   0.941  1.1483 -0.1416  2.2509
 9208TIP3    H249116   3.324   6.768   0.888  1.6282 -0.8097  1.4147
 9209TIP3   OH249117   5.438   2.991   3.173 -0.3964  0.5350 -0.1150
 9209TIP3    H149118   5.432   3.066   3.233 -0.5859 -1.4370  2.4758
 9209TIP3    H249119   5.497   2.930   3.217 -2.3959 -2.0235 -0.7825
 9210TIP3   OH249120   5.748   5.474   4.391  0.1935 -0.0457 -0.5994
 9210TIP3    H149121   5.688   5.507   4.458  0.8433  0.3363 -0.1920
 9210TIP3    H249122   5.728   5.380   4.385  1.4519 -0.5329  1.6012
 9211TIP3   OH249123   2.926   4.473  13.046  0.2847  0.4374 -0.3584
 9211TIP3    H149124   2.868   4.518  12.985 -0.6877 -0.1248  0.1223
 9211TIP3    H249125   3.014   4.501  13.022 -0.0927  0.3176 -1.9360
 9212TIP3   OH249126   3.666   4.922  11.919  0.3380 -0.8655  0.4300
 9212TIP3    H149127   3.688   4.963  11.835  1.5214 -0.3574  0.9607
 9212TIP3    H249128   3.741   4.867  11.939  0.5770 -0.1196  1.6737
 9213TIP3   OH249129   0.874   4.663   5.023 -0.9002 -0.8014 -0.0617
 9213TIP3    H149130   0.956   4.630   5.060  0.5809  1.7221 -0.8897
 9213TIP3    H249131   0.821   4.584   5.011  1.2002 -2.4831  0.9057
 9214TIP3   OH249132   4.954   0.954  13.894 -0.5985 -0.0597 -0.2076
 9214TIP3    H149133   5.045   0.924  13.904 -0.3565 -0.3636 -2.6669
 9214TIP3    H249134   4.901   0.880  13.922 -0.0499 -0.5451 -0.4332
 9215TIP3   OH249135   4.879   5.374  14.591  0.3274  0.8654  0.1182
 9215TIP3    H149136   4.908   5.288  14.559  1.2124  0.1561  2.6483
 9215TIP3    H249137   4.959   5.426  14.597  0.2039  0.9337  1.2525
 9216TIP3   OH249138   5.969   4.129  13.004  0.0870 -0.4267 -0.7237
 9216TIP3    H149139   6.030   4.200  13.021  0.4697 -1.2925  2.0648
 9216TIP3    H249140   6.013   4.074  12.940  1.5862 -0.2158  0.0852
 9217TIP3   OH249141   1.418   5.148  16.657  0.3182 -0.1390  0.1572
 9217TIP3    H149142   1.424   5.077  16.721  0.0841  1.2411  1.7902
 9217TIP3    H249143   1.411   5.104  16.573 -1.9555 -2.1139  1.2513
 9218TIP3   OH249144   3.695   6.012   2.478  0.2188  0.2011  0.1594
 9218TIP3    H149145   3.777   6.061   2.481  0.2444  0.2160 -0.5309
 9218TIP3    H249146   3.711   5.942   2.414 -0.1651 -0.0578  0.3406
 9219TIP3   OH249147   2.619   4.533  12.905 -0.3555  0.0035 -0.0045
 9219TIP3    H149148   2.686   4.537  12.836 -0.2908 -1.0215 -0.0228
 9219TIP3    H249149   2.640   4.605  12.964  0.2228  0.2444 -0.4932
 9220TIP3   OH249150   3.330   0.437  12.642  0.4189 -0.2905  0.1408
 9220TIP3    H149151   3.319   0.414  12.550  0.1248  0.6181 -0.0681
 9220TIP3    H249152   3.419   0.470  12.648  0.4729 -0.4478  0.2030
 9221TIP3   OH249153   1.158   1.285  15.308 -0.1796 -0.1012  0.4104
 9221TIP3    H149154   1.200   1.208  15.345 -0.3768 -1.0331 -1.2094
 9221TIP3    H249155   1.135   1.259  15.219 -0.7930  1.6370  0.0255
 9222TIP3   OH249156   2.296   0.753  15.867  0.3363 -0.2188  0.0867
 9222TIP3    H149157   2.201   0.754  15.878  0.4151  0.1336  0.8104
 9222TIP3    H249158   2.314   0.671  15.822 -0.3394 -0.1513 -0.3141
 9223TIP3   OH249159   2.651   0.970  12.805  0.5269 -0.2287  0.2344
 9223TIP3    H149160   2.574   0.992  12.858  0.0016 -2.8922  0.7139
 9223TIP3    H249161   2.724   0.971  12.868  0.4854 -0.1153  0.2827
 9224TIP3   OH249162   4.720   0.529   3.593 -0.1195  0.3693 -0.0231
 9224TIP3    H149163   4.761   0.590   3.531  0.2895  1.0013  0.8363
 9224TIP3    H249164   4.630   0.560   3.600 -1.1128 -1.5924 -2.6373
 9225TIP3   OH249165   4.507   0.869  12.254  0.3014  0.1048  0.3001
 9225TIP3    H149166   4.486   0.782  12.287  1.4408 -0.4975 -0.4891
 9225TIP3    H249167   4.516   0.923  12.332 -1.0853 -0.2964  0.7840
 9226TIP3   OH249168   5.244   2.202   2.399  0.3019  0.1908 -0.1152
 9226TIP3    H149169   5.203   2.254   2.330  1.8541  2.1666  0.3791
 9226TIP3    H249170   5.324   2.167   2.359 -0.1752 -0.9581 -0.1090
 9227TIP3   OH249171   1.217   0.747   0.433 -0.1256 -0.1255 -0.4204
 9227TIP3    H149172   1.140   0.797   0.405 -1.0384 -1.4726 -0.4342
 9227TIP3    H249173   1.181   0.676   0.486  1.2548  0.0698  0.8165
 9228TIP3   OH249174   4.785   4.202   6.362  0.3668  0.1744  0.9165
 9228TIP3    H149175   4.702   4.164   6.390  0.5457 -1.4903 -0.6361
 9228TIP3    H249176   4.852   4.147   6.403  0.6366 -0.8359 -0.7820
 9229TIP3   OH249177   0.743   4.941   3.215 -0.5890 -0.9324  0.0917
 9229TIP3    H149178   0.725   5.006   3.283 -0.6196  0.2360 -0.9889
 9229TIP3    H249179   0.664   4.887   3.211 -0.7537 -0.7355  0.6831
 9230TIP3   OH249180   0.772   1.041  16.796 -0.0684 -0.3420  0.5870
 9230TIP3    H149181   0.811   1.070  16.713 -0.9517 -1.1458 -0.1400
 9230TIP3    H249182   0.722   1.117  16.826 -0.2445 -0.2391  0.0555
 9231TIP3   OH249183   0.644   5.285  11.700 -0.4619  0.0072 -0.5518
 9231TIP3    H149184   0.556   5.249  11.688 -0.7433  0.2483  0.6359
 9231TIP3    H249185   0.651   5.299  11.795  0.8153  0.1008 -0.6446
 9232TIP3   OH249186   2.503   3.075   0.354 -0.4938 -0.1653  0.2732
 9232TIP3    H149187   2.487   3.163   0.321 -1.2502 -0.7765 -1.0625
 9232TIP3    H249188   2.434   3.061   0.418 -1.1787 -0.2626 -0.4761
 9233TIP3   OH249189   6.554   6.007  14.268  0.3797  0.0548  0.1702
 9233TIP3    H149190   6.574   6.050  14.185  0.7364 -0.1707  0.1387
 9233TIP3    H249191   6.465   6.036  14.288  0.7340  1.0723  0.3198
 9234TIP3   OH249192   0.604   0.141  12.559 -0.1018  0.1702  0.4867
 9234TIP3    H149193   0.531   0.181  12.606 -0.5365  0.1151 -0.1326
 9234TIP3    H249194   0.682   0.184  12.594 -0.5057  0.9900  0.3876
 9235TIP3   OH249195   6.058   6.755   4.884 -0.3424 -0.0021  0.5177
 9235TIP3    H149196   6.026   6.711   4.962  1.1123 -0.5452  0.8418
 9235TIP3    H249197   6.038   6.847   4.898  0.7626  0.0462  2.0088
 9236TIP3   OH249198   3.986   3.445   1.127  0.6644 -1.0053 -0.2159
 9236TIP3    H149199   3.920   3.407   1.070 -0.2062  1.8638 -1.3135
 9236TIP3    H249200   4.041   3.497   1.068  1.8682 -0.6827  1.1392
 9237TIP3   OH249201   5.759   3.794  16.260 -0.3456 -0.1396 -0.2763
 9237TIP3    H149202   5.820   3.755  16.197  0.6886  2.9881 -1.3921
 9237TIP3    H249203   5.679   3.808  16.210 -0.4242 -0.0816 -0.1356
 9238TIP3   OH249204   4.940   5.573   0.670 -0.1370  0.2957 -0.0943
 9238TIP3    H149205   4.978   5.655   0.639 -1.8754  1.2574  0.1428
 9238TIP3    H249206   4.850   5.596   0.693 -0.8581 -1.8158 -0.5646
 9239TIP3   OH249207   1.897   5.721   1.529 -0.2793 -0.1774 -0.4776
 9239TIP3    H149208   1.830   5.652   1.534 -0.5573  0.1308  0.2478
 9239TIP3    H249209   1.847   5.801   1.512 -0.1175  0.0718  0.1675
 9240TIP3   OH249210   2.120   0.529  15.453  0.6415  0.1427  0.1869
 9240TIP3    H149211   2.046   0.495  15.403  0.7269 -0.0734  0.2070
 9240TIP3    H249212   2.080   0.570  15.530  0.4574  1.1394 -0.4219
 9241TIP3   OH249213   0.298   2.930   1.101 -0.0013 -0.8358  0.5759
 9241TIP3    H149214   0.206   2.930   1.127 -0.2457  1.0746 -0.1070
 9241TIP3    H249215   0.300   2.980   1.019  1.7429 -0.0940  1.0136
 9242TIP3   OH249216   1.770   4.908   5.266  0.5179  0.0770 -0.0697
 9242TIP3    H149217   1.797   4.943   5.351  0.1258 -1.1336  0.5789
 9242TIP3    H249218   1.817   4.961   5.202  0.6544  1.1548  0.8936
 9243TIP3   OH249219   3.258   0.748  16.618  0.2387 -0.0786 -0.2688
 9243TIP3    H149220   3.254   0.697  16.537  0.3750 -0.9615  0.2769
 9243TIP3    H249221   3.342   0.793  16.614 -0.3703  1.0500 -1.2965
 9244TIP3   OH249222   6.341   3.303  16.306  0.2767  0.4449 -0.1286
 9244TIP3    H149223   6.427   3.317  16.265  0.0608  2.7760  0.1252
 9244TIP3    H249224   6.327   3.208  16.298  1.4457  0.4146 -3.0201
 9245TIP3   OH249225   6.321   1.217  13.829 -0.0177 -0.4527  0.1684
 9245TIP3    H149226   6.374   1.258  13.760 -2.1468 -0.2524 -1.4459
 9245TIP3    H249227   6.349   1.261  13.909  1.0992  0.7826 -0.8460
 9246TIP3   OH249228   3.791   5.684  16.050 -1.0325  0.3226  0.7021
 9246TIP3    H149229   3.762   5.615  16.110  0.8249  1.2844  2.8743
 9246TIP3    H249230   3.833   5.748  16.107 -0.1246  1.8473 -1.5654
 9247TIP3   OH249231   3.124   2.306  15.970 -0.1468 -0.2227  0.0650
 9247TIP3    H149232   3.212   2.340  15.982 -1.1176  3.2121 -1.2768
 9247TIP3    H249233   3.094   2.286  16.059  0.2885  3.5167  1.2346
 9248TIP3   OH249234   1.672   2.356  17.031 -0.0003 -0.0968 -0.0909
 9248TIP3    H149235   1.621   2.427  16.991  0.5541  0.3300 -0.0663
 9248TIP3    H249236   1.679   2.381  17.123  1.0270  0.3452 -0.2664
 9249TIP3   OH249237   5.069   4.227   0.405 -0.1657  0.6990 -0.2240
 9249TIP3    H149238   5.137   4.263   0.462  0.5255  1.3685 -1.4293
 9249TIP3    H249239   5.063   4.290   0.333 -3.0267  1.3927  0.4885
 9250TIP3   OH249240   1.409   2.991   2.101  0.0987 -0.4279  0.1886
 9250TIP3    H149241   1.460   2.968   2.023  0.1227  1.2159 -0.3312
 9250TIP3    H249242   1.320   3.005   2.068 -0.3008 -1.4757  0.7792
 9251TIP3   OH249243   2.048   1.292  13.650  0.0919  0.2731 -0.5650
 9251TIP3    H149244   2.050   1.299  13.554 -1.0042 -1.5021 -0.7551
 9251TIP3    H249245   1.958   1.314  13.674 -0.3892 -1.8620 -0.2306
 9252TIP3   OH249246   1.089   4.834  10.758 -0.0875 -0.4857 -0.3125
 9252TIP3    H149247   1.068   4.859  10.668  0.0031  1.4229  0.1635
 9252TIP3    H249248   1.113   4.916  10.801 -1.7942 -1.0413  1.9094
 9253TIP3   OH249249   0.652   3.955  11.589 -0.1228 -0.0277 -0.2163
 9253TIP3    H149250   0.718   4.019  11.561  1.9541 -2.3315 -0.8560
 9253TIP3    H249251   0.575   3.977  11.536  1.8408 -0.5411 -3.5595
 9254TIP3   OH249252   0.726   6.138  11.464  0.0583  0.2402  0.8852
 9254TIP3    H149253   0.815   6.111  11.443 -0.6640 -2.1837  0.5997
 9254TIP3    H249254   0.723   6.231  11.442  2.0121 -0.0172 -0.7461
 9255TIP3   OH249255   2.927   4.943  13.104 -0.0390 -0.3729 -0.3108
 9255TIP3    H149256   2.851   4.981  13.060  0.4542  0.0908 -0.7821
 9255TIP3    H249257   2.901   4.935  13.196 -0.1253  1.2213 -0.1744
 9256TIP3   OH249258   3.589   2.697   5.272 -0.0337 -0.5406  0.0216
 9256TIP3    H149259   3.578   2.739   5.358  0.5654 -0.3393  0.0019
 9256TIP3    H249260   3.682   2.707   5.252 -0.5696  1.7083 -1.8287
 9257TIP3   OH249261   4.534   1.051  10.746 -0.3552 -0.1878 -0.4901
 9257TIP3    H149262   4.626   1.045  10.722  0.0638 -0.5086  1.0981
 9257TIP3    H249263   4.492   1.092  10.671  1.2587  0.9399 -0.8073
 9258TIP3   OH249264   5.071   6.192   1.207 -0.3972  0.1034 -0.2046
 9258TIP3    H149265   5.029   6.108   1.189 -0.4144  0.1237 -0.2602
 9258TIP3    H249266   5.065   6.239   1.124 -1.2574  0.5433  0.0962
 9259TIP3   OH249267   4.512   1.582  10.724  0.0671 -0.2861  0.1327
 9259TIP3    H149268   4.568   1.571  10.647  0.1345 -0.5625  0.2215
 9259TIP3    H249269   4.480   1.672  10.717  1.5856  0.3349  0.7929
 9260TIP3   OH249270   4.062   1.271   0.277  0.0812 -0.0470 -0.0311
 9260TIP3    H149271   4.021   1.300   0.195 -0.7300  0.1785  0.4429
 9260TIP3    H249272   4.113   1.347   0.306 -0.7889  0.3855  0.4052
 9261TIP3   OH249273   0.499   3.699  13.370 -0.4098 -0.2224 -0.6857
 9261TIP3    H149274   0.566   3.713  13.437 -3.0157 -0.1129  2.1087
 9261TIP3    H249275   0.525   3.617  13.327  1.8426  0.1831 -0.2082
 9262TIP3   OH249276   0.912   4.473   2.736  0.5184  0.2191  0.2126
 9262TIP3    H149277   0.937   4.560   2.767 -1.4237  0.8757  0.0807
 9262TIP3    H249278   0.950   4.413   2.799  1.4027  1.1969  0.6379
 9263TIP3   OH249279   2.357   1.175  14.008  0.1994 -0.2728  0.1493
 9263TIP3    H149280   2.344   1.267  13.984 -0.1856 -0.5714 -0.8809
 9263TIP3    H249281   2.433   1.147  13.956 -0.4975 -0.8742 -0.5804
 9264TIP3   OH249282   0.546   2.196   3.670  0.3121 -0.3249  0.4574
 9264TIP3    H149283   0.493   2.267   3.635 -0.2937 -0.4388  1.1076
 9264TIP3    H249284   0.538   2.126   3.606  0.9031  0.1809 -0.1802
 9265TIP3   OH249285   1.471   2.581   1.625 -0.5608  0.2946  0.3118
 9265TIP3    H149286   1.495   2.519   1.694  1.2280 -1.6114 -1.8509
 9265TIP3    H249287   1.382   2.555   1.600 -0.1943 -0.8140  0.0998
 9266TIP3   OH249288   5.069   1.823   2.672  0.1814  0.4484  0.2375
 9266TIP3    H149289   4.993   1.838   2.615  0.6662  0.6729 -0.3662
 9266TIP3    H249290   5.140   1.803   2.611  0.8863  1.4122  0.7186
 9267TIP3   OH249291   5.651   2.611  11.885 -0.4077  0.4454  0.5156
 9267TIP3    H149292   5.677   2.521  11.867 -0.5019  0.2844  1.1671
 9267TIP3    H249293   5.618   2.644  11.801 -0.2893 -0.0955  0.2546
 9268TIP3   OH249294   1.020   3.920  16.000 -0.0720  0.2912  0.2986
 9268TIP3    H149295   0.977   3.882  15.923 -1.9643  0.7263  1.0933
 9268TIP3    H249296   1.110   3.937  15.971  0.0652 -2.1122 -0.9562
 9269TIP3   OH249297   1.147   1.495  11.262  0.1955  0.8124  0.6667
 9269TIP3    H149298   1.136   1.583  11.226  0.6283  0.7297  0.3230
 9269TIP3    H249299   1.100   1.498  11.346 -1.8770  0.6365 -0.4324
 9270TIP3   OH249300   0.746   0.324   4.838  0.3183 -0.4408 -0.0717
 9270TIP3    H149301   0.765   0.366   4.754  0.2957  0.0242  0.1503
 9270TIP3    H249302   0.756   0.230   4.821  3.1364 -0.2622  0.0880
 9271TIP3   OH249303   4.397   2.578   1.855  0.6956  0.6039  0.5561
 9271TIP3    H149304   4.448   2.557   1.933  1.4942  1.3374  0.2495
 9271TIP3    H249305   4.370   2.669   1.868 -0.9384  0.0964  0.9168
 9272TIP3   OH249306   5.320   3.351  17.023 -0.4587  0.2780  0.0037
 9272TIP3    H149307   5.324   3.340  17.118 -0.2547  1.1447  0.1024
 9272TIP3    H249308   5.236   3.395  17.008 -0.8056 -0.4692 -0.2868
 9273TIP3   OH249309   4.332   1.890   2.738 -0.3271 -0.1261  0.4199
 9273TIP3    H149310   4.364   1.972   2.700 -2.6676  0.0171 -1.4873
 9273TIP3    H249311   4.255   1.917   2.790 -0.0343 -0.9307  1.2998
 9274TIP3   OH249312   1.277   0.040   4.364 -0.4785 -0.2903 -0.2232
 9274TIP3    H149313   1.256   0.045   4.271 -1.7486 -0.7027  0.0252
 9274TIP3    H249314   1.333  -0.037   4.373  0.9742  0.6438 -0.8486
 9275TIP3   OH249315   2.199   5.317  16.747  0.1407  0.5693  0.1470
 9275TIP3    H149316   2.216   5.254  16.816  0.8380  0.4024 -0.1687
 9275TIP3    H249317   2.264   5.386  16.761  0.1005  0.6728 -0.1714
 9276TIP3   OH249318   1.564   1.590   1.372 -0.1412 -0.2660  0.2704
 9276TIP3    H149319   1.540   1.505   1.406 -0.3955 -0.3407 -0.0809
 9276TIP3    H249320   1.481   1.628   1.343 -0.2391  0.6764  1.6806
 9277TIP3   OH249321   3.839   3.980  17.066 -0.2943  0.5739  0.0677
 9277TIP3    H149322   3.794   3.896  17.063  0.7076  0.0185  0.4727
 9277TIP3    H249323   3.916   3.969  17.011  0.6280  0.7524  1.2924
 9278TIP3   OH249324   2.509   3.593   0.505  0.2432 -0.2842 -0.0158
 9278TIP3    H149325   2.560   3.599   0.586  1.2316 -0.2092 -0.6238
 9278TIP3    H249326   2.437   3.654   0.518 -0.3818 -1.2543  1.3305
 9279TIP3   OH249327   4.809   4.275  11.594  0.3090  0.1404 -0.1403
 9279TIP3    H149328   4.839   4.363  11.618 -0.2914  0.7232 -1.4259
 9279TIP3    H249329   4.868   4.216  11.641  1.7009  1.2361 -0.4377
 9280TIP3   OH249330   6.660   6.301  16.467  0.0205  0.1221 -0.0408
 9280TIP3    H149331   6.720   6.271  16.535 -1.8316 -2.5168  0.5824
 9280TIP3    H249332   6.607   6.368  16.509  1.2404  1.1349 -0.0500
 9281TIP3   OH249333   2.235   1.110  15.715 -0.1075  0.9079  0.6725
 9281TIP3    H149334   2.327   1.127  15.693  0.3688 -0.4410  1.4783
 9281TIP3    H249335   2.235   1.097  15.810 -0.5833 -2.1006  0.3417
 9282TIP3   OH249336   6.471   3.504  13.982  0.5708  0.7985 -0.1498
 9282TIP3    H149337   6.537   3.574  13.980  0.3234  1.0493 -2.1402
 9282TIP3    H249338   6.419   3.519  13.903 -0.1120 -1.0698 -0.0877
 9283TIP3   OH249339   3.921   6.060   6.225 -0.5163 -0.2470  0.2458
 9283TIP3    H149340   3.953   5.973   6.246 -0.5580 -0.3266 -0.0189
 9283TIP3    H249341   3.833   6.046   6.190 -0.2108 -0.1732 -0.5770
 9284TIP3   OH249342   4.765   2.162   2.949 -0.2076  0.1421  0.2423
 9284TIP3    H149343   4.728   2.135   2.865  0.0436  0.2528  0.0947
 9284TIP3    H249344   4.758   2.257   2.948 -0.9996  0.1046  0.7194
 9285TIP3   OH249345   1.982   0.515  16.752  0.3296 -0.5195  0.1340
 9285TIP3    H149346   2.010   0.552  16.668  1.2702 -0.6297  0.3858
 9285TIP3    H249347   1.977   0.590  16.811  1.8838 -0.7082  0.5503
 9286TIP3   OH249348   6.838   1.217   0.380 -0.1898 -0.0266 -0.3310
 9286TIP3    H149349   6.833   1.186   0.289  1.3468 -1.1331 -0.0828
 9286TIP3    H249350   6.917   1.271   0.382  0.7982 -1.4342  0.6974
 9287TIP3   OH249351   5.967   3.816   2.951  0.7774  0.0416  0.4892
 9287TIP3    H149352   6.044   3.812   2.894  0.9536  1.1894  0.6076
 9287TIP3    H249353   6.000   3.797   3.039  1.3600  2.4750  0.8720
 9288TIP3   OH249354   4.034   3.246  12.059  0.1158 -0.5265  0.0132
 9288TIP3    H149355   4.012   3.245  11.965 -0.0826 -0.5296  0.0580
 9288TIP3    H249356   4.087   3.324  12.071  0.5254 -0.7736 -0.1886
 9289TIP3   OH249357   2.688   3.708  14.044 -0.1758 -0.2173 -0.4797
 9289TIP3    H149358   2.647   3.631  14.002 -0.2809 -0.4400  0.0245
 9289TIP3    H249359   2.625   3.735  14.111 -0.8073  1.1908 -1.5866
 9290TIP3   OH249360   4.814   6.153  12.034 -0.5074  0.0791 -0.2050
 9290TIP3    H149361   4.833   6.060  12.044 -0.0289  0.2879  0.8685
 9290TIP3    H249362   4.899   6.196  12.036 -0.4344  0.3553 -3.4433
 9291TIP3   OH249363   5.075   1.992   1.379  0.2456 -0.1900 -0.1203
 9291TIP3    H149364   5.061   1.948   1.295 -0.6658 -0.6865  0.2790
 9291TIP3    H249365   5.170   1.997   1.388  0.3728 -1.4640 -0.5076
 9292TIP3   OH249366   5.885   6.184  14.404  0.7954 -0.5084  0.6679
 9292TIP3    H149367   5.836   6.259  14.438 -0.0883 -0.4787 -0.5903
 9292TIP3    H249368   5.964   6.180  14.458  1.8947  2.6061 -0.4529
 9293TIP3   OH249369   0.206   1.697   2.701 -0.1784  0.0472  0.1018
 9293TIP3    H149370   0.216   1.602   2.696  1.2652 -0.0299  2.5908
 9293TIP3    H249371   0.112   1.711   2.714 -0.4209 -1.0307 -0.4066
 9294TIP3   OH249372   4.566   6.714   0.002 -0.4775 -0.0767  0.1153
 9294TIP3    H149373   4.596   6.724  -0.088  0.5974 -0.7203  0.3870
 9294TIP3    H249374   4.637   6.751   0.055 -0.1109 -1.6632  0.7748
 9295TIP3   OH249375   4.705   0.333  13.910  0.0295  0.4612  0.0470
 9295TIP3    H149376   4.793   0.352  13.942 -0.4745  0.8756  1.2260
 9295TIP3    H249377   4.713   0.340  13.814  1.4713 -0.4027  0.0742
 9296TIP3   OH249378   5.692   3.337  16.580  0.0944 -0.4468  0.3362
 9296TIP3    H149379   5.708   3.243  16.570 -0.0279 -0.4289 -0.0264
 9296TIP3    H249380   5.608   3.352  16.537  0.5658 -0.0083 -0.4488
 9297TIP3   OH249381   6.795   4.310  13.928 -0.3478 -0.5437 -0.0335
 9297TIP3    H149382   6.782   4.335  14.019  0.3178 -2.0180  0.4911
 9297TIP3    H249383   6.706   4.301  13.893 -0.6206 -0.7018  0.6810
 9298TIP3   OH249384   4.087   6.803   0.234  0.3991 -0.0559 -0.0300
 9298TIP3    H149385   4.172   6.831   0.199  0.4355  1.7638  1.3875
 9298TIP3    H249386   4.026   6.871   0.206 -0.5951 -1.2076 -0.8072
 9299TIP3   OH249387   6.596   4.962   0.333 -0.0089  0.3655  0.5307
 9299TIP3    H149388   6.588   5.019   0.409  0.0932 -2.0843  2.5403
 9299TIP3    H249389   6.690   4.954   0.319 -0.0071  0.3253  0.5643
 9300TIP3   OH249390   0.439   3.170   5.652  0.3636  0.0322  0.6320
 9300TIP3    H149391   0.474   3.082   5.662  1.1885  0.2768 -0.0069
 9300TIP3    H249392   0.365   3.160   5.593  0.6456 -0.1912  0.3139
 9301TIP3   OH249393   2.783   4.873   1.706 -0.3887 -0.0447  0.2028
 9301TIP3    H149394   2.815   4.912   1.788  2.0826 -0.1829 -0.6105
 9301TIP3    H249395   2.730   4.942   1.667  0.3716  0.9132  0.8094
 9302TIP3   OH249396   5.047   5.384   5.265  0.3339 -0.2048 -0.0732
 9302TIP3    H149397   5.088   5.343   5.189  0.1164 -0.7857  0.1169
 9302TIP3    H249398   4.953   5.377   5.250  0.2912  0.4109 -0.1312
 9303TIP3   OH249399   4.172   1.162  16.279  0.5150 -1.2030  0.4771
 9303TIP3    H149400   4.105   1.230  16.284  2.5161  0.8692  1.2930
 9303TIP3    H249401   4.128   1.087  16.240 -1.9273  0.4264 -0.1339
 9304TIP3   OH249402   3.373   2.041  16.259 -0.7783  0.6114  0.1190
 9304TIP3    H149403   3.395   2.097  16.185 -2.6568  0.2272 -0.7717
 9304TIP3    H249404   3.371   1.953  16.223  0.1763  0.1672  1.0820
 9305TIP3   OH249405   6.507   4.447   0.697  0.3382 -0.4825  0.5696
 9305TIP3    H149406   6.504   4.440   0.792  0.9858  1.1611  0.7392
 9305TIP3    H249407   6.416   4.433   0.669 -0.0142 -0.1044  1.4921
 9306TIP3   OH249408   4.107   3.889  10.037 -0.1720  0.5438  0.4975
 9306TIP3    H149409   4.166   3.852  10.102 -0.0605  0.6860  0.4785
 9306TIP3    H249410   4.100   3.982  10.061 -2.6353  0.0217  2.2565
 9307TIP3   OH249411   5.216   0.760   2.830  0.7389  0.4709 -0.3071
 9307TIP3    H149412   5.232   0.850   2.801 -0.0048  1.0048  0.8643
 9307TIP3    H249413   5.304   0.722   2.839  1.0599  1.0686 -0.8180
 9308TIP3   OH249414   6.789   4.398   4.995 -0.6203  0.7525  0.7315
 9308TIP3    H149415   6.698   4.376   5.015 -0.9191 -0.5982 -1.7738
 9308TIP3    H249416   6.799   4.487   5.028 -2.1426  0.1613  3.0556
 9309TIP3   OH249417   0.263   5.831   0.581  0.1756  0.0028  0.7468
 9309TIP3    H149418   0.342   5.834   0.636 -0.0855 -0.9603  1.1907
 9309TIP3    H249419   0.211   5.760   0.618 -0.9767  0.7175  0.5463
 9310TIP3   OH249420   1.894   3.932   3.987 -0.7461 -0.3221  0.0884
 9310TIP3    H149421   1.941   3.850   4.002 -0.3081 -0.0949 -0.0209
 9310TIP3    H249422   1.884   3.970   4.074  3.8157  2.1254 -0.1376
 9311TIP3   OH249423   2.703   5.410  13.177  0.5995 -0.1680 -0.6811
 9311TIP3    H149424   2.659   5.405  13.092  1.4089  0.6510 -1.1616
 9311TIP3    H249425   2.633   5.429  13.240  0.0281 -0.5605 -1.1869
 9312TIP3   OH249426   3.095   1.739   9.994  0.1860  0.2296  0.6667
 9312TIP3    H149427   3.054   1.734  10.081  0.7487  0.5586  0.9550
 9312TIP3    H249428   3.188   1.728  10.011  0.6326  2.9565  0.4245
 9313TIP3   OH249429   5.143   3.994   2.821  0.2679  0.3449 -0.5076
 9313TIP3    H149430   5.163   4.078   2.863  0.5135  0.5082 -0.9403
 9313TIP3    H249431   5.227   3.964   2.787  0.4352 -0.7509  0.8357
 9314TIP3   OH249432   0.521   0.935  15.717 -0.4645  0.0665  0.6693
 9314TIP3    H149433   0.487   1.023  15.733  0.3775  0.4387  0.4538
 9314TIP3    H249434   0.485   0.911  15.632 -0.5870  0.2524  0.6672
 9315TIP3   OH249435   5.018   1.616   2.841  0.4613  0.3928  0.2595
 9315TIP3    H149436   5.013   1.645   2.932  2.0312  0.5232  0.3256
 9315TIP3    H249437   5.033   1.697   2.791 -0.9313  0.3983 -0.2038
 9316TIP3   OH249438   3.883   2.484  14.669  0.6093 -0.1795  0.2255
 9316TIP3    H149439   3.862   2.557  14.610  0.3589 -1.3589 -1.2266
 9316TIP3    H249440   3.978   2.480  14.667  0.7662  1.3878  2.0036
 9317TIP3   OH249441   0.756   3.592   5.236  0.4961 -0.1112 -0.8053
 9317TIP3    H149442   0.755   3.688   5.233 -1.3798 -0.0547  0.4211
 9317TIP3    H249443   0.722   3.565   5.151 -0.3819  0.3415 -0.5996
 9318TIP3   OH249444   4.452   6.137  10.794 -0.0270 -0.1393  0.2203
 9318TIP3    H149445   4.522   6.141  10.729  1.2024 -0.3126  1.4822
 9318TIP3    H249446   4.433   6.229  10.814 -0.5119 -0.0810 -0.4601
 9319TIP3   OH249447   6.639   3.514  12.853 -0.0999  0.1445 -0.4293
 9319TIP3    H149448   6.664   3.545  12.766  3.8388  1.7720  1.0591
 9319TIP3    H249449   6.648   3.419  12.848 -0.7435  0.1428 -1.9692
 9320TIP3   OH249450   1.736   2.025   3.540  0.3061 -0.6377 -0.1466
 9320TIP3    H149451   1.809   1.993   3.486 -0.8002  0.7467 -2.6379
 9320TIP3    H249452   1.668   1.958   3.530 -0.3923  0.2409 -1.7105
 9321TIP3   OH249453   4.454   5.047  11.253 -0.2204  0.0095 -0.0662
 9321TIP3    H149454   4.424   5.085  11.170 -0.1295  2.1723  0.8067
 9321TIP3    H249455   4.376   5.009  11.292 -0.4471 -0.2235 -0.7398
 9322TIP3   OH249456   0.146   0.265  11.054  0.5499 -0.0441  0.4817
 9322TIP3    H149457   0.071   0.228  11.007 -1.9786  2.3170  2.2803
 9322TIP3    H249458   0.138   0.228  11.143  0.5231  1.4224  1.1119
 9323TIP3   OH249459   2.991   6.055  10.601  0.1358 -0.0318  0.2088
 9323TIP3    H149460   3.080   6.030  10.574  0.0772  0.6403 -0.6571
 9323TIP3    H249461   2.963   5.983  10.658  1.1588 -0.3479  0.3435
 9324TIP3   OH249462   1.302   1.006   5.389 -0.1808  0.3627 -0.1768
 9324TIP3    H149463   1.365   0.987   5.459 -0.8042 -1.7063 -0.1174
 9324TIP3    H249464   1.353   0.996   5.308  0.2221  1.5058 -0.0922
 9325TIP3   OH249465   3.547   2.402  15.031  0.2993 -0.0123  0.2999
 9325TIP3    H149466   3.520   2.386  14.940  1.3221  1.1441 -0.2288
 9325TIP3    H249467   3.642   2.397  15.030  0.2915 -1.1016  1.5613
 9326TIP3   OH249468   2.381   0.232  13.952  0.0470 -0.2098 -0.3183
 9326TIP3    H149469   2.438   0.277  13.890 -0.8907 -0.8389 -1.6838
 9326TIP3    H249470   2.374   0.143  13.919 -1.8956 -0.0956 -0.3453
 9327TIP3   OH249471   2.799   2.981  14.349  0.2545  0.4632  0.4926
 9327TIP3    H149472   2.859   3.041  14.394  1.9622 -1.5474  1.1052
 9327TIP3    H249473   2.855   2.907  14.324 -1.5652 -0.4731 -1.0093
 9328TIP3   OH249474   1.446   6.394  14.726 -0.3879  0.1931 -0.2220
 9328TIP3    H149475   1.500   6.364  14.800 -0.5856  1.2610  0.3726
 9328TIP3    H249476   1.399   6.316  14.698 -1.2614  0.0061  1.5981
 9329TIP3   OH249477   4.367   5.613  11.569 -0.1375  0.0089  0.3739
 9329TIP3    H149478   4.289   5.572  11.605 -0.6948  1.7959  1.3135
 9329TIP3    H249479   4.365   5.592  11.476 -1.5101 -0.3359  0.4635
 9330TIP3   OH249480   6.127   3.922  15.395  0.1192 -0.2504  0.4834
 9330TIP3    H149481   6.077   3.998  15.364  1.6224  0.3739 -0.5651
 9330TIP3    H249482   6.147   3.943  15.486  0.2944  0.5099  0.2811
 9331TIP3   OH249483   2.880   5.044  16.001 -0.4000 -0.2112  0.2801
 9331TIP3    H149484   2.885   5.007  15.913 -1.9627  1.0574 -0.3876
 9331TIP3    H249485   2.911   5.134  15.991 -0.2138 -0.1783  1.1003
 9332TIP3   OH249486   4.063   5.873  14.135 -0.3237  0.1485  0.1819
 9332TIP3    H149487   4.000   5.824  14.083 -0.1511  1.4810 -1.3778
 9332TIP3    H249488   4.122   5.912  14.071  0.6962  0.8221  1.4675
 9333TIP3   OH249489   2.666   2.512   2.057 -0.5525  0.5660 -0.0543
 9333TIP3    H149490   2.747   2.476   2.093  1.0819  1.1839 -2.8193
 9333TIP3    H249491   2.619   2.436   2.022 -0.9277  0.2795  1.0306
 9334TIP3   OH249492   1.748   1.524   1.055 -0.6081 -0.3769  0.4102
 9334TIP3    H149493   1.840   1.532   1.080 -1.2240 -0.2510  2.9976
 9334TIP3    H249494   1.715   1.614   1.054 -1.2272 -0.5544  1.9895
 9335TIP3   OH249495   0.836   0.927   3.601  0.4244 -0.3737  0.1594
 9335TIP3    H149496   0.754   0.965   3.570  1.1257  0.8674 -0.2396
 9335TIP3    H249497   0.810   0.875   3.677 -0.8371 -0.6672 -0.4415
 9336TIP3   OH249498   2.123   3.073  16.888  0.0397 -0.5633  0.5204
 9336TIP3    H149499   2.087   3.019  16.959  0.7599 -0.2520  1.1315
 9336TIP3    H249500   2.064   3.148  16.884 -0.3556 -0.8761  0.3766
 9337TIP3   OH249501   2.601   6.128  13.015  0.1523 -0.3412  0.3487
 9337TIP3    H149502   2.545   6.094  12.945 -0.2607 -1.0095  0.9871
 9337TIP3    H249503   2.540   6.174  13.073  0.4141 -0.2285  0.5342
 9338TIP3   OH249504   1.473   4.879   4.368 -0.2760 -0.1530 -0.1777
 9338TIP3    H149505   1.530   4.850   4.439  1.8992  1.6595 -1.0454
 9338TIP3    H249506   1.410   4.938   4.410 -0.1397 -0.4782  0.4886
 9339TIP3   OH249507   5.492   4.107   3.409 -0.0707 -0.1545 -0.9525
 9339TIP3    H149508   5.553   4.081   3.340 -0.9806  0.3196 -1.9772
 9339TIP3    H249509   5.414   4.054   3.392  0.3147 -1.3865  0.8606
 9340TIP3   OH249510   0.321   5.020   6.111 -0.2467  0.0116 -0.0600
 9340TIP3    H149511   0.310   5.114   6.124  0.8078 -0.0434  1.4120
 9340TIP3    H249512   0.239   4.982   6.142 -0.9748  0.4735 -1.3525
 9341TIP3   OH249513   3.368   3.357  10.105 -0.0197  0.0294 -0.6558
 9341TIP3    H149514   3.340   3.296  10.173  0.2363  0.3802 -0.2260
 9341TIP3    H249515   3.286   3.393  10.070 -0.1465  0.4556  0.0403
 9342TIP3   OH249516   1.062   5.555  14.117  0.8564  0.1820 -0.2357
 9342TIP3    H149517   1.010   5.632  14.137  0.7103  0.3834 -1.2987
 9342TIP3    H249518   1.141   5.590  14.075  1.9388 -0.1075  1.4424
 9343TIP3   OH249519   1.054   2.835   0.113 -0.3280  0.1201  0.4286
 9343TIP3    H149520   1.139   2.792   0.107 -1.1166 -1.3858 -0.8030
 9343TIP3    H249521   1.070   2.925   0.083  0.6960 -0.3789 -0.6105
 9344TIP3   OH249522   4.443   2.900  14.687 -0.2172 -0.1297 -0.8658
 9344TIP3    H149523   4.500   2.833  14.650  0.3102 -0.9008  1.1956
 9344TIP3    H249524   4.376   2.851  14.734  0.2187  0.7377  0.7424
 9345TIP3   OH249525   4.708   1.833  14.950 -0.0470 -0.0764 -0.2851
 9345TIP3    H149526   4.803   1.824  14.945  0.3500  1.2312  2.7117
 9345TIP3    H249527   4.683   1.870  14.866  2.2103  0.2456 -0.8758
 9346TIP3   OH249528   5.277   3.923  11.247 -0.5031 -0.4561  0.0448
 9346TIP3    H149529   5.223   4.001  11.235  0.5568 -0.0127 -2.3226
 9346TIP3    H249530   5.281   3.883  11.160  2.9968 -0.4178  0.0414
 9347TIP3   OH249531   2.195   6.233   2.532  0.7063 -0.4367  0.1641
 9347TIP3    H149532   2.267   6.193   2.483  1.0195  0.7247 -0.3461
 9347TIP3    H249533   2.132   6.162   2.544  0.8862 -0.8893 -1.4059
 9348TIP3   OH249534   0.484   0.582   3.058  0.0215  0.5880  0.0792
 9348TIP3    H149535   0.575   0.581   3.031  0.0874 -1.6165  0.2297
 9348TIP3    H249536   0.442   0.514   3.005 -0.9839 -0.1019  1.6820
 9349TIP3   OH249537   4.669   3.691  14.789  0.6613  0.1591 -0.0123
 9349TIP3    H149538   4.631   3.695  14.702 -2.4941  0.0400  1.2296
 9349TIP3    H249539   4.730   3.765  14.792  0.3086  0.5824 -2.0484
 9350TIP3   OH249540   2.416   5.766  16.151  0.5200 -0.3536  0.1231
 9350TIP3    H149541   2.497   5.719  16.170  1.1141  1.0057  1.1643
 9350TIP3    H249542   2.350   5.723  16.206  0.5842 -1.2999 -0.5300
 9351TIP3   OH249543   4.228   4.114  15.757 -0.2977 -0.2773 -0.3426
 9351TIP3    H149544   4.150   4.070  15.724  0.7583 -0.9221 -2.0938
 9351TIP3    H249545   4.224   4.201  15.718 -0.8204  0.1751  0.6801
 9352TIP3   OH249546   0.534   2.641  13.163  0.2689 -0.3539 -0.2825
 9352TIP3    H149547   0.590   2.685  13.099 -0.1375 -0.4896 -0.7396
 9352TIP3    H249548   0.508   2.560  13.119 -0.9743  0.0993 -0.4246
 9353TIP3   OH249549   1.390   3.594  12.960 -0.2708 -0.4452 -0.0883
 9353TIP3    H149550   1.428   3.649  13.029 -0.7816  0.4235 -0.4842
 9353TIP3    H249551   1.445   3.516  12.959 -0.4292 -0.6255  1.5150
 9354TIP3   OH249552   6.783   2.911   3.583 -0.0729 -0.2301 -0.5063
 9354TIP3    H149553   6.763   2.918   3.676 -1.5912  0.8331 -0.8761
 9354TIP3    H249554   6.808   2.820   3.570 -0.7177 -0.6083  0.7778
 9355TIP3   OH249555   4.341   5.547   0.481 -0.1336  0.2206 -0.5973
 9355TIP3    H149556   4.435   5.546   0.467 -0.1985 -0.0652 -1.0495
 9355TIP3    H249557   4.326   5.616   0.546  0.0755  2.7141 -3.0086
 9356TIP3   OH249558   2.687   4.002   3.149 -0.3577 -0.0059  0.0037
 9356TIP3    H149559   2.618   4.020   3.212 -0.3492 -1.6118  0.5222
 9356TIP3    H249560   2.715   4.088   3.117  0.0538  0.9048  2.6196
 9357TIP3   OH249561   4.144   2.537  14.039  0.8164 -0.3726  0.8281
 9357TIP3    H149562   4.102   2.485  14.108  1.8379 -0.0121  1.7500
 9357TIP3    H249563   4.136   2.483  13.961 -1.7006 -0.1511  0.8462
 9358TIP3   OH249564   6.172   6.347   5.452  0.4438 -0.6669 -0.2006
 9358TIP3    H149565   6.129   6.275   5.405 -0.1935  0.7175 -1.8655
 9358TIP3    H249566   6.104   6.382   5.509  0.8643 -1.5745  0.9016
 9359TIP3   OH249567   0.023   2.335  11.583 -0.2494 -0.6498  0.5614
 9359TIP3    H149568   0.013   2.299  11.495 -0.4764  0.7948 -0.0343
 9359TIP3    H249569   0.113   2.311  11.609 -0.1843 -1.0902 -0.0510
 9360TIP3   OH249570   4.995   3.434   1.911 -0.4287 -0.2821 -0.1659
 9360TIP3    H149571   5.009   3.477   1.826  2.0922 -0.8215 -0.1000
 9360TIP3    H249572   5.023   3.499   1.975  0.1667 -0.7761  0.0899
 9361TIP3   OH249573   6.354   2.299   3.231 -0.2535 -0.2328 -0.7891
 9361TIP3    H149574   6.395   2.213   3.223 -0.4670 -0.5067  0.7800
 9361TIP3    H249575   6.316   2.300   3.319 -0.0901  1.5372 -0.6985
 9362TIP3   OH249576   0.159   3.511  14.744  0.2004  0.0185 -0.0473
 9362TIP3    H149577   0.202   3.503  14.659 -0.3105  0.9469 -0.4086
 9362TIP3    H249578   0.180   3.599  14.774  2.8075 -1.2112  2.1872
 9363TIP3   OH249579   0.153   6.609   3.893  0.1816 -0.3183  0.1134
 9363TIP3    H149580   0.150   6.522   3.932 -1.6956 -1.5603 -2.4891
 9363TIP3    H249581   0.065   6.623   3.859  0.8092  2.0410 -0.7481
 9364TIP3   OH249582   3.345   5.791  14.332  0.5382  0.9719  0.2748
 9364TIP3    H149583   3.275   5.820  14.391  1.4504  1.9193  0.9359
 9364TIP3    H249584   3.426   5.821  14.374  1.4400 -1.0711  0.0983
 9365TIP3   OH249585   5.861   4.545   1.652  0.4396  0.0184 -0.6239
 9365TIP3    H149586   5.772   4.579   1.668 -0.3091 -1.5250 -1.2742
 9365TIP3    H249587   5.888   4.510   1.736 -0.3237 -1.1121 -0.8253
 9366TIP3   OH249588   6.005   5.458  14.520 -0.2041 -0.1554 -0.6572
 9366TIP3    H149589   6.023   5.431  14.430 -0.6295 -0.1311 -0.7514
 9366TIP3    H249590   6.038   5.386  14.574  1.1058  0.3391 -0.7626
 9367TIP3   OH249591   0.324   6.480  16.994 -0.1048  0.7395  0.7412
 9367TIP3    H149592   0.368   6.487  17.079  0.2821  0.2173  0.5916
 9367TIP3    H249593   0.277   6.397  16.998  0.6480  0.2685  0.1241
 9368TIP3   OH249594   0.579   0.159   3.607 -0.4448  0.1387  0.4839
 9368TIP3    H149595   0.530   0.236   3.635 -1.0414 -0.0852  0.0751
 9368TIP3    H249596   0.513   0.089   3.602 -0.2158 -0.0001 -0.7511
 9369TIP3   OH249597   4.471   4.590  16.668 -0.0131  0.2411  0.3013
 9369TIP3    H149598   4.504   4.586  16.758 -0.1839  0.9723  0.4029
 9369TIP3    H249599   4.528   4.652  16.624  0.1208 -0.1817 -0.1189
 9370TIP3   OH249600   4.300   3.391   6.104 -0.3273  0.4691  0.2568
 9370TIP3    H149601   4.247   3.448   6.160  0.9044  1.3337  0.5948
 9370TIP3    H249602   4.283   3.422   6.015  0.2311  1.3085  0.4293
 9371TIP3   OH249603   6.205   3.183   5.777 -0.8256  0.4404  0.4588
 9371TIP3    H149604   6.146   3.144   5.712 -0.2869 -1.5057  1.0598
 9371TIP3    H249605   6.196   3.277   5.763  0.4380  0.1727 -3.5190
 9372TIP3   OH249606   6.643   1.135   4.390 -1.0091  0.1508 -0.5786
 9372TIP3    H149607   6.601   1.086   4.320 -2.3876  0.9585 -0.3655
 9372TIP3    H249608   6.644   1.226   4.358 -0.2415  0.2872 -0.1881
 9373TIP3   OH249609   2.873   4.691  16.452  0.0837  0.2705 -0.0839
 9373TIP3    H149610   2.847   4.601  16.433 -1.5913  0.7713 -0.3569
 9373TIP3    H249611   2.859   4.700  16.547  0.7719  0.0907  0.0367
 9374TIP3   OH249612   1.808   4.492   3.618 -0.2004 -0.4031  0.0553
 9374TIP3    H149613   1.868   4.419   3.632 -0.9242 -1.2016 -0.8438
 9374TIP3    H249614   1.809   4.506   3.523  1.9158  2.5232  0.3326
 9375TIP3   OH249615   1.162   5.087  16.110 -0.3865  0.2097 -0.4024
 9375TIP3    H149616   1.087   5.094  16.052 -0.6280 -0.2240 -0.1519
 9375TIP3    H249617   1.224   5.153  16.078 -1.1084  0.9701 -0.2537
 9376TIP3   OH249618   5.856   1.098  13.416  0.1123  0.2430 -0.2943
 9376TIP3    H149619   5.947   1.127  13.426 -0.1705  0.9073  0.4003
 9376TIP3    H249620   5.861   1.002  13.417  0.7761  0.2760 -0.0553
 9377TIP3   OH249621   6.835   1.026   2.541 -0.6443  0.3390 -0.0480
 9377TIP3    H149622   6.863   1.026   2.632  0.7038  0.9061 -0.4303
 9377TIP3    H249623   6.741   1.044   2.544 -0.6555  0.1554  1.2232
 9378TIP3   OH249624   6.446   3.094   4.052 -0.4233 -0.0602  0.0858
 9378TIP3    H149625   6.525   3.138   4.019 -1.3223  1.2113 -0.4592
 9378TIP3    H249626   6.388   3.090   3.977 -1.9625  1.5960  1.1038
 9379TIP3   OH249627   5.067   0.477  15.504 -0.2639 -0.0310  0.0948
 9379TIP3    H149628   4.980   0.477  15.464 -0.3339  0.7971  0.2169
 9379TIP3    H249629   5.126   0.447  15.435 -0.0221  3.7308 -1.5699
 9380TIP3   OH249630   1.982   6.751   0.207  0.1088  0.6643 -0.0663
 9380TIP3    H149631   1.965   6.844   0.189 -1.5999  1.2734  3.7710
 9380TIP3    H249632   2.070   6.749   0.245  1.2087  0.2185 -2.4212
 9381TIP3   OH249633   2.685   0.631  15.373 -0.2969  0.2095 -0.3879
 9381TIP3    H149634   2.767   0.635  15.324  0.6084  1.2651  1.1406
 9381TIP3    H249635   2.627   0.690  15.326  1.1114  2.5913  0.6898
 9382TIP3   OH249636   2.601   0.200   0.425 -0.2867  0.1874  0.1238
 9382TIP3    H149637   2.533   0.256   0.461 -1.0099  0.2558 -1.2891
 9382TIP3    H249638   2.676   0.258   0.410 -1.0096  0.7994 -1.2800
 9383TIP3   OH249639   3.532   3.996  15.943 -0.1518 -0.1637 -0.5739
 9383TIP3    H149640   3.617   4.038  15.931 -0.5626  0.2170 -2.5203
 9383TIP3    H249641   3.542   3.944  16.023  1.7189  0.3026 -0.4552
 9384TIP3   OH249642   2.668   0.766   6.599 -0.0198 -0.0111  0.3903
 9384TIP3    H149643   2.738   0.743   6.538  0.6589 -1.1506  1.5544
 9384TIP3    H249644   2.623   0.840   6.557  0.4861 -0.6775 -1.4147
 9385TIP3   OH249645   6.168   3.518   2.483 -0.7210  0.6057  0.1875
 9385TIP3    H149646   6.100   3.458   2.512 -1.8782  1.1119 -1.3373
 9385TIP3    H249647   6.221   3.534   2.561 -0.4403 -2.2422  0.6879
 9386TIP3   OH249648   2.760   0.289   5.480 -0.3214  0.6590  0.7718
 9386TIP3    H149649   2.840   0.341   5.474 -0.1696  0.2357 -2.8382
 9386TIP3    H249650   2.696   0.336   5.427 -1.6033 -0.4858  1.2326
 9387TIP3   OH249651   5.160   5.966  11.524  0.2289  0.2421 -0.1990
 9387TIP3    H149652   5.219   5.891  11.526  1.0140  0.8286 -0.7473
 9387TIP3    H249653   5.193   6.021  11.452 -0.6611  0.8431 -0.1677
 9388TIP3   OH249654   1.840   1.822   2.810 -0.2513  0.5318 -0.0798
 9388TIP3    H149655   1.791   1.903   2.794 -0.7383  0.1423 -0.6065
 9388TIP3    H249656   1.905   1.819   2.740 -0.4659  0.2914 -0.2694
 9389TIP3   OH249657   2.273   2.319  16.635  0.2145 -0.7554 -0.7236
 9389TIP3    H149658   2.233   2.401  16.607  1.0923  0.6437  1.8358
 9389TIP3    H249659   2.199   2.258  16.641 -0.8050  0.4463 -0.5920
 9390TIP3   OH249660   1.019   5.002  11.367 -0.7982  0.2225  0.4347
 9390TIP3    H149661   0.993   5.081  11.321 -2.0369  0.9270  2.2438
 9390TIP3    H249662   1.070   5.033  11.441 -0.4741 -0.7552  0.6399
 9391TIP3   OH249663   0.992   0.320   4.208  0.1069  0.2160  0.0970
 9391TIP3    H149664   0.920   0.342   4.267 -0.1622  1.0850 -0.5322
 9391TIP3    H249665   1.070   0.357   4.250  0.0560  0.0547  0.3376
 9392TIP3   OH249666   1.463   1.218  11.446 -0.1238 -0.3868 -0.1368
 9392TIP3    H149667   1.464   1.189  11.355 -0.7251  0.8090 -0.5405
 9392TIP3    H249668   1.371   1.214  11.472 -0.1360  0.4840  0.0018
 9393TIP3   OH249669   0.350   5.997  16.333  0.2617  0.4252  0.4492
 9393TIP3    H149670   0.395   6.082  16.335 -0.6321  0.9727 -1.1100
 9393TIP3    H249671   0.306   5.992  16.418  1.2568  0.9926  1.0136
 9394TIP3   OH249672   3.716   0.503   3.802  0.6633 -0.1167 -0.4772
 9394TIP3    H149673   3.695   0.559   3.727  0.7950  0.0332 -0.4004
 9394TIP3    H249674   3.748   0.422   3.762 -0.1551 -0.3910 -0.6011
 9395TIP3   OH249675   6.094   2.773  12.500 -0.4765  0.9975  0.4938
 9395TIP3    H149676   6.147   2.704  12.540  0.8948 -0.2152 -2.9460
 9395TIP3    H249677   6.004   2.749  12.518  0.0070 -1.3175  0.0943
 9396TIP3   OH249678   5.373   3.581   1.965  0.7062 -0.5369  0.0921
 9396TIP3    H149679   5.391   3.663   2.009 -1.4405  0.3901 -0.5955
 9396TIP3    H249680   5.388   3.514   2.032  0.4936  0.5839  1.3112
 9397TIP3   OH249681   6.080   1.002  10.673 -0.0587 -0.1846  0.1854
 9397TIP3    H149682   6.120   1.075  10.720  1.1752 -0.5972 -0.1842
 9397TIP3    H249683   6.122   0.924  10.710  1.4346 -0.4956 -1.9559
 9398TIP3   OH249684   6.561   2.517  12.013 -0.4503 -0.1143 -0.7098
 9398TIP3    H149685   6.634   2.575  11.995 -0.6351  0.2083 -0.4191
 9398TIP3    H249686   6.538   2.480  11.928  0.7068 -1.0059 -0.6667
 9399TIP3   OH249687   1.145   3.124   6.003  0.0455 -0.2411  0.2108
 9399TIP3    H149688   1.217   3.064   5.983  2.5962  2.3355  1.0453
 9399TIP3    H249689   1.132   3.115   6.097  0.2687  0.3141  0.2979
 9400TIP3   OH249690   0.745   1.726  12.674  0.2099  1.0541  0.2583
 9400TIP3    H149691   0.828   1.772  12.685 -0.0167  1.2259  1.4292
 9400TIP3    H249692   0.738   1.709  12.580  2.6842 -1.0900  0.3662
 9401TIP3   OH249693   1.004   5.768   1.945 -0.4345 -0.2584 -0.6131
 9401TIP3    H149694   1.072   5.819   1.990  0.9435 -1.8419 -0.8218
 9401TIP3    H249695   0.929   5.769   2.005 -0.2224  1.4178 -0.3238
 9402TIP3   OH249696   4.572   4.352  12.605  0.1730 -0.4891 -0.5957
 9402TIP3    H149697   4.586   4.258  12.619 -0.7810 -0.3928  1.3090
 9402TIP3    H249698   4.643   4.394  12.653 -1.6301 -0.2145  2.0670
 9403TIP3   OH249699   0.897   3.601   5.693  0.3015 -0.6032 -0.3093
 9403TIP3    H149700   0.832   3.611   5.763  0.8910  0.4589  0.1073
 9403TIP3    H249701   0.849   3.620   5.612 -1.0983 -4.4270 -0.5959
 9404TIP3   OH249702   6.529   6.397   1.158  0.1151 -0.3148  0.6240
 9404TIP3    H149703   6.490   6.352   1.083 -0.4559 -0.7889  1.2018
 9404TIP3    H249704   6.551   6.484   1.125 -0.8555 -0.2513  0.1130
 9405TIP3   OH249705   5.351   0.540  14.515 -0.3490 -0.3365 -0.1445
 9405TIP3    H149706   5.308   0.479  14.456  1.4810 -1.1117 -0.7240
 9405TIP3    H249707   5.418   0.582  14.462 -0.8271  1.4066  0.5397
 9406TIP3   OH249708   3.653   3.742   5.446  0.2064  0.7816  0.4531
 9406TIP3    H149709   3.619   3.741   5.356  0.4432  1.1929  0.3574
 9406TIP3    H249710   3.730   3.684   5.443 -0.1150  0.3425  0.5269
 9407TIP3   OH249711   0.218   4.950   2.354 -0.3636  0.1276 -0.3694
 9407TIP3    H149712   0.292   4.960   2.295 -0.9903 -0.7282 -1.3399
 9407TIP3    H249713   0.176   4.868   2.327 -0.8577 -0.1266  1.0637
 9408TIP3   OH249714   3.337   1.380  16.791  0.1148  0.7361  0.1496
 9408TIP3    H149715   3.394   1.314  16.830 -0.4858 -0.1347 -0.4311
 9408TIP3    H249716   3.376   1.463  16.818  0.4658  0.1608  1.5002
 9409TIP3   OH249717   3.220   3.583   1.252 -0.0401 -0.4076  0.3767
 9409TIP3    H149718   3.258   3.607   1.167 -0.5889 -0.3048  0.1593
 9409TIP3    H249719   3.207   3.667   1.296  0.0020 -0.4441  0.4577
 9410TIP3   OH249720   0.890   3.286  10.627 -0.5121  0.1481 -0.0102
 9410TIP3    H149721   0.928   3.199  10.635  0.5913  0.7308  1.6110
 9410TIP3    H249722   0.924   3.335  10.702 -0.6825  2.1458 -1.1388
 9411TIP3   OH249723   0.353   1.760  12.266 -0.4191 -0.1321 -0.6223
 9411TIP3    H149724   0.370   1.668  12.245 -0.0689 -0.4424  0.9382
 9411TIP3    H249725   0.431   1.790  12.311 -1.2095  0.4358  0.4228
 9412TIP3   OH249726   3.758   0.543   4.304  0.2941 -0.2946  0.2776
 9412TIP3    H149727   3.688   0.598   4.338 -0.0241  0.1809 -1.0843
 9412TIP3    H249728   3.722   0.505   4.224  1.6172  0.0593 -0.5213
 9413TIP3   OH249729   2.720   2.273   1.361 -0.0443  0.4052  0.3762
 9413TIP3    H149730   2.674   2.274   1.277 -3.2045 -1.6657  1.8696
 9413TIP3    H249731   2.741   2.181   1.376 -0.8736  0.4911  2.4204
 9414TIP3   OH249732   0.819   1.119   5.118 -0.2660 -0.5284  0.5563
 9414TIP3    H149733   0.874   1.045   5.091  0.6263  0.3823 -0.1986
 9414TIP3    H249734   0.851   1.143   5.204  0.7419  0.1848 -0.0019
 9415TIP3   OH249735   1.506   0.395  12.993 -0.0558 -0.5636 -0.1162
 9415TIP3    H149736   1.550   0.438  13.066  2.0673 -2.2571 -0.2996
 9415TIP3    H249737   1.515   0.456  12.920  3.5958 -1.4326 -0.5807
 9416TIP3   OH249738   5.080   2.755   2.349 -0.0556  0.3643 -0.2111
 9416TIP3    H149739   5.134   2.807   2.289 -0.4210  0.2121 -0.6746
 9416TIP3    H249740   5.055   2.816   2.418  2.1028  0.0552  0.9572
 9417TIP3   OH249741   4.220   4.178  16.133  0.8174  0.1207  0.2913
 9417TIP3    H149742   4.173   4.199  16.214  0.1262 -2.4181  0.6389
 9417TIP3    H249743   4.293   4.123  16.162  0.0705 -1.5409 -0.8334
 9418TIP3   OH249744   6.488   4.626   4.979 -0.1073  0.3130  0.5203
 9418TIP3    H149745   6.565   4.583   5.017 -0.8140 -1.0203  0.5226
 9418TIP3    H249746   6.487   4.713   5.017  1.3736  0.3311  0.5590
 9419TIP3   OH249747   6.823   6.296  14.164  0.1588 -0.1459  0.4355
 9419TIP3    H149748   6.898   6.277  14.107  0.4200 -0.0863  0.7513
 9419TIP3    H249749   6.750   6.248  14.125 -0.4135  2.2855 -1.6852
 9420TIP3   OH249750   1.657   0.405   0.935 -0.4020  0.2457  0.2287
 9420TIP3    H149751   1.657   0.316   0.969 -1.1930  0.6670  1.4019
 9420TIP3    H249752   1.622   0.458   1.006  0.2522  1.5350 -0.3687
 9421TIP3   OH249753   1.896   5.010   5.480 -0.3642  0.6120  0.3936
 9421TIP3    H149754   1.989   5.035   5.475 -0.0071 -0.6614  0.3998
 9421TIP3    H249755   1.889   4.959   5.560 -1.7155  3.1354  2.0304
 9422TIP3   OH249756   5.849   1.633   1.336  0.4472 -0.1097 -0.4856
 9422TIP3    H149757   5.887   1.686   1.406 -0.0541 -2.2790  1.5612
 9422TIP3    H249758   5.918   1.571   1.312  0.1289 -0.3124 -0.8951
 9423TIP3   OH249759   4.842   1.165   3.009  0.2961  0.1143  0.0724
 9423TIP3    H149760   4.780   1.239   3.006  0.0585 -0.0752  0.2299
 9423TIP3    H249761   4.882   1.171   3.096 -0.3003 -0.4032  0.3889
 9424TIP3   OH249762   1.961   3.938   4.295  0.4073  0.0788 -0.4234
 9424TIP3    H149763   2.040   3.989   4.281 -0.1453  0.7918 -1.0254
 9424TIP3    H249764   1.906   3.993   4.350  0.1323 -0.2156 -0.3979
 9425TIP3   OH249765   1.376   5.561  11.162 -0.5214 -0.0762 -0.0146
 9425TIP3    H149766   1.441   5.579  11.094 -0.7902 -2.4427 -0.9947
 9425TIP3    H249767   1.302   5.617  11.139  0.3214  0.9815 -0.2094
 9426TIP3   OH249768   5.177   2.203  15.829  0.1813  0.9248  0.7094
 9426TIP3    H149769   5.103   2.262  15.842 -1.2696 -0.7120  0.1791
 9426TIP3    H249770   5.182   2.151  15.910 -0.9265 -0.7083 -0.2145
 9427TIP3   OH249771   1.275   2.723  15.599  0.4556  0.1063 -0.0060
 9427TIP3    H149772   1.348   2.773  15.562 -0.2541  1.5158  0.4173
 9427TIP3    H249773   1.291   2.723  15.693 -0.3039  0.8252  0.1391
 9428TIP3   OH249774   4.157   4.500  15.096  0.0832 -0.4931  0.0290
 9428TIP3    H149775   4.249   4.511  15.118 -0.4066  1.0144  1.5543
 9428TIP3    H249776   4.141   4.558  15.022  0.3249 -0.7019 -0.1886
 9429TIP3   OH249777   3.204   3.031   2.261 -0.7327  0.5444 -0.1161
 9429TIP3    H149778   3.236   3.105   2.314  5.5531 -0.8581 -1.1096
 9429TIP3    H249779   3.173   3.071   2.180  0.2916  2.3011  0.3046
 9430TIP3   OH249780   4.919   3.954  13.138  0.2765  0.2461 -0.0165
 9430TIP3    H149781   4.949   3.918  13.222  1.0865  1.9405  0.4691
 9430TIP3    H249782   4.989   4.014  13.112  0.5831 -1.0481 -2.5061
 9431TIP3   OH249783   1.016   1.302  14.069  0.1009 -0.4458  0.7201
 9431TIP3    H149784   1.040   1.228  14.013 -0.4048 -1.1930  1.4587
 9431TIP3    H249785   0.927   1.324  14.042 -0.3947 -1.2358  1.6389
 9432TIP3   OH249786   5.865   1.515  15.002 -0.6789  0.2766  0.4919
 9432TIP3    H149787   5.799   1.505  14.935 -1.3723  0.4537  1.1338
 9432TIP3    H249788   5.905   1.428  15.011 -0.7608  0.1930  0.0435
 9433TIP3   OH249789   4.470   3.226  11.725 -0.1761 -0.1063 -0.2725
 9433TIP3    H149790   4.406   3.167  11.765 -0.0277 -1.0288 -1.3338
 9433TIP3    H249791   4.483   3.191  11.637 -0.3930  1.7664 -1.1065
 9434TIP3   OH249792   4.093   2.254  13.600 -0.1343  0.8278  0.2704
 9434TIP3    H149793   4.124   2.185  13.541  0.4366  1.4512 -0.1711
 9434TIP3    H249794   4.037   2.309  13.546  0.2316  1.2897  0.3605
 9435TIP3   OH249795   3.895   0.409   5.025  0.2058  0.1943  0.1302
 9435TIP3    H149796   3.986   0.400   4.997 -0.2251 -0.6017 -1.0646
 9435TIP3    H249797   3.846   0.349   4.969 -1.0298  0.4121  0.9331
 9436TIP3   OH249798   4.556   0.108  11.302 -0.2840  0.2959 -0.1947
 9436TIP3    H149799   4.629   0.087  11.360 -0.5286 -0.7684 -0.2571
 9436TIP3    H249800   4.597   0.139  11.221  0.1148 -0.4393 -0.2833
 9437TIP3   OH249801   6.217   5.689   2.036 -0.4402  0.5724  0.4671
 9437TIP3    H149802   6.131   5.712   2.001 -0.4982 -1.4513 -0.8521
 9437TIP3    H249803   6.200   5.672   2.129 -1.9197 -1.6527 -0.1248
 9438TIP3   OH249804   1.890   3.780  13.438  0.1609  0.1525  0.4884
 9438TIP3    H149805   1.959   3.766  13.374 -0.0475  1.1798  0.0284
 9438TIP3    H249806   1.826   3.834  13.393 -1.4897 -1.6506  0.5492
 9439TIP3   OH249807   0.915   0.359   5.726 -0.7792 -0.5697  0.0392
 9439TIP3    H149808   0.938   0.309   5.804 -0.6221 -1.2711 -0.4431
 9439TIP3    H249809   0.995   0.407   5.704 -0.8696 -0.2535  0.3898
 9440TIP3   OH249810   3.904   0.001   3.885 -0.6815 -0.6270 -0.0278
 9440TIP3    H149811   3.899  -0.064   3.955  0.5524 -0.3195  0.3889
 9440TIP3    H249812   3.990   0.041   3.897 -0.9341  0.2487 -1.0132
 9441TIP3   OH249813   6.149   0.921   5.469  0.2344  0.3815 -0.2915
 9441TIP3    H149814   6.127   0.845   5.415  0.4145  0.7741 -0.9389
 9441TIP3    H249815   6.071   0.937   5.522  0.1962 -0.2446 -0.1572
 9442TIP3   OH249816   2.955   4.254   3.728  0.2922  0.3025 -0.3253
 9442TIP3    H149817   2.954   4.263   3.824  0.4181 -2.0891 -0.0346
 9442TIP3    H249818   3.029   4.307   3.700 -0.5205  2.1096  0.7221
 9443TIP3   OH249819   2.626   2.728  13.054 -0.0944 -1.0854 -0.0257
 9443TIP3    H149820   2.567   2.802  13.039  0.4024 -0.7315 -0.2634
 9443TIP3    H249821   2.705   2.767  13.089 -0.1017 -1.5902  0.5625
 9444TIP3   OH249822   6.188   5.592   1.392 -0.0466  0.2963  0.0928
 9444TIP3    H149823   6.253   5.633   1.335  0.2304  2.7468  2.0174
 9444TIP3    H249824   6.231   5.584   1.477 -1.6478  0.2856  0.9498
 9445TIP3   OH249825   4.029   5.445  16.561  0.3522 -0.1406  0.5226
 9445TIP3    H149826   4.104   5.391  16.536  0.9908  0.7075  0.5672
 9445TIP3    H249827   3.979   5.390  16.622 -1.9766 -2.8483 -3.3423
 9446TIP3   OH249828   3.623   0.607  14.931 -0.5994 -0.2804  0.6166
 9446TIP3    H149829   3.634   0.691  14.975 -3.2314  0.3689  0.2132
 9446TIP3    H249830   3.710   0.567  14.933  0.7793  2.4801  0.7128
 9447TIP3   OH249831   1.989   0.490   5.001  0.7414 -0.4641 -0.2102
 9447TIP3    H149832   1.965   0.556   5.066  1.3186  2.0746 -2.3899
 9447TIP3    H249833   2.079   0.467   5.023  1.1353  0.8164 -0.3932
 9448TIP3   OH249834   3.557   3.660  14.420  0.6676  0.4443  0.2864
 9448TIP3    H149835   3.568   3.735  14.479 -0.7276 -0.8905  2.3845
 9448TIP3    H249836   3.464   3.637  14.427  1.2240 -2.0595  0.5244
 9449TIP3   OH249837   1.175   2.523  13.964  0.2043 -0.1594  0.3320
 9449TIP3    H149838   1.104   2.472  13.925 -0.2818  0.6312  0.1634
 9449TIP3    H249839   1.222   2.460  14.018  0.5561 -1.1609 -1.0689
 9450TIP3   OH249840   3.613   6.493  12.917 -0.7960  0.1870  0.2533
 9450TIP3    H149841   3.632   6.401  12.897  0.3152  0.3186  0.6831
 9450TIP3    H249842   3.530   6.510  12.871 -0.6649 -0.8275 -0.3934
 9451TIP3   OH249843   3.044   1.126   5.781  0.5662 -0.0951  0.7263
 9451TIP3    H149844   3.059   1.105   5.873 -0.2232  0.2994  0.9504
 9451TIP3    H249845   2.950   1.142   5.775  0.7256  0.6505  0.0144
 9452TIP3   OH249846   5.607   3.344  13.397  0.7321  0.7521 -0.5879
 9452TIP3    H149847   5.575   3.431  13.424  0.7464  0.5930 -0.0405
 9452TIP3    H249848   5.586   3.287  13.471 -0.4682  0.0084 -1.4623
 9453TIP3   OH249849   0.913   6.048   1.483 -0.2562  0.2106  0.1395
 9453TIP3    H149850   0.871   6.126   1.447 -0.0486 -0.0971 -0.7804
 9453TIP3    H249851   0.844   5.982   1.484 -0.4929  0.4501  1.1265
 9454TIP3   OH249852   1.039   5.944   1.263 -0.0570 -0.4590 -0.3971
 9454TIP3    H149853   1.000   5.966   1.348  0.4201 -1.5258  0.1209
 9454TIP3    H249854   0.996   6.003   1.201 -1.9721 -1.0829  0.2422
 9455TIP3   OH249855   2.757   5.082   4.401 -0.0039  0.2496  0.9290
 9455TIP3    H149856   2.727   4.991   4.394 -0.4435  0.3320  1.6093
 9455TIP3    H249857   2.780   5.091   4.494  3.3148 -0.1762  0.2779
 9456TIP3   OH249858   5.995   0.880   4.074 -0.0636  0.3334 -0.0311
 9456TIP3    H149859   5.955   0.921   3.997  1.2859  0.7846 -0.5151
 9456TIP3    H249860   5.963   0.790   4.072  0.3747  0.1877 -1.4493
 9457TIP3   OH249861   6.018   1.909   2.414  0.2823  0.6098 -0.3464
 9457TIP3    H149862   6.059   1.930   2.498 -0.3182  0.7066 -0.0696
 9457TIP3    H249863   5.930   1.878   2.438  0.3176  0.0518 -0.8986
 9458TIP3   OH249864   3.846   4.671   1.160  0.2974 -0.7391 -0.0357
 9458TIP3    H149865   3.910   4.729   1.117 -1.1071  0.1017 -1.0864
 9458TIP3    H249866   3.810   4.724   1.231  0.4767 -1.0734  0.3089
 9459TIP3   OH249867   0.965   1.784  10.453  0.2382 -0.3151  0.4663
 9459TIP3    H149868   0.962   1.860  10.395 -0.2675 -0.0435  0.8394
 9459TIP3    H249869   0.875   1.751  10.454  0.4242 -0.8283  0.4234
 9460TIP3   OH249870   1.651   5.200  13.493 -0.4535  0.0825 -0.3089
 9460TIP3    H149871   1.627   5.149  13.570  0.6308  1.6523  1.1567
 9460TIP3    H249872   1.706   5.141  13.440  1.8259  0.0141  1.9372
 9461TIP3   OH249873   5.707   2.540  15.064 -1.7517 -0.0576  0.3579
 9461TIP3    H149874   5.762   2.502  15.133  1.9376  1.5214 -1.4642
 9461TIP3    H249875   5.683   2.466  15.009  1.4342 -0.5299 -0.5765
 9462TIP3   OH249876   1.724   5.478  16.317  0.4505  0.3536 -0.7849
 9462TIP3    H149877   1.699   5.567  16.342 -0.1828  0.2149 -0.9200
 9462TIP3    H249878   1.707   5.426  16.395 -1.2329 -0.0248 -1.3607
 9463TIP3   OH249879   0.556   6.606   1.906 -0.6081  0.2448  1.0709
 9463TIP3    H149880   0.570   6.691   1.949  1.0588  0.5426  0.0186
 9463TIP3    H249881   0.461   6.598   1.901 -0.8236  2.4549  0.4338
 9464TIP3   OH249882   4.698   4.365  11.283  0.2524  0.2875 -0.0733
 9464TIP3    H149883   4.675   4.289  11.230  0.1570 -0.1425  0.5739
 9464TIP3    H249884   4.703   4.332  11.372 -0.9387  1.2625  0.3972
 9465TIP3   OH249885   3.579   0.694  12.032 -0.1686 -0.2835  0.2849
 9465TIP3    H149886   3.513   0.747  11.988  0.6524  0.8134  0.3478
 9465TIP3    H249887   3.657   0.702  11.977  0.0151 -1.3345  0.3598
 9466TIP3   OH249888   3.324   5.678   0.832 -0.2778 -0.0156  0.0470
 9466TIP3    H149889   3.383   5.610   0.866  1.3219  1.2097 -0.1562
 9466TIP3    H249890   3.354   5.693   0.742 -2.0914 -0.6121 -0.7044
 9467TIP3   OH249891   0.527   0.134  14.528 -0.0425  0.7879 -0.0212
 9467TIP3    H149892   0.617   0.105  14.543  0.2775  1.8120  0.1388
 9467TIP3    H249893   0.505   0.185  14.605 -1.1833 -0.3819  0.4601
 9468TIP3   OH249894   6.043   2.140   0.191  0.1928 -0.4141 -0.2614
 9468TIP3    H149895   6.055   2.062   0.138 -0.3761 -1.1262  0.6198
 9468TIP3    H249896   5.952   2.166   0.175  0.3931  0.1028 -0.5869
 9469TIP3   OH249897   1.296   6.820  11.796 -0.3582  0.1848 -0.2068
 9469TIP3    H149898   1.281   6.862  11.880 -0.7597 -0.1584 -0.1043
 9469TIP3    H249899   1.227   6.754  11.789  0.4845 -0.7305 -0.1820
 9470TIP3   OH249900   2.361   2.442  11.945  0.1428 -0.0021 -0.3688
 9470TIP3    H149901   2.321   2.373  11.891  0.9781  0.1505 -1.2201
 9470TIP3    H249902   2.364   2.405  12.033 -1.8883  0.0045 -0.2548
 9471TIP3   OH249903   2.779   1.613   3.767  0.1807  0.4801  0.1931
 9471TIP3    H149904   2.841   1.572   3.706  0.3240  0.2488  0.4902
 9471TIP3    H249905   2.834   1.663   3.827 -0.0965  3.4971 -1.8308
 9472TIP3   OH249906   0.135   2.986  10.448  0.2441  0.0661 -0.2184
 9472TIP3    H149907   0.078   3.062  10.459 -0.3002  0.0805 -2.7201
 9472TIP3    H249908   0.075   2.911  10.446  0.7778 -0.5189  2.2647
 9473TIP3   OH249909   1.123   6.287   6.111  0.0246 -0.2960  0.0222
 9473TIP3    H149910   1.101   6.200   6.144  2.1879 -0.0876  2.2907
 9473TIP3    H249911   1.212   6.278   6.076  0.4793  1.0638  0.7458
 9474TIP3   OH249912   6.573   0.388   5.287 -0.0745  0.0065 -0.3257
 9474TIP3    H149913   6.637   0.379   5.216 -0.0369  0.7426 -0.3940
 9474TIP3    H249914   6.505   0.445   5.250 -0.8667 -0.8977 -0.3131
 9475TIP3   OH249915   2.513   4.221   3.309  0.1247 -0.4758  0.0107
 9475TIP3    H149916   2.595   4.271   3.318  1.0534 -1.8668 -0.5004
 9475TIP3    H249917   2.506   4.173   3.392  0.7354 -1.6713 -0.6202
 9476TIP3   OH249918   1.796   6.548   0.985 -0.0161 -0.0869  0.6138
 9476TIP3    H149919   1.711   6.551   0.941 -0.1928 -2.4017  0.6740
 9476TIP3    H249920   1.860   6.565   0.917 -0.3142 -3.1430 -0.6030
 9477TIP3   OH249921   2.630   4.895   4.006 -0.1187  0.6867 -0.0233
 9477TIP3    H149922   2.659   4.845   3.929 -0.2549  2.4724 -1.2966
 9477TIP3    H249923   2.535   4.891   4.002 -0.1961 -1.7200  1.8297
 9478TIP3   OH249924   5.753   6.229   2.818 -0.3340  0.3580 -0.2965
 9478TIP3    H149925   5.790   6.303   2.867 -2.0037  1.1102 -0.1065
 9478TIP3    H249926   5.716   6.173   2.886 -0.6963  0.2694 -0.5703
 9479TIP3   OH249927   2.281   2.888  11.600  0.9577 -0.0529 -0.3265
 9479TIP3    H149928   2.316   2.805  11.632 -0.4290 -0.0992  1.2192
 9479TIP3    H249929   2.325   2.954  11.654  1.6400  0.2130 -1.1734
 9480TIP3   OH249930   2.460   3.708  14.197  0.0963 -0.5232 -0.1285
 9480TIP3    H149931   2.385   3.662  14.158  1.2395 -2.3351 -0.3246
 9480TIP3    H249932   2.434   3.800  14.198 -2.5794 -1.1817  0.8085
 9481TIP3   OH249933   2.070   1.760  16.546  0.5266 -0.0843  0.3097
 9481TIP3    H149934   2.005   1.809  16.595 -3.4708 -2.6755 -1.8911
 9481TIP3    H249935   2.107   1.824  16.485 -2.8755  0.8334 -0.9905
 9482TIP3   OH249936   3.872   3.213   3.840 -0.3706 -0.1637 -0.4367
 9482TIP3    H149937   3.888   3.123   3.869 -0.2722 -0.2280 -0.6829
 9482TIP3    H249938   3.777   3.221   3.839 -0.3774 -0.2242 -0.2905
 9483TIP3   OH249939   0.004   1.442   2.333  0.2134  0.1344 -0.9830
 9483TIP3    H149940   0.055   1.431   2.253  2.5182 -0.6165  0.4964
 9483TIP3    H249941   0.041   1.519   2.375  1.0894 -1.1505  0.7409
 9484TIP3   OH249942   4.681   3.428  13.005 -0.0844  0.8683  0.2231
 9484TIP3    H149943   4.722   3.468  13.081 -0.3865  1.2704  0.1773
 9484TIP3    H249944   4.594   3.468  13.001 -1.2793 -1.4213  1.4894
 9485TIP3   OH249945   3.174   3.309   3.745 -0.1723 -0.4924 -0.5939
 9485TIP3    H149946   3.142   3.221   3.725 -0.9889 -1.1620  3.0117
 9485TIP3    H249947   3.229   3.298   3.822 -2.0153  2.3629  1.3246
 9486TIP3   OH249948   5.103   6.567  15.578  0.2466  0.9031  0.4048
 9486TIP3    H149949   5.157   6.566  15.499 -0.6553 -2.9627 -0.3700
 9486TIP3    H249950   5.020   6.606  15.550  0.3863  0.7653 -0.2158
 9487TIP3   OH249951   1.085   6.286   3.978 -0.1197 -0.3579 -0.3855
 9487TIP3    H149952   1.031   6.338   4.038 -0.8963 -0.4565 -0.9923
 9487TIP3    H249953   1.146   6.349   3.940  0.7869 -0.3926  0.9307
 9488TIP3   OH249954   4.186   2.848  12.397 -0.0902 -0.0052 -0.0964
 9488TIP3    H149955   4.248   2.835  12.326  1.5576  1.6450  0.9586
 9488TIP3    H249956   4.100   2.849  12.354  0.7080 -0.7193 -1.7975
 9489TIP3   OH249957   5.007   3.734  16.641 -0.3308 -0.0734 -0.3916
 9489TIP3    H149958   5.058   3.655  16.658  1.0551  1.0221  0.8463
 9489TIP3    H249959   4.920   3.716  16.677 -0.2582 -1.2936 -0.8083
 9490TIP3   OH249960   0.926   1.535   6.805  0.5166 -0.4674 -0.1927
 9490TIP3    H149961   1.016   1.505   6.791  0.7064 -0.1912  0.3794
 9490TIP3    H249962   0.883   1.522   6.721  0.2406 -3.5071  0.3023
 9491TIP3   OH249963   3.158   1.541  12.799 -0.2492  0.2222 -0.4242
 9491TIP3    H149964   3.236   1.522  12.747  0.4671  0.1055  0.6608
 9491TIP3    H249965   3.190   1.545  12.889 -1.2976  1.3804 -0.0815
 9492TIP3   OH249966   0.597   1.536  12.228 -0.1070 -0.2943 -0.0808
 9492TIP3    H149967   0.596   1.448  12.264 -0.7493 -0.6124 -0.8476
 9492TIP3    H249968   0.612   1.524  12.135 -0.1465  0.4101 -0.1874
 9493TIP3   OH249969   5.106   1.932  11.645 -0.5054 -0.2566 -0.6272
 9493TIP3    H149970   5.089   1.861  11.707  0.0455  3.1040  3.8946
 9493TIP3    H249971   5.021   1.950  11.605 -1.3605 -1.4441  0.5490
 9494TIP3   OH249972   3.256   4.007   4.098 -0.2120 -0.8397 -0.3920
 9494TIP3    H149973   3.337   4.041   4.136 -0.3850 -0.0687 -0.6959
 9494TIP3    H249974   3.275   4.001   4.004 -0.5602 -0.4837 -0.4872
 9495TIP3   OH249975   4.413   1.947   4.720 -0.2810 -0.6046 -0.4794
 9495TIP3    H149976   4.353   1.898   4.777  0.2080 -1.5213 -0.7286
 9495TIP3    H249977   4.398   1.910   4.633  0.5682 -0.7769 -0.5590
 9496TIP3   OH249978   3.475   4.508   0.286 -0.4255 -0.3362 -0.4201
 9496TIP3    H149979   3.477   4.477   0.376 -0.1756 -0.3495 -0.4299
 9496TIP3    H249980   3.393   4.557   0.279  0.2524  0.9528  0.2314
 9497TIP3   OH249981   2.286   0.948  12.088 -0.1862 -0.1157  0.2267
 9497TIP3    H149982   2.311   0.870  12.139 -3.1364 -1.6191 -0.3939
 9497TIP3    H249983   2.237   0.913  12.014 -1.3567  2.3382 -0.2456
 9498TIP3   OH249984   4.529   4.206   0.032  0.3288  0.1680 -0.1960
 9498TIP3    H149985   4.596   4.269   0.008  1.1291 -0.0278  1.3753
 9498TIP3    H249986   4.564   4.122   0.002 -0.4799  0.3616 -1.7826
 9499TIP3   OH249987   6.358   6.275  17.090 -0.1253 -0.6951  0.0580
 9499TIP3    H149988   6.421   6.208  17.116  0.2006 -0.8321 -1.0140
 9499TIP3    H249989   6.331   6.249  17.001  0.8492  1.1725 -0.8540
 9500TIP3   OH249990   1.172   2.652  12.704 -0.0781  0.0277  0.3008
 9500TIP3    H149991   1.205   2.613  12.623 -0.3704  0.9387 -0.2698
 9500TIP3    H249992   1.122   2.728  12.675  0.2306  0.6527  1.3653
 9501TIP3   OH249993   5.744   4.550  15.557  0.7158 -0.7082 -0.4643
 9501TIP3    H149994   5.805   4.486  15.520  3.3626  0.3769  1.6972
 9501TIP3    H249995   5.790   4.634  15.552 -1.3886  0.5411 -0.3734
 9502TIP3   OH249996   0.100   4.928  15.070 -0.5180 -0.1258  0.2552
 9502TIP3    H149997   0.077   4.835  15.063 -0.2746 -0.0845 -1.5918
 9502TIP3    H249998   0.173   4.939  15.010 -0.1115  1.1438  0.9584
 9503TIP3   OH249999   0.303   0.936   4.041 -0.2330  0.0575  0.6832
 9503TIP3    H150000   0.336   1.018   4.077 -1.2424  0.2791  1.1246
 9503TIP3    H250001   0.217   0.958   4.005  0.3538 -0.3566 -1.0871
 9504TIP3   OH250002   5.438   6.103  12.052  0.1915  0.5505 -0.6624
 9504TIP3    H150003   5.529   6.118  12.026  0.6098  0.1897  0.5234
 9504TIP3    H250004   5.397   6.189  12.045  1.2107  1.2117  0.9109
 9505TIP3   OH250005   4.640   6.863   5.373 -0.3605  0.0930 -0.1131
 9505TIP3    H150006   4.636   6.772   5.342 -1.4051  0.1082 -0.0656
 9505TIP3    H250007   4.550   6.883   5.398  0.0334  0.8528  0.7232
 9506TIP3   OH250008   3.012   5.142  14.629 -0.4153 -0.0961  0.4557
 9506TIP3    H150009   2.950   5.092  14.681 -0.9215 -0.3504 -0.3745
 9506TIP3    H250010   3.031   5.220  14.681 -3.1765  1.1351 -0.2141
 9507TIP3   OH250011   5.241   2.867   2.181 -0.1459  0.2746 -0.4212
 9507TIP3    H150012   5.223   2.881   2.088  0.3975  0.2905 -0.5296
 9507TIP3    H250013   5.273   2.951   2.212  0.1999  0.1213 -0.3523
 9508TIP3   OH250014   5.905   4.234  11.975 -0.0936 -0.6313  0.6054
 9508TIP3    H150015   5.831   4.198  11.926 -0.5425  0.5059  0.4190
 9508TIP3    H250016   5.894   4.200  12.063 -1.6135  0.5562  0.9251
 9509TIP3   OH250017   1.010   1.214  16.271 -0.1009  0.3965  0.1800
 9509TIP3    H150018   1.089   1.161  16.261  0.6997  1.8748 -2.0741
 9509TIP3    H250019   0.956   1.165  16.333  1.5528 -1.8454 -0.0295
 9510TIP3   OH250020   2.218   3.995   1.675  0.0478  0.6729 -0.5878
 9510TIP3    H150021   2.291   3.934   1.688  0.8817  1.5561 -1.0079
 9510TIP3    H250022   2.141   3.939   1.667  0.9595 -0.4299 -2.3410
 9511TIP3   OH250023   2.051   2.227  14.178 -0.0947  0.3041 -0.4187
 9511TIP3    H150024   2.070   2.321  14.178  0.5113  0.2426  1.6839
 9511TIP3    H250025   2.023   2.208  14.268  0.8927 -1.7126 -0.4773
 9512TIP3   OH250026   4.103   1.095   3.202  0.0472 -0.1942  0.1342
 9512TIP3    H150027   4.127   1.163   3.265 -0.3781  0.3222 -0.2503
 9512TIP3    H250028   4.073   1.022   3.256  0.3951 -0.0331  0.5505
 9513TIP3   OH250029   3.051   4.033   0.663 -0.1329  0.2201 -0.3210
 9513TIP3    H150030   2.972   4.037   0.609 -0.0541  0.2671 -0.4322
 9513TIP3    H250031   3.062   4.122   0.696 -1.0376 -0.1213  0.9997
 9514TIP3   OH250032   5.071   1.708  10.662  0.2653 -0.2764  0.2117
 9514TIP3    H150033   5.013   1.780  10.637  1.0504  0.4449  0.4279
 9514TIP3    H250034   5.154   1.750  10.683 -0.0420 -0.9247  3.0876
 9515TIP3   OH250035   5.155   5.202  12.353 -0.2946  0.5618 -0.1965
 9515TIP3    H150036   5.182   5.274  12.296  1.2832 -0.7996 -1.2441
 9515TIP3    H250037   5.065   5.184  12.327 -0.2267  1.2194 -0.9243
 9516TIP3   OH250038   5.352   1.713  11.242  0.1090  0.1447  0.0409
 9516TIP3    H150039   5.315   1.707  11.154  0.2611 -2.9514  0.0687
 9516TIP3    H250040   5.446   1.715  11.229  0.1166  2.2241  0.1286
 9517TIP3   OH250041   1.657   3.682  16.179 -0.1282 -0.4995  0.4488
 9517TIP3    H150042   1.732   3.652  16.128  0.8781  0.4147  1.3233
 9517TIP3    H250043   1.688   3.763  16.220 -1.3419 -0.5144  1.4387
 9518TIP3   OH250044   4.163   2.000   3.744 -0.4795 -0.0587  0.6133
 9518TIP3    H150045   4.080   2.038   3.773  0.7275  1.9608  1.6658
 9518TIP3    H250046   4.140   1.948   3.667 -2.8838 -0.5885  1.5846
 9519TIP3   OH250047   0.036   2.384   2.580  0.6236 -0.3054 -0.5147
 9519TIP3    H150048   0.029   2.400   2.674 -0.8189  0.4976 -0.7300
 9519TIP3    H250049   0.115   2.432   2.554  0.2077  0.7161  0.0477
 9520TIP3   OH250050   5.550   3.085  16.767  0.3565 -0.3232 -0.1530
 9520TIP3    H150051   5.597   3.004  16.788 -0.2254 -1.1477 -1.9030
 9520TIP3    H250052   5.511   3.112  16.851  2.4375 -0.5497  0.9709
 9521TIP3   OH250053   2.141   0.053   6.012  0.8567 -0.1101  0.0302
 9521TIP3    H150054   2.094   0.125   6.053 -2.4705 -2.6055  1.0963
 9521TIP3    H250055   2.211   0.031   6.073  0.2218  0.5415  1.0051
 9522TIP3   OH250056   0.536   2.039  13.712  0.9245 -0.9050  0.5888
 9522TIP3    H150057   0.464   1.994  13.668  0.4544  0.8489 -0.5159
 9522TIP3    H250058   0.494   2.097  13.776  1.3895 -0.5161  0.5512
 9523TIP3   OH250059   6.105   4.347  11.270  0.1154  0.0037 -0.1630
 9523TIP3    H150060   6.025   4.322  11.223 -0.0102  1.6046 -0.8865
 9523TIP3    H250061   6.153   4.400  11.206  0.3502  1.5330  1.2191
 9524TIP3   OH250062   6.370   0.680   1.707  0.0075 -0.2387  0.0514
 9524TIP3    H150063   6.401   0.770   1.706 -0.9641  0.1208  0.6543
 9524TIP3    H250064   6.417   0.637   1.636 -0.2891  0.9943 -0.9098
 9525TIP3   OH250065   6.454   0.207   4.208  0.0533 -0.0232 -0.1701
 9525TIP3    H150066   6.409   0.289   4.188 -0.7473 -0.7228 -1.3591
 9525TIP3    H250067   6.545   0.232   4.223 -0.3570  1.1847  0.3982
 9526TIP3   OH250068   4.815   6.806  13.376  0.0525 -0.0179  0.0930
 9526TIP3    H150069   4.808   6.840  13.287  0.2116 -0.0587  0.0655
 9526TIP3    H250070   4.731   6.762  13.392  0.2538 -0.5257 -0.2455
 9527TIP3   OH250071   5.804   0.091   3.713  0.0064  0.0327  0.7670
 9527TIP3    H150072   5.793   0.015   3.656  0.1180  0.2185  0.4950
 9527TIP3    H250073   5.780   0.166   3.658  0.9015  0.2895  0.7125
 9528TIP3   OH250074   3.865   6.258  14.713 -0.0038 -0.2814  0.1156
 9528TIP3    H150075   3.782   6.256  14.760 -0.9148  0.1889 -1.4001
 9528TIP3    H250076   3.931   6.240  14.780 -1.2195  0.3980  1.5614
 9529TIP3   OH250077   2.853   6.242  16.215 -0.2317 -0.1007 -0.1528
 9529TIP3    H150078   2.811   6.158  16.234  1.4965 -0.7560  1.0911
 9529TIP3    H250079   2.941   6.218  16.185  0.0682  1.2614 -0.4322
 9530TIP3   OH250080   3.379   6.770   1.781  0.1301 -0.4053  0.2757
 9530TIP3    H150081   3.454   6.760   1.839 -0.6394 -0.3956  1.2897
 9530TIP3    H250082   3.310   6.805   1.836 -0.0349  1.6564 -1.0912
 9531TIP3   OH250083   4.487   3.227   3.906  0.0367 -0.2122 -0.5516
 9531TIP3    H150084   4.510   3.293   3.972  1.0206 -0.0909 -0.9966
 9531TIP3    H250085   4.411   3.264   3.862 -0.0124  0.1800 -0.1514
 9532TIP3   OH250086   3.385   1.279   4.136 -0.2970 -0.0034 -0.3057
 9532TIP3    H150087   3.377   1.322   4.051  1.2643 -0.0221 -0.5025
 9532TIP3    H250088   3.407   1.350   4.197  1.0885 -0.3083 -0.4110
 9533TIP3   OH250089   2.923   1.593  12.677 -0.7443 -0.0396  0.0750
 9533TIP3    H150090   3.006   1.582  12.723 -0.2930  1.6914 -0.2380
 9533TIP3    H250091   2.908   1.687  12.677 -1.4033 -0.0764 -2.1153
 9534TIP3   OH250092   4.210   3.522  15.870  0.0721 -0.3462  0.0481
 9534TIP3    H150093   4.159   3.598  15.842 -2.8228 -2.4162 -0.7011
 9534TIP3    H250094   4.248   3.487  15.789  0.0374 -0.6327  0.1536
 9535TIP3   OH250095   6.807   3.683  16.694 -0.2711  0.2072  0.3314
 9535TIP3    H150096   6.781   3.704  16.604 -1.3524  0.8897  0.7865
 9535TIP3    H250097   6.859   3.758  16.722  1.9290 -0.9445 -0.4150
 9536TIP3   OH250098   5.489   1.239   2.084  0.1530  0.3646 -0.0572
 9536TIP3    H150099   5.514   1.224   1.993  2.2687  1.1124  0.3320
 9536TIP3    H250100   5.395   1.219   2.087  0.3743 -1.4101 -1.9969
 9537TIP3   OH250101   0.516   5.166  12.218  0.3776  0.1288  0.5695
 9537TIP3    H150102   0.501   5.081  12.178  1.6490 -0.3969  1.1593
 9537TIP3    H250103   0.553   5.219  12.148 -0.7371  0.3270  0.1065
 9538TIP3   OH250104   5.706   2.707  15.587  0.2322 -0.7695 -0.1758
 9538TIP3    H150105   5.756   2.679  15.510  0.8845 -1.6935  0.5608
 9538TIP3    H250106   5.769   2.755  15.640 -0.4017  0.4947 -0.5335
 9539TIP3   OH250107   6.845   5.503  17.097 -0.1543 -0.0734 -0.4831
 9539TIP3    H150108   6.823   5.587  17.056 -2.1096 -1.0887 -1.6026
 9539TIP3    H250109   6.774   5.445  17.074 -0.0654 -1.4404  2.2745
 9540TIP3   OH250110   0.411   6.268   4.242  0.3646 -0.1490  0.0379
 9540TIP3    H150111   0.460   6.244   4.321 -1.0274 -0.9021  0.7111
 9540TIP3    H250112   0.352   6.194   4.227  1.8672 -0.9171 -2.8424
 9541TIP3   OH250113   1.498   1.708  16.596  0.0681  0.1799  0.0320
 9541TIP3    H150114   1.563   1.760  16.644  1.9982 -1.8210 -0.2752
 9541TIP3    H250115   1.497   1.624  16.641 -3.0025  0.4027  0.5363
 9542TIP3   OH250116   0.921   4.270  16.883 -0.1505 -0.0358 -0.2405
 9542TIP3    H150117   0.835   4.257  16.923  0.1740  0.7756  0.7764
 9542TIP3    H250118   0.935   4.192  16.829 -0.1973 -1.7270  2.0339
 9543TIP3   OH250119   0.684   6.821   0.296  0.0456 -0.3922  0.1156
 9543TIP3    H150120   0.599   6.790   0.329 -1.4310  0.2850 -2.7591
 9543TIP3    H250121   0.672   6.827   0.201  3.1088  0.4670 -0.3045
 9544TIP3   OH250122   1.229   6.268   0.319  0.6406  0.4658 -0.7181
 9544TIP3    H150123   1.176   6.280   0.240  1.0087  1.3733 -0.8438
 9544TIP3    H250124   1.293   6.201   0.295 -1.0180 -1.3811 -0.2528
 9545TIP3   OH250125   1.307   2.988   0.681 -0.1596  0.1922 -0.4252
 9545TIP3    H150126   1.392   2.948   0.697  0.1454  1.1421  0.4678
 9545TIP3    H250127   1.319   3.042   0.604 -0.2196 -0.4115 -0.8625
 9546TIP3   OH250128   2.462   0.705   0.699  0.1772  0.1830  0.1276
 9546TIP3    H150129   2.369   0.685   0.685 -0.5730  3.2477  0.0550
 9546TIP3    H250130   2.491   0.742   0.616  1.4185 -0.5126  0.2327
 9547TIP3   OH250131   3.216   5.800   4.197  0.2402  0.2899  0.0593
 9547TIP3    H150132   3.206   5.831   4.286 -1.9326  1.6970 -0.6179
 9547TIP3    H250133   3.158   5.724   4.191  0.7376 -0.0934 -0.0683
 9548TIP3   OH250134   5.382   4.087  14.142 -0.5136  0.1623 -0.1555
 9548TIP3    H150135   5.477   4.082  14.149 -0.4080  0.9851 -0.7784
 9548TIP3    H250136   5.352   4.114  14.229 -0.4066 -2.3790  0.7419
 9549TIP3   OH250137   5.447   5.992   4.855  0.1663  0.0170  0.7596
 9549TIP3    H150138   5.450   5.944   4.773  1.1157 -0.1599  0.8793
 9549TIP3    H250139   5.536   5.985   4.890 -0.2925 -0.1850  1.9530
 9550TIP3   OH250140   1.293   6.855   0.733  0.3417  0.3162  0.6338
 9550TIP3    H150141   1.368   6.824   0.785  0.2387 -1.3982 -0.1730
 9550TIP3    H250142   1.306   6.816   0.647 -1.9488 -0.8255  0.7279
 9551TIP3   OH250143   5.904   2.868  15.771 -0.7797  0.4071 -0.1647
 9551TIP3    H150144   5.963   2.943  15.772  0.0330 -0.1895  2.1080
 9551TIP3    H250145   5.837   2.890  15.836 -0.3211 -0.9654  0.8110
 9552TIP3   OH250146   0.568   3.489  15.043 -1.0901 -0.6343  0.4013
 9552TIP3    H150147   0.625   3.536  15.104  0.2415 -1.9069  0.1834
 9552TIP3    H250148   0.519   3.428  15.098 -1.5963 -0.1826  0.4663
 9553TIP3   OH250149   5.974   0.026  14.600  0.0280  0.3648 -0.2082
 9553TIP3    H150150   6.025   0.094  14.644  0.8329 -0.1947 -0.2534
 9553TIP3    H250151   5.962   0.059  14.511  0.9664  0.1766 -0.4175
 9554TIP3   OH250152   0.633   1.935  16.520 -0.9479 -0.1628 -0.3546
 9554TIP3    H150153   0.722   1.963  16.498 -0.9546 -0.3134 -0.5825
 9554TIP3    H250154   0.589   1.928  16.435 -0.7901 -1.3917 -0.3559
 9555TIP3   OH250155   1.977   3.219   4.577 -0.2387 -0.0583 -0.2472
 9555TIP3    H150156   2.069   3.247   4.573 -0.2406 -0.0108  0.0095
 9555TIP3    H250157   1.927   3.301   4.581 -0.2552 -0.0883  0.2935
 9556TIP3   OH250158   5.382   4.899   2.604  0.5618  0.1012  0.0342
 9556TIP3    H150159   5.368   4.906   2.698  0.7535 -0.3169  0.0951
 9556TIP3    H250160   5.294   4.883   2.568  0.8692 -3.1140  0.4751
 9557TIP3   OH250161   0.065   1.506   1.960 -0.2223  0.1957  0.4479
 9557TIP3    H150162  -0.028   1.510   1.983 -0.1287 -0.2713  0.9131
 9557TIP3    H250163   0.075   1.423   1.914 -0.1081  0.4265  0.0506
 9558TIP3   OH250164   2.152   2.615  12.860 -0.1453 -0.2464 -0.0957
 9558TIP3    H150165   2.211   2.552  12.901  0.6910  0.6108  0.0347
 9558TIP3    H250166   2.157   2.692  12.916 -0.9233  0.0601 -0.4306
 9559TIP3   OH250167   5.688   5.441   5.593 -0.1868 -0.0136  0.9196
 9559TIP3    H150168   5.634   5.470   5.520  0.7850 -0.5891 -0.0503
 9559TIP3    H250169   5.664   5.499   5.665 -1.5508  0.2105  0.3084
 9560TIP3   OH250170   5.369   0.811   0.904 -0.7386 -0.6067 -0.3595
 9560TIP3    H150171   5.458   0.788   0.877  0.0131  2.5416 -0.9472
 9560TIP3    H250172   5.314   0.740   0.869  1.2662 -1.3922 -2.1292
 9561TIP3   OH250173   4.950   6.442  14.860  0.3571  0.3057 -0.1558
 9561TIP3    H150174   4.956   6.527  14.816  1.5940  0.8810  1.0369
 9561TIP3    H250175   4.874   6.450  14.918 -0.2337  0.1680 -0.9059
 9562TIP3   OH250176   6.827   1.110   1.147 -0.1537  0.3772 -0.1001
 9562TIP3    H150177   6.812   1.192   1.101  0.5752 -0.7679 -2.5708
 9562TIP3    H250178   6.916   1.117   1.182  1.0029 -0.3250 -2.7040
 9563TIP3   OH250179   4.087   0.202  16.160 -0.2784 -0.1658 -0.3810
 9563TIP3    H150180   4.062   0.252  16.083 -1.5771 -0.0370  0.0945
 9563TIP3    H250181   4.015   0.215  16.222 -0.6336 -2.5217 -0.1938
 9564TIP3   OH250182   5.083   5.146  16.729 -0.6656  0.4362 -0.0338
 9564TIP3    H150183   5.140   5.096  16.671 -1.0172 -0.7693  0.6362
 9564TIP3    H250184   5.033   5.080  16.777 -0.4976  1.3907  1.5214
 9565TIP3   OH250185   4.358   1.104   0.645  0.7435 -0.5278  0.7167
 9565TIP3    H150186   4.412   1.078   0.720  0.5990 -1.1260  0.6146
 9565TIP3    H250187   4.341   1.197   0.660  1.2924 -0.4750  1.0667
 9566TIP3   OH250188   5.106   5.793   4.736 -0.4452  0.4289 -0.8570
 9566TIP3    H150189   5.053   5.759   4.808 -1.8596  0.1304 -1.9767
 9566TIP3    H250190   5.158   5.863   4.775 -0.9276  0.0593  0.5091
 9567TIP3   OH250191   1.253   1.748   0.290 -0.5022  0.1903 -0.7062
 9567TIP3    H150192   1.244   1.719   0.199 -0.8007  1.4129 -1.0909
 9567TIP3    H250193   1.232   1.841   0.287 -1.2142  0.1067  0.7332
 9568TIP3   OH250194   6.481   0.275  15.355 -0.2226 -0.0258  0.1354
 9568TIP3    H150195   6.528   0.235  15.428  0.2641 -1.3241 -0.8652
 9568TIP3    H250196   6.529   0.248  15.277 -0.9874  0.9755 -0.7130
 9569TIP3   OH250197   6.644   2.061   2.798  0.0846  0.3953  0.4341
 9569TIP3    H150198   6.683   2.013   2.871  2.0465 -0.8081 -1.2839
 9569TIP3    H250199   6.620   2.146   2.834  2.2826  0.3627  2.1976
 9570TIP3   OH250200   1.990   4.902   3.011 -0.4455  0.7506  0.5100
 9570TIP3    H150201   2.053   4.851   2.960 -1.9802  1.7189 -2.6081
 9570TIP3    H250202   1.949   4.838   3.069  0.9183 -0.5971  0.0550
 9571TIP3   OH250203   1.658   1.719  12.389 -0.0653 -0.0985  0.1109
 9571TIP3    H150204   1.729   1.680  12.339  0.0574  1.5175 -1.0931
 9571TIP3    H250205   1.613   1.775  12.326 -1.3675  0.2189  1.2668
 9572TIP3   OH250206   6.634   2.473   4.977 -0.3845  0.2874  1.0210
 9572TIP3    H150207   6.577   2.436   5.045  0.3254 -0.6818  1.1198
 9572TIP3    H250208   6.705   2.515   5.026 -0.5930  0.8093  0.8867
 9573TIP3   OH250209   2.498   2.480  16.784  0.3075 -0.1743 -0.6964
 9573TIP3    H150210   2.404   2.474  16.767 -0.0405  0.5580  0.7413
 9573TIP3    H250211   2.520   2.396  16.825 -0.0485  0.1592  0.2271
 9574TIP3   OH250212   2.355   4.551  16.282  0.1976  0.2874  0.1435
 9574TIP3    H150213   2.262   4.549  16.304  0.1331  2.3549  0.2081
 9574TIP3    H250214   2.365   4.626  16.224  1.4942 -1.1587 -1.6359
 9575TIP3   OH250215   2.469   4.983   1.731  0.7237  0.2405  0.0074
 9575TIP3    H150216   2.404   4.988   1.660  0.6682 -1.3942 -0.1002
 9575TIP3    H250217   2.538   5.043   1.705  0.4666  0.0424 -1.1855
 9576TIP3   OH250218   3.136   4.762  16.380  0.0749 -0.1763  0.0798
 9576TIP3    H150219   3.047   4.788  16.357 -0.1379 -0.8214  0.1676
 9576TIP3    H250220   3.171   4.723  16.300 -0.1768 -1.1179  0.4214
 9577TIP3   OH250221   6.702   6.331   2.999 -0.4616  0.7282 -0.0716
 9577TIP3    H150222   6.705   6.237   3.017 -1.5354  0.6603 -0.1875
 9577TIP3    H250223   6.794   6.358   2.998 -0.1188  0.4006  3.8191
 9578TIP3   OH250224   0.518   1.482   1.606  0.8264 -0.2126 -0.1371
 9578TIP3    H150225   0.561   1.442   1.682  1.1652 -1.0446 -0.7502
 9578TIP3    H250226   0.441   1.526   1.642 -0.1631 -2.3092  0.4705
 9579TIP3   OH250227   1.095   0.750  11.606 -0.3636 -0.4344 -0.3136
 9579TIP3    H150228   1.034   0.681  11.579  0.6875 -1.5156  0.0148
 9579TIP3    H250229   1.172   0.737  11.551 -0.6752  1.3855 -1.2516
 9580TIP3   OH250230   1.271   2.761   3.190  0.0702  0.6505  0.5832
 9580TIP3    H150231   1.205   2.732   3.127 -1.7919 -1.3622  3.2288
 9580TIP3    H250232   1.238   2.846   3.221 -0.0111  0.7640  0.1937
 9581TIP3   OH250233   5.285   3.774   1.773 -0.0057  0.3428  0.0950
 9581TIP3    H150234   5.344   3.720   1.825 -0.2890  0.4870  0.5673
 9581TIP3    H250235   5.268   3.722   1.694 -0.9767 -0.6473  0.9372
 9582TIP3   OH250236   1.541   3.821  12.795  0.1002 -0.4171 -0.1504
 9582TIP3    H150237   1.574   3.733  12.774  0.6548  0.4162 -3.3232
 9582TIP3    H250238   1.446   3.811  12.799  0.1926 -1.2595  0.1810
 9583TIP3   OH250239   1.740   6.035   4.267 -0.2733 -0.0449  0.0312
 9583TIP3    H150240   1.688   5.994   4.198  1.0913 -0.9881 -0.4829
 9583TIP3    H250241   1.773   5.962   4.319  0.2012  0.5571  0.5955
 9584TIP3   OH250242   0.166   2.283  12.618  0.0273  0.3909 -0.3195
 9584TIP3    H150243   0.237   2.235  12.575 -0.7470 -1.4356  0.3072
 9584TIP3    H250244   0.177   2.262  12.711 -0.8986  0.6733 -0.1380
 9585TIP3   OH250245   0.628   0.785  15.924  0.0856  0.0027  0.2338
 9585TIP3    H150246   0.589   0.819  15.844  0.1837 -1.2505 -0.3618
 9585TIP3    H250247   0.630   0.861  15.983  1.3123  1.3073 -1.3852
 9586TIP3   OH250248   3.751   5.919   2.719  0.1455  0.2410  0.3348
 9586TIP3    H150249   3.676   5.898   2.775 -1.2615 -2.8262 -2.3740
 9586TIP3    H250250   3.714   5.973   2.648  1.0548  0.7936  0.2581
 9587TIP3   OH250251   5.322   4.275  15.536  0.0002 -0.0326  0.5472
 9587TIP3    H150252   5.390   4.282  15.604 -0.0111  2.3089  0.3734
 9587TIP3    H250253   5.366   4.230  15.464  0.9466  0.1685  0.9754
 9588TIP3   OH250254   5.872   4.365   2.159 -0.5789  0.6048  0.2933
 9588TIP3    H150255   5.889   4.353   2.065 -1.3677 -0.5591  0.2773
 9588TIP3    H250256   5.782   4.334   2.171 -0.7330  1.3945  1.3259
 9589TIP3   OH250257   1.907   5.776   5.795 -0.4760 -0.1813 -0.1609
 9589TIP3    H150258   1.930   5.762   5.887 -1.2909 -0.5744 -0.0045
 9589TIP3    H250259   1.841   5.709   5.777 -0.4260 -0.0151 -0.9952
 9590TIP3   OH250260   4.467   0.714  13.380 -0.4739 -0.2548  0.0669
 9590TIP3    H150261   4.427   0.633  13.348  0.0774 -0.3190 -0.4826
 9590TIP3    H250262   4.405   0.783  13.356 -0.4116 -0.3877 -0.4922
 9591TIP3   OH250263   0.100   1.437  13.197  0.1269  0.1882 -0.0431
 9591TIP3    H150264   0.135   1.433  13.108 -0.8354 -0.4861 -0.4161
 9591TIP3    H250265   0.098   1.346  13.226 -1.8995  0.0895 -0.3130
 9592TIP3   OH250266   1.755   5.185   0.886  0.2317  0.1075 -0.1836
 9592TIP3    H150267   1.704   5.178   0.966 -0.7262  0.1991 -0.7625
 9592TIP3    H250268   1.698   5.233   0.825  1.4082  1.1314 -0.5390
 9593TIP3   OH250269   5.038   3.977  14.197  0.4876  0.5576  0.0240
 9593TIP3    H150270   5.116   3.963  14.144 -0.5381  1.2843 -1.7668
 9593TIP3    H250271   4.965   3.963  14.137 -0.7664  0.1319  1.5877
 9594TIP3   OH250272   4.834   2.929  16.128 -0.0121 -0.0514  0.1362
 9594TIP3    H150273   4.884   2.859  16.168  0.0613 -0.1813 -0.1800
 9594TIP3    H250274   4.886   2.957  16.053 -0.0868  0.2755  0.2023
 9595TIP3   OH250275   0.485   5.784  16.243 -0.1502  0.4893  0.3771
 9595TIP3    H150276   0.473   5.812  16.152 -0.5077  0.6242  0.4675
 9595TIP3    H250277   0.412   5.823  16.291 -0.3484 -0.1395  0.6031
 9596TIP3   OH250278   3.839   1.706  13.216  0.0287 -1.0146 -0.1941
 9596TIP3    H150279   3.917   1.759  13.198 -0.4529  0.7143  2.3125
 9596TIP3    H250280   3.771   1.745  13.162 -0.5902  1.8678  2.3913
 9597TIP3   OH250281   2.287   3.114   2.167  0.6917 -0.0689  0.4230
 9597TIP3    H150282   2.252   3.026   2.180 -0.1719 -0.0300 -1.4183
 9597TIP3    H250283   2.210   3.171   2.173  1.1196  0.4877  0.7238
 9598TIP3   OH250284   1.746   5.537   5.776  0.2436 -0.3577  0.0555
 9598TIP3    H150285   1.810   5.484   5.823  1.1347  0.5693 -0.0818
 9598TIP3    H250286   1.673   5.477   5.760 -0.8979 -0.3245  4.0457
 9599TIP3   OH250287   1.517   3.076  14.743  0.1656  0.6726  0.5512
 9599TIP3    H150288   1.595   3.069  14.688 -0.2672  0.6063 -0.0585
 9599TIP3    H250289   1.444   3.060  14.683 -0.2535 -0.6432  1.3826
 9600TIP3   OH250290   4.486   5.941   0.654  0.4610 -0.0569  0.3391
 9600TIP3    H150291   4.458   6.018   0.702  3.5106  0.9084  0.7705
 9600TIP3    H250292   4.425   5.935   0.580 -0.7218  1.8712  1.0996
 9601TIP3   OH250293   3.123   0.368  11.872 -0.1967  0.1383 -0.3189
 9601TIP3    H150294   3.106   0.339  11.961 -0.3675  0.5372 -0.2208
 9601TIP3    H250295   3.131   0.287  11.821 -1.3585 -0.0784 -0.1805
 9602TIP3   OH250296   2.390   2.414   1.180  0.4274 -0.6412 -0.5108
 9602TIP3    H150297   2.451   2.480   1.214  0.2924 -0.7522 -0.0416
 9602TIP3    H250298   2.345   2.381   1.258 -0.0287 -0.7636 -0.8216
 9603TIP3   OH250299   3.366   4.577  14.515  0.2802 -0.1134 -0.5144
 9603TIP3    H150300   3.419   4.559  14.592  0.0874  0.3637 -0.2688
 9603TIP3    H250301   3.428   4.606  14.449  0.3519  0.2254 -0.2973
 9604TIP3   OH250302   0.518   3.417   4.577  0.0596 -0.1373 -0.8153
 9604TIP3    H150303   0.424   3.399   4.581  0.3734 -2.1098 -1.2816
 9604TIP3    H250304   0.558   3.346   4.628  1.3409  0.1409 -1.3987
 9605TIP3   OH250305   4.750   5.566  13.905  0.0544  0.1245 -0.3572
 9605TIP3    H150306   4.752   5.566  14.001  0.2960  0.4375 -0.3608
 9605TIP3    H250307   4.729   5.656  13.881  0.3403  0.1280 -0.6036
 9606TIP3   OH250308   2.132   0.781  16.297 -0.2838 -0.3132 -0.0732
 9606TIP3    H150309   2.224   0.804  16.284 -0.7144  1.7363  0.1481
 9606TIP3    H250310   2.116   0.711  16.233  0.9916  0.4807 -1.3365
 9607TIP3   OH250311   2.197   0.093  15.016  0.1117  0.0217  0.1917
 9607TIP3    H150312   2.126   0.042  14.976 -1.1331  1.4188  0.5338
 9607TIP3    H250313   2.228   0.150  14.945  1.7675 -1.4193 -0.3038
 9608TIP3   OH250314   5.903   4.236   4.366 -0.0940  0.2958 -0.0533
 9608TIP3    H150315   5.961   4.202   4.433  0.2482 -0.5048 -0.7354
 9608TIP3    H250316   5.880   4.160   4.313 -1.9518  0.5517  0.3154
 9609TIP3   OH250317   2.862   6.596  16.065  0.0934  0.3401 -0.3074
 9609TIP3    H150318   2.892   6.681  16.098 -1.2863 -0.0916  2.2731
 9609TIP3    H250319   2.810   6.559  16.136  1.3605 -3.0875 -0.9770
 9610TIP3   OH250320   3.670   0.050   3.067  0.3797  0.0782  0.2400
 9610TIP3    H150321   3.601   0.091   3.119  2.0307  1.1332  1.6737
 9610TIP3    H250322   3.686   0.112   2.995  0.3782  0.1934  0.3396
 9611TIP3   OH250323   3.019   0.256  11.249  0.0151 -0.1360 -0.1958
 9611TIP3    H150324   3.057   0.332  11.292 -2.2398  1.2490 -0.4925
 9611TIP3    H250325   2.960   0.218  11.314 -1.5328  0.5084 -1.1585
 9612TIP3   OH250326   4.312   3.906   4.495 -0.3227 -0.1005 -0.1413
 9612TIP3    H150327   4.251   3.905   4.421  0.5575 -0.2992 -0.8809
 9612TIP3    H250328   4.343   3.815   4.502  0.1217  0.0585  0.0150
 9613TIP3   OH250329   3.621   3.737   3.356  0.1184  0.4610  0.4549
 9613TIP3    H150330   3.623   3.660   3.299  2.0216  1.1583 -0.5030
 9613TIP3    H250331   3.702   3.731   3.406 -0.4696  1.0479  1.5013
 9614TIP3   OH250332   1.504   5.444  13.590 -0.2954  0.0128 -0.4461
 9614TIP3    H150333   1.541   5.475  13.507 -0.1558  0.4576 -0.2247
 9614TIP3    H250334   1.538   5.355  13.601 -0.5854 -0.1707 -1.0311
 9615TIP3   OH250335   6.119   6.799  15.374 -0.0547  0.0116 -0.0320
 9615TIP3    H150336   6.179   6.855  15.423  0.4972 -0.0105 -0.6512
 9615TIP3    H250337   6.159   6.712  15.379 -1.6259 -0.6553  2.0981
 9616TIP3   OH250338   2.263   4.328   5.267 -0.3779 -0.3631 -0.5182
 9616TIP3    H150339   2.338   4.296   5.317 -0.0381  0.5487 -0.4224
 9616TIP3    H250340   2.188   4.319   5.327 -0.6143 -2.4400 -1.0299
 9617TIP3   OH250341   0.530   4.466  14.320  0.2067  0.2651 -0.7033
 9617TIP3    H150342   0.494   4.390  14.275 -1.1205  0.6146 -0.2559
 9617TIP3    H250343   0.534   4.440  14.412  0.0527  0.6219 -0.5938
 9618TIP3   OH250344   3.243   5.437  14.585 -0.1112 -0.4533  0.6793
 9618TIP3    H150345   3.166   5.455  14.637 -0.8758 -0.2695 -0.4699
 9618TIP3    H250346   3.209   5.410  14.499  1.0841  0.4533 -0.1259
 9619TIP3   OH250347   4.334   0.555   2.150 -0.1003  0.0668  0.4272
 9619TIP3    H150348   4.358   0.561   2.242 -1.5519  0.0715  0.8322
 9619TIP3    H250349   4.416   0.571   2.102  0.5226  0.7970  1.6962
 9620TIP3   OH250350   5.610   1.499   1.115  0.2266  0.0054 -0.2557
 9620TIP3    H150351   5.563   1.430   1.161  2.2918 -0.0587  1.9915
 9620TIP3    H250352   5.685   1.455   1.075  1.0957  0.7687  0.4739
 9621TIP3   OH250353   6.053   3.209   3.005  0.3320  0.2700 -0.0791
 9621TIP3    H150354   6.133   3.228   2.957 -1.1702  1.0858 -2.4165
 9621TIP3    H250355   6.056   3.115   3.022  0.3951 -0.2952 -2.8835
 9622TIP3   OH250356   5.119   0.770  11.809 -0.3587 -0.2696  0.7581
 9622TIP3    H150357   5.137   0.863  11.814 -1.6045  0.0151  0.3102
 9622TIP3    H250358   5.024   0.763  11.814 -0.3845 -1.4022 -0.6125
 9623TIP3   OH250359   1.846   4.350   1.605  0.1024 -0.0941 -0.4436
 9623TIP3    H150360   1.796   4.398   1.671 -1.0558 -0.6198 -0.9154
 9623TIP3    H250361   1.783   4.289   1.566  0.9065 -0.2054 -1.6283
 9624TIP3   OH250362   0.524   2.612   6.189 -0.3493 -0.2031  0.2368
 9624TIP3    H150363   0.580   2.641   6.118 -0.5454 -1.6561 -0.5574
 9624TIP3    H250364   0.456   2.679   6.196  0.1818  0.4041 -0.3359
 9625TIP3   OH250365   2.362   2.990  14.553 -0.0976  0.1261  0.3258
 9625TIP3    H150366   2.369   2.912  14.498  1.2646  1.2674 -1.1859
 9625TIP3    H250367   2.440   3.041  14.533 -0.0402  1.0525  2.6361
 9626TIP3   OH250368   5.153   0.526  10.908  0.0543 -0.1581  0.1456
 9626TIP3    H150369   5.193   0.518  10.994  1.0263 -1.5728 -0.4089
 9626TIP3    H250370   5.089   0.596  10.918  1.0514  0.5831  1.6661
 9627TIP3   OH250371   2.408   4.217  16.830  0.2372 -1.0178  0.5152
 9627TIP3    H150372   2.400   4.300  16.875 -1.2327 -0.5022 -0.6170
 9627TIP3    H250373   2.488   4.178  16.865  1.0694  0.9457  0.9300
 9628TIP3   OH250374   6.500   6.338  11.298  0.0547 -0.2016  0.1051
 9628TIP3    H150375   6.588   6.301  11.309  0.1398  0.4678  1.9670
 9628TIP3    H250376   6.515   6.432  11.290 -0.3705 -0.2499 -1.8245
 9629TIP3   OH250377   2.678   1.220   3.975 -0.3797  0.2253  0.2254
 9629TIP3    H150378   2.649   1.311   3.982  2.0616  1.0023  0.9863
 9629TIP3    H250379   2.725   1.216   3.891  0.4041 -0.0469  0.6690
 9630TIP3   OH250380   0.794   1.241  12.676 -0.7933  0.4408 -0.3788
 9630TIP3    H150381   0.768   1.150  12.691  0.3086  0.1980  0.1351
 9630TIP3    H250382   0.845   1.239  12.595  0.4344  0.3516  0.3781
 9631TIP3   OH250383   0.577   5.439  15.472  0.2314 -0.3788 -0.5039
 9631TIP3    H150384   0.581   5.499  15.398  1.9729 -1.1793 -1.1163
 9631TIP3    H250385   0.544   5.492  15.545  0.5683  0.9838 -1.3169
 9632TIP3   OH250386   0.215   4.643  11.602  0.4471 -0.7233  0.4251
 9632TIP3    H150387   0.275   4.645  11.676  0.6495 -0.8663  0.2639
 9632TIP3    H250388   0.271   4.641  11.525  0.2496  0.5277  0.2248
 9633TIP3   OH250389   3.168   1.988   2.372  0.6288  0.4409  0.0885
 9633TIP3    H150390   3.153   1.894   2.382  0.0448  0.6525  1.4634
 9633TIP3    H250391   3.254   2.003   2.410  2.0750  0.0639 -2.7957
 9634TIP3   OH250392   5.791   5.043   6.517  0.2369  0.3717  0.1960
 9634TIP3    H150393   5.746   5.092   6.585 -0.1260  0.3958 -0.0583
 9634TIP3    H250394   5.825   5.111   6.458 -0.0379  0.3316 -0.0131
 9635TIP3   OH250395   5.371   1.216   3.680 -0.4851  0.2112  0.4169
 9635TIP3    H150396   5.345   1.219   3.588 -0.8035  0.5110  0.5183
 9635TIP3    H250397   5.456   1.260   3.683  0.1813 -1.0182  0.0404
 9636TIP3   OH250398   5.343   6.147   0.514  0.5774 -0.4675 -0.0943
 9636TIP3    H150399   5.413   6.201   0.551  0.6720 -0.5246 -0.1850
 9636TIP3    H250400   5.323   6.083   0.582 -0.6542  0.6558  0.6464
 9637TIP3   OH250401   6.405   4.406  11.189 -0.2089  0.4519 -0.1599
 9637TIP3    H150402   6.376   4.361  11.110 -0.9327 -0.9386  0.8674
 9637TIP3    H250403   6.474   4.350  11.225 -0.9961  0.2359  1.0437
 9638TIP3   OH250404   2.883   6.116   1.341 -0.2799 -0.1850  0.3375
 9638TIP3    H150405   2.790   6.107   1.321 -0.1602 -0.0556 -0.3010
 9638TIP3    H250406   2.925   6.044   1.293 -0.1910 -1.1484  1.7891
 9639TIP3   OH250407   3.914   4.060   5.660  0.5726 -0.3278 -0.2241
 9639TIP3    H150408   3.935   4.012   5.579 -1.3233 -1.5353 -0.0637
 9639TIP3    H250409   3.970   4.020   5.726 -0.5328 -2.0012 -0.2257
 9640TIP3   OH250410   3.707   4.237   2.110 -0.1881  0.4971 -0.4319
 9640TIP3    H150411   3.681   4.288   2.187 -0.4848  0.0260 -0.2139
 9640TIP3    H250412   3.801   4.225   2.119 -0.0154  1.4679 -0.7697
 9641TIP3   OH250413   4.544   3.663  15.942  0.5036 -0.1304  0.1809
 9641TIP3    H150414   4.589   3.748  15.935 -0.6450  0.3577 -1.9281
 9641TIP3    H250415   4.501   3.651  15.858 -0.5992 -2.1404  0.9611
 9642TIP3   OH250416   1.971   5.401   3.183 -0.1154 -0.8045  0.4353
 9642TIP3    H150417   2.017   5.418   3.265  0.3435  2.6643 -0.3806
 9642TIP3    H250418   2.034   5.355   3.129  0.3489 -1.1784  1.2884
 9643TIP3   OH250419   3.319   2.757   1.430  0.7946 -0.5559 -0.2662
 9643TIP3    H150420   3.341   2.720   1.515 -0.1679  1.4226  0.8935
 9643TIP3    H250421   3.392   2.816   1.410  1.5789 -1.8438 -1.3989
 9644TIP3   OH250422   5.199   6.129  12.813  0.0008  0.1306 -0.5058
 9644TIP3    H150423   5.275   6.071  12.813  0.9100  1.2801 -0.2932
 9644TIP3    H250424   5.125   6.073  12.837  0.8629 -0.9065 -0.2227
 9645TIP3   OH250425   1.175   3.820   5.204  0.0960 -0.3232 -0.1269
 9645TIP3    H150426   1.095   3.842   5.157  0.4340 -0.4538 -0.7715
 9645TIP3    H250427   1.145   3.786   5.288 -0.5360 -0.5672 -0.4471
 9646TIP3   OH250428   1.336   1.759   1.629  0.8142 -0.2225  0.2029
 9646TIP3    H150429   1.261   1.701   1.644  0.9050 -0.3249  0.2597
 9646TIP3    H250430   1.340   1.769   1.534  0.2886  0.3619  0.2340
 9647TIP3   OH250431   3.288   2.810  13.413 -0.1124 -0.1034  0.1420
 9647TIP3    H150432   3.317   2.852  13.332 -0.3754 -0.4661 -0.1458
 9647TIP3    H250433   3.367   2.768  13.447 -0.3442 -1.3826 -0.8191
 9648TIP3   OH250434   0.291   6.667   5.809  0.5200 -0.3753 -0.2744
 9648TIP3    H150435   0.380   6.701   5.822 -1.0513  3.6243  1.5981
 9648TIP3    H250436   0.267   6.697   5.721  1.0307 -1.6734 -0.8823
 9649TIP3   OH250437   5.330   3.352   2.988 -0.9420  0.1494  0.1775
 9649TIP3    H150438   5.268   3.417   2.956 -2.0786 -0.6041  0.7897
 9649TIP3    H250439   5.276   3.280   3.020  0.2155 -0.2563  1.3320
 9650TIP3   OH250440   4.270   4.248   1.199 -0.2190  1.0158 -0.1848
 9650TIP3    H150441   4.351   4.283   1.236  0.4708  0.7970 -1.4167
 9650TIP3    H250442   4.255   4.302   1.121 -1.4922  1.3194  0.2643
 9651TIP3   OH250443   5.739   0.858   1.497 -0.2772 -0.0577  0.1324
 9651TIP3    H150444   5.810   0.915   1.470 -0.0135  0.5369  1.9095
 9651TIP3    H250445   5.662   0.889   1.449 -0.1731  1.9112  1.1308
 9652TIP3   OH250446   1.022   0.834  16.684  0.8596 -0.2877 -0.6478
 9652TIP3    H150447   1.071   0.845  16.603 -0.9283 -1.3134 -1.9402
 9652TIP3    H250448   0.942   0.885  16.672  0.1143 -1.2378  0.0199
 9653TIP3   OH250449   2.690   5.256  14.527 -0.0990  0.1557  0.0472
 9653TIP3    H150450   2.766   5.308  14.553  0.4272 -1.4465  1.9633
 9653TIP3    H250451   2.625   5.274  14.595 -0.3122 -0.7844  0.0999
 9654TIP3   OH250452   1.146   6.159   4.994  0.1352 -0.7865  0.3160
 9654TIP3    H150453   1.205   6.142   4.920  0.9317  0.6389  0.5702
 9654TIP3    H250454   1.145   6.077   5.044 -3.4680 -3.2154 -3.1812
 9655TIP3   OH250455   2.494   5.017   0.939  0.1456 -0.2243 -0.1785
 9655TIP3    H150456   2.577   5.043   0.980 -0.2897  0.3847  0.3314
 9655TIP3    H250457   2.467   5.094   0.889 -0.1484 -0.4001 -0.2930
 9656TIP3   OH250458   4.140   5.907  12.121 -0.4914  0.0177  0.1334
 9656TIP3    H150459   4.132   5.873  12.032 -2.2263  0.6633  0.0112
 9656TIP3    H250460   4.228   5.944  12.124  0.6152 -2.3352 -0.4431
 9657TIP3   OH250461   6.468   0.588   1.981  0.3798 -0.2046  0.4384
 9657TIP3    H150462   6.429   0.564   1.897 -1.9688  0.8305  1.1161
 9657TIP3    H250463   6.531   0.657   1.960  1.3868 -1.4357 -0.6575
 9658TIP3   OH250464   0.047   2.078  12.412 -0.0524 -0.0885  0.4386
 9658TIP3    H150465   0.112   2.103  12.347  0.9985  0.1006  1.5259
 9658TIP3    H250466   0.098   2.041  12.484 -1.2119 -0.6834  0.9906
 9659TIP3   OH250467   6.487   6.629  11.813 -0.8558  0.4828 -0.3868
 9659TIP3    H150468   6.516   6.720  11.817 -1.1578  0.5393  2.1923
 9659TIP3    H250469   6.392   6.633  11.824 -0.7250 -0.1748  1.2210
 9660TIP3   OH250470   3.906   4.835   0.725 -0.1888  0.4150 -0.2856
 9660TIP3    H150471   3.903   4.748   0.764 -1.4234  0.7403  0.3852
 9660TIP3    H250472   3.998   4.847   0.700 -0.1267 -1.3251 -1.0002
 9661TIP3   OH250473   4.296   5.123  13.753 -0.1366 -0.3556 -0.2584
 9661TIP3    H150474   4.273   5.155  13.666 -0.9427  0.0081  0.0753
 9661TIP3    H250475   4.309   5.029  13.742 -1.0514 -0.4480 -0.6138
 9662TIP3   OH250476   2.027   5.268  15.914 -0.0628 -0.1656 -0.5276
 9662TIP3    H150477   2.000   5.311  15.995  1.6705 -0.0296  0.0268
 9662TIP3    H250478   2.106   5.314  15.888  1.4985 -2.5168 -0.2746
 9663TIP3   OH250479   1.737   3.379   5.383 -0.2549 -0.1627 -0.3860
 9663TIP3    H150480   1.797   3.339   5.445  0.5365 -0.5068 -1.3364
 9663TIP3    H250481   1.688   3.443   5.434  1.0434  0.2467  0.3876
 9664TIP3   OH250482   3.599   1.099  16.685  0.1419  0.1895  0.1606
 9664TIP3    H150483   3.536   1.160  16.725 -1.8901 -0.9320 -1.1253
 9664TIP3    H250484   3.681   1.148  16.683 -0.4682  1.5050  2.5335
 9665TIP3   OH250485   4.065   2.304   4.554  0.0099 -0.4424 -0.1478
 9665TIP3    H150486   4.075   2.399   4.553 -1.1632 -0.3156 -1.0912
 9665TIP3    H250487   4.132   2.272   4.494  1.9584 -0.4164  1.8924
 9666TIP3   OH250488   5.939   3.451  12.742 -0.0996  0.2000 -0.2774
 9666TIP3    H150489   6.022   3.413  12.714 -0.8019 -0.6475 -1.2811
 9666TIP3    H250490   5.962   3.536  12.779  1.2165 -0.0631 -0.4622
 9667TIP3   OH250491   5.319   4.076   4.090 -0.9650 -0.0438 -0.7650
 9667TIP3    H150492   5.404   4.070   4.133 -1.1486  1.4165 -0.1358
 9667TIP3    H250493   5.339   4.085   3.997 -0.4479 -0.0686 -0.6572
 9668TIP3   OH250494   0.670   1.199  11.924  0.4535  0.0645  0.2424
 9668TIP3    H150495   0.577   1.201  11.902  0.6408  0.4499 -0.5544
 9668TIP3    H250496   0.714   1.236  11.847  1.3029 -0.6160  0.3795
 9669TIP3   OH250497   0.071   2.341  13.494 -0.1901  0.0123  0.2459
 9669TIP3    H150498   0.149   2.349  13.549  0.0792  0.6967 -0.2135
 9669TIP3    H250499   0.062   2.427  13.453 -1.6196  0.1837  0.8608
 9670TIP3   OH250500   5.627   3.600   4.734 -0.0162  0.3394  0.1043
 9670TIP3    H150501   5.702   3.545   4.713  0.5489  1.3257 -0.5290
 9670TIP3    H250502   5.551   3.549   4.706  0.5599  0.4090 -1.6958
 9671TIP3   OH250503   5.477   0.259   3.985 -0.1118 -0.5350  0.1993
 9671TIP3    H150504   5.427   0.341   3.983 -0.4223 -0.7145  0.6487
 9671TIP3    H250505   5.569   0.288   3.987 -0.2298 -0.1397  2.3024
 9672TIP3   OH250506   0.182   1.574  12.737  0.2211  0.1613 -0.0378
 9672TIP3    H150507   0.106   1.571  12.680 -0.2809  1.1436  0.5633
 9672TIP3    H250508   0.256   1.588  12.678 -0.3727  1.9342 -0.4178
 9673TIP3   OH250509   0.378   3.797  15.064  0.2990 -0.2796  0.6117
 9673TIP3    H150510   0.302   3.850  15.038  0.3434  0.2116  1.4599
 9673TIP3    H250511   0.343   3.733  15.125  0.4234 -0.6055  0.3441
 9674TIP3   OH250512   0.339   0.834   1.964 -0.4619 -0.4270  0.0097
 9674TIP3    H150513   0.308   0.778   2.036 -0.1763 -0.1109  0.3832
 9674TIP3    H250514   0.276   0.907   1.962 -1.2128 -1.0750 -0.8998
 9675TIP3   OH250515   0.901   4.755  13.218 -0.0335  0.2620 -0.3819
 9675TIP3    H150516   0.936   4.834  13.175  0.3370 -0.6100 -1.7625
 9675TIP3    H250517   0.854   4.709  13.148  0.4471 -1.1331  0.1796
 9676TIP3   OH250518   5.540   2.473  13.268  0.1368  0.0140  0.3423
 9676TIP3    H150519   5.591   2.554  13.269  1.2649 -0.6583  1.5149
 9676TIP3    H250520   5.450   2.501  13.259  0.6594  1.2786 -1.4315
 9677TIP3   OH250521   4.417   6.751   0.978  0.0056 -0.1906 -0.7542
 9677TIP3    H150522   4.439   6.768   1.069  1.1475 -0.0116 -1.0519
 9677TIP3    H250523   4.461   6.821   0.929  0.4360 -1.0015 -1.5467
 9678TIP3   OH250524   5.239   5.904  12.010  0.1698 -0.1242 -0.2644
 9678TIP3    H150525   5.303   5.975  12.016  0.6477 -0.5649 -0.0304
 9678TIP3    H250526   5.157   5.947  11.985  0.5524  0.4488 -0.5498
 9679TIP3   OH250527   3.264   3.362  16.954  0.3345 -0.1060 -0.4170
 9679TIP3    H150528   3.216   3.379  16.873 -1.6275  0.7217  0.8559
 9679TIP3    H250529   3.262   3.266  16.963 -0.0128 -0.1583 -1.0069
 9680TIP3   OH250530   1.020   5.552   0.780  0.6526 -0.5508 -0.2051
 9680TIP3    H150531   1.089   5.493   0.750  1.2380 -0.2967  0.6036
 9680TIP3    H250532   1.017   5.540   0.875  1.0071  0.9303  0.0253
 9681TIP3   OH250533   6.811   1.564   4.771  0.1055 -0.1420 -0.3422
 9681TIP3    H150534   6.902   1.550   4.797 -0.1607  0.3872  0.9616
 9681TIP3    H250535   6.761   1.552   4.852 -0.8788  0.6556 -0.8141
 9682TIP3   OH250536   2.743   4.044  11.877 -0.4946  0.4405  0.1838
 9682TIP3    H150537   2.692   4.087  11.945  0.6935  0.4176  1.1207
 9682TIP3    H250538   2.790   4.115  11.833  0.6718  0.2333  1.0561
 9683TIP3   OH250539   1.239   2.212  13.688 -0.4812 -0.2537 -0.5382
 9683TIP3    H150540   1.233   2.121  13.718  0.5946 -0.1902 -0.1164
 9683TIP3    H250541   1.251   2.263  13.768 -0.6206  0.2229 -0.8189
 9684TIP3   OH250542   3.013   0.725  12.759 -0.0052  0.2405  0.7945
 9684TIP3    H150543   3.074   0.792  12.730 -1.2556  1.6200  1.2010
 9684TIP3    H250544   3.066   0.646  12.771  1.5481  1.2207  0.5279
 9685TIP3   OH250545   5.962   4.419   1.888 -0.1534 -0.4713  0.0922
 9685TIP3    H150546   6.037   4.365   1.863  0.6505  0.7486 -0.2213
 9685TIP3    H250547   5.992   4.469   1.964 -1.5494 -1.8646  1.6447
 9686TIP3   OH250548   2.788   4.676   3.269 -0.0119 -0.4334 -0.5173
 9686TIP3    H150549   2.723   4.620   3.226  0.2792 -0.2340 -1.2234
 9686TIP3    H250550   2.848   4.701   3.200  0.4142 -0.0291 -0.0088
 9687TIP3   OH250551   0.221   1.899  13.034 -0.1657  0.0772  0.1499
 9687TIP3    H150552   0.229   1.981  13.083 -1.9704  0.1684  0.3368
 9687TIP3    H250553   0.263   1.916  12.950 -2.4494  1.9704 -0.7006
 9688TIP3   OH250554   3.243   0.334   0.128  0.5375  0.5380 -0.8193
 9688TIP3    H150555   3.333   0.303   0.121  0.6056  0.2577  0.8297
 9688TIP3    H250556   3.192   0.272   0.076  1.0826 -0.4560 -0.2090
 9689TIP3   OH250557   3.495   1.305   0.333 -0.0899  0.1805  0.5034
 9689TIP3    H150558   3.416   1.317   0.386 -0.1861  0.7350  0.2411
 9689TIP3    H250559   3.566   1.337   0.388 -0.0870 -0.0105  0.6121
 9690TIP3   OH250560   1.036   3.848  11.439 -0.6994 -0.5691 -0.6712
 9690TIP3    H150561   1.060   3.866  11.348  0.5475 -0.8237 -0.4064
 9690TIP3    H250562   1.025   3.753  11.441  1.0088 -0.7895 -0.1864
 9691TIP3   OH250563   3.668   3.533   1.879  0.5539  0.1972 -0.1966
 9691TIP3    H150564   3.727   3.485   1.820  1.3004  0.4430  0.3318
 9691TIP3    H250565   3.644   3.611   1.831  0.8776  0.2239 -0.3221
 9692TIP3   OH250566   2.588   6.345  14.460  0.0237 -0.2998 -0.0761
 9692TIP3    H150567   2.593   6.426  14.410 -2.0789  0.1398  0.3318
 9692TIP3    H250568   2.670   6.299  14.440 -0.9698 -0.5684 -4.5273
 9693TIP3   OH250569   1.288   3.560  15.768  0.4875 -0.6944  0.1471
 9693TIP3    H150570   1.379   3.592  15.770  0.4600 -0.6354  0.4877
 9693TIP3    H250571   1.247   3.612  15.699  0.5144 -0.1759  0.5111
 9694TIP3   OH250572   3.004   1.254   1.464  0.5465 -0.0960  0.5205
 9694TIP3    H150573   3.032   1.270   1.554 -0.1411  2.0713  0.4015
 9694TIP3    H250574   2.910   1.273   1.464  1.0826  3.2593 -1.2710
 9695TIP3   OH250575   0.701   2.272   5.983  0.0061  0.1188  0.5958
 9695TIP3    H150576   0.733   2.357   6.014 -0.6180  0.7756 -0.4893
 9695TIP3    H250577   0.671   2.289   5.893  1.0907 -1.5434 -0.1351
 9696TIP3   OH250578   6.504   0.566  14.646  0.0290 -0.0996 -0.2118
 9696TIP3    H150579   6.499   0.636  14.711 -1.6523  1.1437 -1.6106
 9696TIP3    H250580   6.413   0.543  14.629  0.5206 -1.9478 -0.5489
 9697TIP3   OH250581   5.536   6.431   1.788  0.4339 -0.4193  0.1938
 9697TIP3    H150582   5.537   6.517   1.831  1.2669  0.7153 -1.9202
 9697TIP3    H250583   5.472   6.441   1.716  0.8268 -1.4331 -0.3148
 9698TIP3   OH250584   0.108   5.854   1.367 -0.4158 -0.5519  0.1262
 9698TIP3    H150585   0.159   5.869   1.287 -0.8653 -0.1346 -0.0935
 9698TIP3    H250586   0.170   5.871   1.438 -0.2915  0.1450 -0.1345
 9699TIP3   OH250587   1.866   3.783   2.620 -0.2734  0.5097 -0.8027
 9699TIP3    H150588   1.863   3.694   2.655  0.3132  0.8358  0.1183
 9699TIP3    H250589   1.914   3.833   2.686 -2.2458  1.9450 -0.3587
 9700TIP3   OH250590   1.702   0.676   1.911 -0.0941  0.5072 -0.3344
 9700TIP3    H150591   1.763   0.742   1.878  0.0720  0.9573  0.8082
 9700TIP3    H250592   1.728   0.595   1.868  0.3024  1.0038 -1.0457
 9701TIP3   OH250593   0.906   5.491   1.542  1.3555  0.2058  0.1968
 9701TIP3    H150594   0.870   5.420   1.594  0.5039 -0.4604 -1.2469
 9701TIP3    H250595   0.927   5.560   1.605  0.1990 -0.5004  1.3810
 9702TIP3   OH250596   2.373   5.728   1.133  0.0082 -0.6519 -0.0370
 9702TIP3    H150597   2.378   5.794   1.202  0.4892  1.6468 -2.1528
 9702TIP3    H250598   2.282   5.697   1.137 -0.3589  0.4496  0.7368
 9703TIP3   OH250599   0.972   6.452   1.070  0.9911 -0.0837 -0.5039
 9703TIP3    H150600   0.897   6.398   1.093  1.4733 -0.8496 -0.6755
 9703TIP3    H250601   0.963   6.467   0.976  0.4054  0.8604 -0.3061
 9704TIP3   OH250602   5.612   5.972   5.702 -0.1612 -0.0516 -0.3220
 9704TIP3    H150603   5.647   5.887   5.730 -0.3084  0.3065  1.0337
 9704TIP3    H250604   5.525   5.976   5.741 -0.8530  0.0162 -1.8075
 9705TIP3   OH250605   0.411   2.117   5.423  0.5940  0.0253  0.6330
 9705TIP3    H150606   0.449   2.193   5.468  1.1658  0.2266 -0.1551
 9705TIP3    H250607   0.326   2.105   5.464  0.1525  1.5858  0.2470
 9706TIP3   OH250608   5.583   0.995   1.312 -0.0926  0.9192 -0.1184
 9706TIP3    H150609   5.589   0.909   1.273 -1.7560  1.3989 -1.5537
 9706TIP3    H250610   5.607   1.056   1.242 -2.0379  1.7439 -0.1310
 9707TIP3   OH250611   2.750   4.962   4.949 -0.2765 -0.1534  0.2230
 9707TIP3    H150612   2.750   4.869   4.969 -0.0089  0.0488  1.1907
 9707TIP3    H250613   2.736   5.006   5.033 -0.9802  0.6700 -0.2942
 9708TIP3   OH250614   2.152   6.833   5.267 -0.2848 -0.1581 -0.7080
 9708TIP3    H150615   2.077   6.774   5.267  0.2383 -0.8454 -0.7509
 9708TIP3    H250616   2.145   6.881   5.349  0.3355 -1.6951  0.3016
 9709TIP3   OH250617   2.799   6.713  14.617  0.7109 -0.1662 -0.3618
 9709TIP3    H150618   2.869   6.773  14.592  0.1811  2.0434  2.7495
 9709TIP3    H250619   2.719   6.752  14.580  0.6374 -0.1557 -0.1965
 9710TIP3   OH250620   2.048   2.811  13.830 -0.2144 -0.0133 -0.0824
 9710TIP3    H150621   2.063   2.897  13.870 -0.4580 -0.2502  0.5305
 9710TIP3    H250622   2.126   2.760  13.852 -0.2151 -0.0497 -0.1649
 9711TIP3   OH250623   1.855   3.314   2.852 -0.2546 -0.1689 -0.8679
 9711TIP3    H150624   1.762   3.331   2.835 -1.3613 -2.8247  1.6561
 9711TIP3    H250625   1.883   3.257   2.780 -0.9975 -0.4048 -0.9773
 9712TIP3   OH250626   0.956   4.312   5.688  0.4304  0.8039  0.7204
 9712TIP3    H150627   1.045   4.284   5.708  0.0207 -2.4812 -1.3158
 9712TIP3    H250628   0.900   4.255   5.741 -0.4276 -0.3739 -1.3183
 9713TIP3   OH250629   2.205   0.590   0.624 -0.3779  0.5544  0.3785
 9713TIP3    H150630   2.193   0.536   0.546 -1.5175 -0.7975  1.4391
 9713TIP3    H250631   2.157   0.671   0.606  1.7193  1.4952 -1.4078
 9714TIP3   OH250632   4.508   1.880   1.123  0.1591 -0.1595  0.7489
 9714TIP3    H150633   4.525   1.786   1.124  3.4208  0.3032 -0.1280
 9714TIP3    H250634   4.564   1.915   1.192 -1.4886  1.1344  1.4986
 9715TIP3   OH250635   1.533   1.814  15.751  0.3475  0.5363 -0.0548
 9715TIP3    H150636   1.565   1.900  15.777  1.4365 -0.4080  2.0667
 9715TIP3    H250637   1.468   1.791  15.818  0.7378 -0.6460 -0.0491
 9716TIP3   OH250638   6.503   0.165   2.389  0.1018  0.1770  0.2057
 9716TIP3    H150639   6.407   0.161   2.395 -0.1766  1.4102 -2.1159
 9716TIP3    H250640   6.532   0.176   2.480 -1.9459 -0.0951  0.9630
 9717TIP3   OH250641   5.053   5.437   2.902 -0.0857  0.5274 -0.0493
 9717TIP3    H150642   5.106   5.356   2.906 -0.4266  0.3006 -0.1209
 9717TIP3    H250643   5.111   5.501   2.861 -0.5770 -0.2895 -2.1360
 9718TIP3   OH250644   5.592   0.875  13.764  0.4389  0.4880  0.1639
 9718TIP3    H150645   5.542   0.903  13.688  0.7824  0.7833  0.0482
 9718TIP3    H250646   5.560   0.930  13.835  2.3955  2.5076 -0.4261
 9719TIP3   OH250647   5.273   1.655  14.066 -0.1357  0.6550  0.2629
 9719TIP3    H150648   5.272   1.615  14.153  2.6370 -1.4099 -0.5085
 9719TIP3    H250649   5.193   1.623  14.024  0.3657 -1.5171  0.8216
 9720TIP3   OH250650   2.117   0.894   5.674  0.4927  0.2697 -0.1429
 9720TIP3    H150651   2.022   0.905   5.665  0.1525 -2.7423 -1.5032
 9720TIP3    H250652   2.127   0.835   5.749  1.0338 -1.2762 -1.3572
 9721TIP3   OH250653   6.249   4.655  11.035 -0.1022 -0.4857 -0.1772
 9721TIP3    H150654   6.274   4.580  10.981 -0.2094 -0.2622 -0.5379
 9721TIP3    H250655   6.331   4.700  11.054 -0.2234  0.3692 -1.5392
 9722TIP3   OH250656   4.709   0.399   1.351 -0.5950 -0.1952 -0.1717
 9722TIP3    H150657   4.639   0.446   1.397 -0.8134 -1.5083  0.8934
 9722TIP3    H250658   4.666   0.365   1.272 -1.5126 -1.9329  1.0095
 9723TIP3   OH250659   5.392   1.031   0.101 -0.0617  0.0052 -0.2956
 9723TIP3    H150660   5.373   1.079   0.020  0.0893  2.1183  0.8414
 9723TIP3    H250661   5.475   0.987   0.084  0.3803  1.0809 -1.0187
 9724TIP3   OH250662   4.509   5.133  15.079  0.4921  0.7402  0.0675
 9724TIP3    H150663   4.454   5.148  15.003  0.7959  0.8556 -0.1302
 9724TIP3    H250664   4.582   5.194  15.069  1.2812 -0.2396 -0.2915
 9725TIP3   OH250665   6.260   5.360  11.983  0.8370  0.1701 -0.0638
 9725TIP3    H150666   6.328   5.400  11.929 -0.1269  1.4881 -0.3662
 9725TIP3    H250667   6.211   5.434  12.019 -0.4853 -0.7295  0.0641
 9726TIP3   OH250668   1.500   4.798  11.339 -0.0799  0.6140 -0.1728
 9726TIP3    H150669   1.563   4.746  11.289  0.4044  0.7552  0.2851
 9726TIP3    H250670   1.458   4.854  11.273 -0.0115  0.2348 -0.5417
 9727TIP3   OH250671   5.143   1.191   1.390 -0.5386  0.2837  0.0079
 9727TIP3    H150672   5.193   1.109   1.389 -2.3732 -0.9023  0.7768
 9727TIP3    H250673   5.189   1.248   1.328  1.1089 -1.1146 -0.1289
 9728TIP3   OH250674   2.636   2.955  16.789  0.4993 -0.2120 -0.0772
 9728TIP3    H150675   2.630   2.952  16.884 -1.3091  2.4194 -0.0029
 9728TIP3    H250676   2.709   3.015  16.771 -0.5679  1.0907 -0.2425
 9729TIP3   OH250677   2.156   0.367  14.013  0.3893 -0.6698  0.8247
 9729TIP3    H150678   2.239   0.331  13.979 -0.0710 -0.4869 -0.5669
 9729TIP3    H250679   2.172   0.461  14.020  0.1721 -0.5808  0.1546
 9730TIP3   OH250680   2.971   3.583   4.269 -0.0576  0.0442 -0.4287
 9730TIP3    H150681   2.911   3.619   4.204  0.6961  1.0219 -0.5964
 9730TIP3    H250682   3.040   3.649   4.278  0.1333 -0.3155  0.9750
 9731TIP3   OH250683   4.715   3.387  12.676 -0.1460 -0.2199 -0.5102
 9731TIP3    H150684   4.805   3.408  12.648  0.5505 -1.6642  0.5173
 9731TIP3    H250685   4.709   3.422  12.764 -0.7735  0.3012 -0.7547
 9732TIP3   OH250686   3.103   6.462   3.540  0.7140  0.0444 -0.1874
 9732TIP3    H150687   3.167   6.405   3.499  0.5933 -0.0526 -0.2422
 9732TIP3    H250688   3.152   6.542   3.561  0.7187  0.1990 -0.7597
 9733TIP3   OH250689   2.442   0.206  16.182  0.3550 -0.0867  0.3502
 9733TIP3    H150690   2.501   0.146  16.137  1.0913  0.9974 -0.1747
 9733TIP3    H250691   2.468   0.199  16.274  1.4276  0.4845  0.1100
 9734TIP3   OH250692   1.575   5.781   2.039 -0.1194 -0.1845 -0.1305
 9734TIP3    H150693   1.526   5.726   1.977  0.9366 -0.2663 -0.9084
 9734TIP3    H250694   1.547   5.870   2.018  0.0537 -0.2308 -0.5533
 9735TIP3   OH250695   2.170   6.854   6.562 -0.1937  0.0219  0.2072
 9735TIP3    H150696   2.089   6.905   6.555 -0.2617 -0.2049 -0.8999
 9735TIP3    H250697   2.144   6.775   6.611 -0.5520  0.1258  0.1878
 9736TIP3   OH250698   0.830   0.649   1.942  0.1711  0.3474 -0.2491
 9736TIP3    H150699   0.740   0.645   1.910 -0.5272 -0.4364  1.6909
 9736TIP3    H250700   0.822   0.675   2.034  1.9895  1.0401 -0.2473
 9737TIP3   OH250701   0.824   2.480  11.865  0.1000 -0.4079  0.3681
 9737TIP3    H150702   0.883   2.537  11.816 -0.9930 -0.1560 -0.6908
 9737TIP3    H250703   0.881   2.414  11.905  1.1358  0.1066 -0.2366
 9738TIP3   OH250704   4.404   5.646   2.432  0.2795 -0.0583  0.1655
 9738TIP3    H150705   4.438   5.581   2.494  0.2231  1.1821  1.5626
 9738TIP3    H250706   4.309   5.642   2.444  0.0718 -1.4490 -1.5881
 9739TIP3   OH250707   5.575   2.937   2.126 -0.1498  0.1225  0.2095
 9739TIP3    H150708   5.585   3.030   2.107 -0.3055  0.2442  0.7021
 9739TIP3    H250709   5.524   2.902   2.054  1.0940  0.1320 -0.7136
 9740TIP3   OH250710   4.400   1.922   3.053  0.6413 -0.2384  0.0243
 9740TIP3    H150711   4.466   1.861   3.020 -1.1391 -1.5761 -1.2329
 9740TIP3    H250712   4.405   1.997   2.993 -0.5129 -1.3543 -1.5584
 9741TIP3   OH250713   0.945   0.666   1.230 -0.1887 -0.2860 -0.0174
 9741TIP3    H150714   0.956   0.759   1.208 -1.4035 -0.0515  0.2625
 9741TIP3    H250715   0.863   0.642   1.186 -1.4022 -0.4496  2.2239
 9742TIP3   OH250716   0.995   3.612   1.466  0.6082 -0.3310  0.1996
 9742TIP3    H150717   1.036   3.596   1.381  0.1693  0.1782 -0.1192
 9742TIP3    H250718   1.069   3.625   1.526  0.9346 -1.5551  0.0855
 9743TIP3   OH250719   0.276   0.171  13.185  0.5629 -0.0499  0.0825
 9743TIP3    H150720   0.321   0.122  13.254 -1.3125  1.6178  2.7036
 9743TIP3    H250721   0.342   0.230  13.150  1.5129 -0.7803  0.6055
 9744TIP3   OH250722   2.209   6.002   1.962 -0.5390 -0.2257 -0.0888
 9744TIP3    H150723   2.251   6.067   2.018 -0.5891 -1.1138  1.0244
 9744TIP3    H250724   2.124   6.041   1.940 -0.1895  0.4798 -0.2298
 9745TIP3   OH250725   2.665   5.673   3.637 -0.2446 -0.1911  0.4833
 9745TIP3    H150726   2.638   5.618   3.563 -1.7303  0.3468  0.5810
 9745TIP3    H250727   2.647   5.763   3.607  0.7876  0.1514  0.8579
 9746TIP3   OH250728   5.963   5.859  11.178  0.7436 -0.2577  0.2679
 9746TIP3    H150729   6.038   5.893  11.226  0.0198  1.6895  0.0867
 9746TIP3    H250730   5.950   5.771  11.214  2.1361 -0.0350  1.3979
 9747TIP3   OH250731   3.839   5.520   0.036 -0.7812  0.5102  0.2649
 9747TIP3    H150732   3.893   5.593   0.004 -2.4924  1.4693 -0.6245
 9747TIP3    H250733   3.762   5.522  -0.021 -2.8316  0.6794  2.8695
 9748TIP3   OH250734   3.656   1.668  12.677 -0.4096  0.2391  0.3769
 9748TIP3    H150735   3.644   1.761  12.697 -0.5578  0.1765  0.5815
 9748TIP3    H250736   3.708   1.668  12.596  1.6292  0.4786  1.6290
 9749TIP3   OH250737   4.287   2.851  11.328 -0.2505  0.7265  0.1558
 9749TIP3    H150738   4.271   2.791  11.255 -1.5659  0.1548  0.8745
 9749TIP3    H250739   4.352   2.913  11.295 -0.2551  0.0205 -1.2356
 9750TIP3   OH250740   1.706   4.722   2.973 -0.4702  0.2751 -0.6025
 9750TIP3    H150741   1.749   4.647   2.932 -0.2027  0.1930 -0.1727
 9750TIP3    H250742   1.748   4.730   3.058  1.3754  2.5224 -1.6203
 9751TIP3   OH250743   2.718   5.320   2.738  0.5965  0.1637  0.2617
 9751TIP3    H150744   2.635   5.313   2.786  0.3971  1.6381  0.1625
 9751TIP3    H250745   2.768   5.386   2.785  0.8034  0.9175 -0.9752
 9752TIP3   OH250746   1.562   0.460   2.805 -0.2278 -0.0187 -0.0840
 9752TIP3    H150747   1.538   0.475   2.713  0.6911 -1.2309 -0.5518
 9752TIP3    H250748   1.648   0.502   2.814 -0.0149 -0.4843  0.0389
 9753TIP3   OH250749   6.692   0.508   2.127  0.0114 -0.8342  0.1967
 9753TIP3    H150750   6.652   0.486   2.211  0.2162 -2.2802 -0.0480
 9753TIP3    H250751   6.618   0.525   2.069 -0.1163  1.4056  0.9348
 9754TIP3   OH250752   5.732   5.742   5.468 -0.2946  0.2476 -0.2428
 9754TIP3    H150753   5.685   5.731   5.551 -0.9065 -0.9468 -0.7299
 9754TIP3    H250754   5.823   5.756   5.494 -0.1366 -2.0096  0.6130
 9755TIP3   OH250755   4.894   5.935   5.292  0.4638  0.5411  0.4569
 9755TIP3    H150756   4.843   5.872   5.343 -0.0726  1.1430  0.6731
 9755TIP3    H250757   4.981   5.932   5.331 -0.3397  2.2083  2.5344
 9756TIP3   OH250758   0.278   0.667  14.390  0.3017 -0.2972 -0.1546
 9756TIP3    H150759   0.198   0.662  14.337 -0.3071  0.6305  0.6347
 9756TIP3    H250760   0.263   0.606  14.462  0.7496 -0.8882 -0.5536
 9757TIP3   OH250761   5.518   2.675  11.169  0.0569 -0.0989 -0.0682
 9757TIP3    H150762   5.429   2.706  11.149  0.4219 -0.0368 -1.8068
 9757TIP3    H250763   5.551   2.736  11.234 -0.4111  1.2120 -1.0061
 9758TIP3   OH250764   5.464   3.324  16.441  0.4161  0.1331 -0.1343
 9758TIP3    H150765   5.402   3.344  16.511  1.5763  0.0484  0.9556
 9758TIP3    H250766   5.418   3.260  16.386 -1.1120  1.3793 -0.3691
 9759TIP3   OH250767   5.698   6.427   0.808 -0.1987 -0.7163  0.4647
 9759TIP3    H150768   5.684   6.339   0.844 -1.6647 -1.0047 -0.6970
 9759TIP3    H250769   5.758   6.413   0.734 -0.0146 -0.6729  0.6081
 9760TIP3   OH250770   1.750   6.071  13.636 -0.0105  0.3634 -0.0075
 9760TIP3    H150771   1.708   6.022  13.566 -0.7360 -0.3555  0.9045
 9760TIP3    H250772   1.688   6.142  13.656 -0.6572 -0.4768  1.0839
 9761TIP3   OH250773   4.369   5.347   5.974  0.1539 -0.2232  0.0374
 9761TIP3    H150774   4.432   5.309   5.913  2.2240 -0.5501  2.2100
 9761TIP3    H250775   4.360   5.438   5.947 -0.4634 -0.8088 -1.8364
 9762TIP3   OH250776   3.895   6.440  13.385  0.3742 -0.2046  0.1024
 9762TIP3    H150777   3.855   6.509  13.332  0.0978  0.5651  1.2760
 9762TIP3    H250778   3.886   6.361  13.332 -1.3065  0.2426 -0.3431
 9763TIP3   OH250779   4.567   6.453  14.531 -0.0577  0.4985 -0.1264
 9763TIP3    H150780   4.498   6.494  14.582 -0.9819 -1.3223  0.1814
 9763TIP3    H250781   4.588   6.373  14.579 -0.5533 -0.9856 -2.2343
 9764TIP3   OH250782   2.746   5.792  14.946 -0.1753 -0.2694 -0.4928
 9764TIP3    H150783   2.820   5.836  14.987  0.1114 -1.1049 -0.0903
 9764TIP3    H250784   2.744   5.705  14.986  0.4577 -1.3401 -2.6282
 9765TIP3   OH250785   4.084   2.800   1.134 -0.2472  0.2157  0.4920
 9765TIP3    H150786   4.101   2.781   1.226 -1.2901 -0.6649  0.5393
 9765TIP3    H250787   4.033   2.881   1.135 -0.8405 -0.1459  0.7672
 9766TIP3   OH250788   2.003   2.918   4.586 -0.2113 -0.2824  0.4201
 9766TIP3    H150789   2.091   2.880   4.590  0.2841  0.9067  1.3831
 9766TIP3    H250790   2.013   3.006   4.622 -1.5792  0.3016 -0.5495
 9767TIP3   OH250791   4.986   6.138   4.583  0.1857 -0.2943  0.2072
 9767TIP3    H150792   4.981   6.234   4.579  0.4187 -0.3161 -0.6755
 9767TIP3    H250793   5.079   6.119   4.577  0.0511 -0.6284 -0.9889
 9768TIP3   OH250794   6.789   1.242  13.639 -0.4767  0.1192  0.5495
 9768TIP3    H150795   6.697   1.217  13.641 -0.2910 -1.0416 -1.7048
 9768TIP3    H250796   6.801   1.283  13.553  1.4738 -1.4438 -0.0042
 9769TIP3   OH250797   4.783   4.441  15.079 -0.2015 -0.3098  0.4004
 9769TIP3    H150798   4.824   4.375  15.135 -1.1411 -0.4270  0.9681
 9769TIP3    H250799   4.823   4.427  14.993  0.2605 -1.0350  0.7199
 9770TIP3   OH250800   4.978   3.396  16.555  0.0582  0.5410 -0.3785
 9770TIP3    H150801   4.940   3.308  16.551  1.1681 -0.2198  2.5266
 9770TIP3    H250802   4.936   3.437  16.631  1.1999  1.6243 -0.2908
 9771TIP3   OH250803   2.659   1.589  16.938  0.1198 -0.4342  0.0728
 9771TIP3    H150804   2.723   1.587  17.008  0.7040 -3.2323 -0.4373
 9771TIP3    H250805   2.574   1.594  16.983  0.5308 -0.9106  0.9228
 9772TIP3   OH250806   0.423   4.672   0.521  0.1724  0.3583 -0.2544
 9772TIP3    H150807   0.386   4.627   0.598 -0.3509 -0.0778 -0.7545
 9772TIP3    H250808   0.354   4.667   0.455  0.8105  0.2841 -0.9239
 9773TIP3   OH250809   2.328   1.834   5.284 -0.5863  0.3653 -0.3823
 9773TIP3    H150810   2.311   1.752   5.237  1.5732 -0.8818  0.8674
 9773TIP3    H250811   2.357   1.895   5.216  0.7322 -0.8533 -0.9768
 9774TIP3   OH250812   5.572   3.639  11.069  0.0636 -0.8132 -0.7904
 9774TIP3    H150813   5.647   3.665  11.015  1.1971 -2.2972 -0.0003
 9774TIP3    H250814   5.533   3.565  11.022 -1.3101  0.3182 -1.5006
 9775TIP3   OH250815   0.125   4.787   3.667  0.1530  0.2573  0.1300
 9775TIP3    H150816   0.173   4.862   3.703  0.5619 -0.5727  1.3474
 9775TIP3    H250817   0.040   4.823   3.641 -0.2724  0.8431  2.2133
 9776TIP3   OH250818   4.046   4.394   2.761 -0.2549 -0.2774  0.2149
 9776TIP3    H150819   4.126   4.446   2.751 -0.4859 -0.1632 -1.2834
 9776TIP3    H250820   3.982   4.437   2.704 -1.5998 -0.0019  1.8724
 9777TIP3   OH250821   6.718   5.807  13.723 -0.9607  0.0666 -0.2436
 9777TIP3    H150822   6.810   5.833  13.713 -0.8777 -0.0436  0.2395
 9777TIP3    H250823   6.720   5.712  13.719 -0.9007  0.0067  1.0306
 9778TIP3   OH250824   0.749   3.328   0.999 -0.0736 -0.0117  0.0599
 9778TIP3    H150825   0.823   3.276   0.968  1.3129  0.9241  1.5649
 9778TIP3    H250826   0.718   3.282   1.077 -1.1749 -0.4569 -0.6263
 9779TIP3   OH250827   1.289   4.976   6.026  0.2345 -0.3408  0.4606
 9779TIP3    H150828   1.301   4.894   6.074  0.7506  0.7826  2.3275
 9779TIP3    H250829   1.243   5.034   6.087 -0.8704  0.5186 -1.1132
 9780TIP3   OH250830   0.752   1.303  15.306 -0.0141  0.5139  0.2394
 9780TIP3    H150831   0.766   1.245  15.381  1.6108  0.1376 -0.3212
 9780TIP3    H250832   0.808   1.379  15.325 -0.9718  1.2313  0.2443
 9781TIP3   OH250833   1.727   3.864  15.090  0.1892  0.6756 -0.3086
 9781TIP3    H150834   1.667   3.842  15.019 -1.3924  2.2637  0.4590
 9781TIP3    H250835   1.782   3.934  15.053  1.0432 -0.2065 -0.7413
 9782TIP3   OH250836   3.295   0.010   5.411 -0.1496  0.1321  0.1402
 9782TIP3    H150837   3.381  -0.026   5.433  0.1969 -0.1446 -1.5248
 9782TIP3    H250838   3.293   0.096   5.453  0.8900  0.0867  0.2962
 9783TIP3   OH250839   3.064   4.402   0.235 -0.2475  0.2340  0.1102
 9783TIP3    H150840   3.008   4.411   0.313  0.4613 -0.7720  0.7531
 9783TIP3    H250841   3.146   4.444   0.259 -0.4466  1.0492 -0.5712
 9784TIP3   OH250842   2.476   2.094  15.340 -0.1391 -0.2635 -0.3111
 9784TIP3    H150843   2.420   2.103  15.417 -0.8937 -1.9101 -0.6228
 9784TIP3    H250844   2.565   2.108  15.374 -0.3829 -1.7046  1.0634
 9785TIP3   OH250845   1.441   5.192  14.178  1.1685  0.2343 -0.6204
 9785TIP3    H150846   1.472   5.283  14.179  0.0956  0.6214 -1.1677
 9785TIP3    H250847   1.424   5.172  14.270 -1.2019  1.5514 -0.6746
 9786TIP3   OH250848   2.628   4.602   4.423  0.2267  0.2204 -0.1643
 9786TIP3    H150849   2.594   4.659   4.492 -0.1319  0.0247 -0.1765
 9786TIP3    H250850   2.589   4.516   4.441  0.4629  0.0688 -0.3670
 9787TIP3   OH250851   5.183   5.035   3.721 -0.2917 -0.0250  0.2702
 9787TIP3    H150852   5.221   5.071   3.641 -1.5510  0.8719  0.0297
 9787TIP3    H250853   5.252   4.981   3.759  0.2616 -0.6528 -1.5261
 9788TIP3   OH250854   1.888   6.112  15.179  0.4179 -0.1855 -0.0027
 9788TIP3    H150855   1.941   6.118  15.259  0.8543 -2.0745 -0.1055
 9788TIP3    H250856   1.857   6.022  15.177 -3.6642  0.9751  0.5285
 9789TIP3   OH250857   0.642   0.411  15.205 -0.0184 -0.1191 -0.1821
 9789TIP3    H150858   0.594   0.447  15.280 -0.3503 -0.1713 -0.3687
 9789TIP3    H250859   0.602   0.326  15.189  0.7972 -0.5995  0.2870
 9790TIP3   OH250860   0.083   5.764   2.135  0.8767  0.3274 -0.0442
 9790TIP3    H150861   0.068   5.702   2.207  0.5008  1.2478  0.6901
 9790TIP3    H250862   0.115   5.710   2.063 -0.8117 -0.9483  0.1012
 9791TIP3   OH250863   6.323   1.020   5.639 -0.1128 -0.0290  0.3916
 9791TIP3    H150864   6.288   1.017   5.728 -2.1414  2.1827 -0.2110
 9791TIP3    H250865   6.251   0.989   5.584  0.5326  0.1871 -0.6003
 9792TIP3   OH250866   3.715   2.031   5.332  0.2234  0.0656 -0.4987
 9792TIP3    H150867   3.785   2.093   5.310  1.7966 -1.4388  0.0389
 9792TIP3    H250868   3.760   1.959   5.375 -1.8497 -0.3404  1.1579
 9793TIP3   OH250869   0.804   1.669  11.472 -0.2030  0.4704 -0.1912
 9793TIP3    H150870   0.749   1.599  11.509  2.7515 -1.8410  0.1826
 9793TIP3    H250871   0.802   1.737  11.539  0.4996 -1.2554  1.7162
 9794TIP3   OH250872   1.179   5.196  13.534 -0.0507  0.1367  0.0449
 9794TIP3    H150873   1.092   5.158  13.524 -0.0189  0.0140  0.2178
 9794TIP3    H250874   1.228   5.165  13.458  0.1353 -0.6229  0.4623
 9795TIP3   OH250875   1.566   2.238  15.437  0.5639 -0.3268  0.5084
 9795TIP3    H150876   1.507   2.312  15.434  0.2449 -0.6078 -1.3512
 9795TIP3    H250877   1.528   2.179  15.502 -0.5367  0.0368  0.2059
 9796TIP3   OH250878   4.934   0.054  10.635 -0.2957  0.2899 -0.0686
 9796TIP3    H150879   4.939  -0.006  10.709  0.2469 -1.2656 -1.2972
 9796TIP3    H250880   4.873   0.013  10.574  0.4441  0.7338 -1.1510
 9797TIP3   OH250881   5.131   3.372   0.748  0.0367 -0.0323 -0.2672
 9797TIP3    H150882   5.114   3.405   0.660  0.7446  1.5724  0.1599
 9797TIP3    H250883   5.045   3.369   0.790 -0.2084 -0.0679 -0.7722
 9798TIP3   OH250884   2.927   3.302   4.181 -0.4075  0.3151  0.4010
 9798TIP3    H150885   2.844   3.309   4.134  0.6466 -1.1154 -1.8277
 9798TIP3    H250886   2.957   3.392   4.188 -1.3754  0.7138 -0.2273
 9799TIP3   OH250887   1.306   1.679   0.814 -0.1407  0.0500 -0.2116
 9799TIP3    H150888   1.214   1.655   0.818 -0.1672  0.0450 -0.7744
 9799TIP3    H250889   1.326   1.682   0.720  0.0673  1.4328 -0.1394
 9800TIP3   OH250890   1.779   2.476  13.995 -0.0133 -0.1941  0.0737
 9800TIP3    H150891   1.698   2.445  13.954 -0.9168 -1.6967  2.7782
 9800TIP3    H250892   1.761   2.567  14.018 -0.3103 -0.0310 -0.7775
 9801TIP3   OH250893   2.115   1.453  16.303  0.2234 -0.3887  0.0294
 9801TIP3    H150894   2.168   1.382  16.341 -0.1083 -0.8817 -0.4146
 9801TIP3    H250895   2.152   1.465  16.216 -0.7256 -1.1110 -0.4927
 9802TIP3   OH250896   6.104   3.003   1.025  0.0133 -0.1488  0.0720
 9802TIP3    H150897   6.184   2.953   1.007 -0.7511 -1.2445 -0.3833
 9802TIP3    H250898   6.068   2.963   1.104 -0.5962 -0.3131 -0.2844
 9803TIP3   OH250899   3.946   2.356   2.478 -0.7564  0.5005  0.2204
 9803TIP3    H150900   3.931   2.434   2.532 -2.3201  0.3825 -0.0038
 9803TIP3    H250901   3.996   2.388   2.403 -2.2735  1.5166 -0.3902
 9804TIP3   OH250902   5.009   4.957   2.207  0.7502 -0.1345 -0.0015
 9804TIP3    H150903   5.063   4.879   2.218 -2.5189 -2.4925  0.7425
 9804TIP3    H250904   4.960   4.940   2.126  0.5634  1.5603 -0.2708
 9805TIP3   OH250905   3.271   3.830   0.617 -0.5449  0.1979 -0.5012
 9805TIP3    H150906   3.209   3.901   0.604 -0.2131  0.3681 -1.2038
 9805TIP3    H250907   3.276   3.819   0.712 -0.1576  1.4992 -0.3559
 9806TIP3   OH250908   6.258   5.632   6.173 -0.0591  0.2726 -0.0955
 9806TIP3    H150909   6.250   5.656   6.081  2.5425 -0.1717 -0.4960
 9806TIP3    H250910   6.351   5.617   6.187  0.1519  3.2209  3.3630
 9807TIP3   OH250911   3.609   6.733   1.968  0.1391 -0.0179 -0.3045
 9807TIP3    H150912   3.694   6.689   1.971 -0.2999 -0.8438  0.2892
 9807TIP3    H250913   3.561   6.698   2.043 -1.4451 -1.0300 -1.7262
 9808TIP3   OH250914   4.323   2.888   1.352  0.6364  0.0824  0.1050
 9808TIP3    H150915   4.349   2.952   1.286 -1.1679  1.9527  1.1015
 9808TIP3    H250916   4.228   2.894   1.355  0.5736 -1.0910  1.7610
 9809TIP3   OH250917   6.751   5.792   2.559 -0.5507 -0.3633  0.2804
 9809TIP3    H150918   6.722   5.701   2.553  0.5844 -0.9104  2.3296
 9809TIP3    H250919   6.729   5.819   2.648  1.6414  0.4268  0.6366
 9810TIP3   OH250920   6.701   3.326  14.369 -0.0514  0.6699 -0.5215
 9810TIP3    H150921   6.728   3.392  14.433 -0.7057 -1.4683  2.1791
 9810TIP3    H250922   6.606   3.336  14.362 -0.1698  0.0194 -0.0180
 9811TIP3   OH250923   4.580   3.253   6.123 -0.0254  0.2096  0.6273
 9811TIP3    H150924   4.497   3.246   6.075 -0.0023  0.5771  0.5333
 9811TIP3    H250925   4.556   3.295   6.205  0.1974  1.0679  0.2612
 9812TIP3   OH250926   0.483   0.922   0.350 -0.2479  0.0705  0.0312
 9812TIP3    H150927   0.540   0.953   0.280 -0.4324  1.4515  0.4743
 9812TIP3    H250928   0.524   0.952   0.430 -0.3567 -0.9979  0.5107
 9813TIP3   OH250929   3.811   6.231   5.130 -0.4699  0.4311  0.0903
 9813TIP3    H150930   3.880   6.264   5.188 -0.6967 -0.2519  0.7566
 9813TIP3    H250931   3.732   6.277   5.158 -0.4384  0.6469 -0.1698
 9814TIP3   OH250932   3.320   5.261  10.426 -0.5144 -0.0378 -0.3996
 9814TIP3    H150933   3.260   5.201  10.469 -0.0848 -0.1693  0.0236
 9814TIP3    H250934   3.407   5.233  10.455 -0.3574  1.4179  0.6084
 9815TIP3   OH250935   4.863   6.297  15.441 -0.5932  0.2294  0.1885
 9815TIP3    H150936   4.898   6.368  15.387  0.6852 -0.5304 -0.0288
 9815TIP3    H250937   4.847   6.338  15.526 -0.5160  0.9266 -0.1272
 9816TIP3   OH250938   0.865   4.193  12.655 -0.4043  0.4407 -0.3035
 9816TIP3    H150939   0.825   4.130  12.595 -0.9503  0.3220  0.1737
 9816TIP3    H250940   0.817   4.182  12.737  0.6506  0.2481  0.3104
 9817TIP3   OH250941   5.898   6.734  13.992  0.2648  0.4194  0.1286
 9817TIP3    H150942   5.955   6.742  13.915 -0.0175 -0.9930 -0.2493
 9817TIP3    H250943   5.816   6.776  13.966  0.0954 -0.2465 -0.4264
 9818TIP3   OH250944   2.935   2.718  13.822  0.2208  0.2740  0.2605
 9818TIP3    H150945   3.008   2.736  13.763  0.1645 -1.9266 -0.5865
 9818TIP3    H250946   2.857   2.730  13.767  0.1820 -2.2721 -0.3867
 9819TIP3   OH250947   5.610   6.801   5.130  0.3380  0.1248  0.6070
 9819TIP3    H150948   5.518   6.811   5.154  0.2445  0.9305 -0.0391
 9819TIP3    H250949   5.644   6.891   5.130  0.5257  0.0854 -1.5001
 9820TIP3   OH250950   3.612   2.622  11.547  0.6803 -0.6838 -0.1386
 9820TIP3    H150951   3.700   2.655  11.565  0.3862  0.2000 -0.2506
 9820TIP3    H250952   3.622   2.566  11.471  1.2515 -1.1150  0.2459
 9821TIP3   OH250953   4.278   5.736   0.681 -0.9243  0.1237 -0.4881
 9821TIP3    H150954   4.305   5.826   0.698 -0.2559  0.1955 -1.7945
 9821TIP3    H250955   4.189   5.744   0.648 -2.1367  0.0016  2.4350
 9822TIP3   OH250956   6.298   6.141   3.081  0.5095 -0.2263  0.9816
 9822TIP3    H150957   6.285   6.049   3.104  0.9297 -0.5106  0.0908
 9822TIP3    H250958   6.212   6.170   3.051  0.8255 -0.8731 -0.6074
 9823TIP3   OH250959   0.092   2.814   5.762  0.0562  0.0973 -0.6560
 9823TIP3    H150960   0.003   2.798   5.733  0.0305  2.6556 -2.2913
 9823TIP3    H250961   0.086   2.890   5.819  1.0392 -0.6508  0.5140
 9824TIP3   OH250962   6.439   2.372   5.662  0.3844 -0.4722 -0.1382
 9824TIP3    H150963   6.406   2.322   5.737  0.9254 -2.7944 -1.3572
 9824TIP3    H250964   6.395   2.334   5.586  0.6401  1.1119 -1.1325
 9825TIP3   OH250965   1.091   2.212   1.753  0.0534 -0.0136 -0.1014
 9825TIP3    H150966   1.157   2.243   1.692 -0.1451  0.5856 -0.0152
 9825TIP3    H250967   1.141   2.186   1.831  0.1616  0.8336  0.1245
 9826TIP3   OH250968   3.083   3.510  17.113 -0.3117 -0.5763 -0.4499
 9826TIP3    H150969   3.137   3.465  17.047  0.5536  0.6473 -0.6302
 9826TIP3    H250970   3.027   3.442  17.149  1.5318 -1.9781 -0.0873
 9827TIP3   OH250971   2.893   5.607  12.465 -0.3300 -0.5701 -0.2392
 9827TIP3    H150972   2.954   5.670  12.427 -0.2391 -0.8871 -0.6275
 9827TIP3    H250973   2.932   5.522  12.445 -0.0345 -0.7388  0.9725
 9828TIP3   OH250974   3.846   2.222   4.326 -0.3957  0.7906  0.0595
 9828TIP3    H150975   3.875   2.308   4.295  0.7807 -0.3560 -2.3431
 9828TIP3    H250976   3.917   2.192   4.383  0.8297  0.1324 -1.7119
 9829TIP3   OH250977   0.962   1.058  13.060  0.5869  0.1683 -0.0159
 9829TIP3    H150978   0.997   0.998  12.996 -1.0237 -0.8534 -0.0021
 9829TIP3    H250979   0.883   1.094  13.019  0.3324  0.6014  0.8193
 9830TIP3   OH250980   4.525   2.380   2.452 -0.0359 -0.1372  0.2415
 9830TIP3    H150981   4.601   2.429   2.421  1.4096 -2.2873  0.2211
 9830TIP3    H250982   4.550   2.288   2.444 -2.6132 -0.9302  0.3435
 9831TIP3   OH250983   1.501   2.561   4.683  0.0706 -0.0321  0.3015
 9831TIP3    H150984   1.428   2.501   4.666  1.3955 -1.9991  1.1241
 9831TIP3    H250985   1.483   2.596   4.770 -0.3067  0.1549  0.1522
 9832TIP3   OH250986   2.376   5.283   1.739  0.1536  0.2309 -0.1176
 9832TIP3    H150987   2.413   5.350   1.795 -0.2044  0.5923 -0.3107
 9832TIP3    H250988   2.296   5.322   1.703 -0.1244 -0.3385 -0.1358
 9833TIP3   OH250989   5.176   5.466  14.340 -0.3137  0.4359  0.3957
 9833TIP3    H150990   5.188   5.371  14.344  0.0898  0.3435 -1.7308
 9833TIP3    H250991   5.253   5.498  14.291  0.0100  1.9761  1.8187
 9834TIP3   OH250992   1.482   5.267   3.677  0.5281  0.1573  0.2520
 9834TIP3    H150993   1.411   5.304   3.729 -0.5226 -1.6050  0.1718
 9834TIP3    H250994   1.456   5.176   3.662  1.0081  0.3921 -2.8700
 9835TIP3   OH250995   2.371   1.474   3.939 -0.3051 -0.2129  0.1908
 9835TIP3    H150996   2.464   1.500   3.939  0.0373 -1.3874  0.3272
 9835TIP3    H250997   2.373   1.379   3.951 -1.6140  0.0320  3.0623
 9836TIP3   OH250998   5.837   4.075   1.214 -0.0483 -0.3925  0.0861
 9836TIP3    H150999   5.860   4.151   1.160 -1.9451  0.0979 -0.1241
 9836TIP3    H251000   5.769   4.029   1.163 -0.6999 -0.8411  1.3027
 9837TIP3   OH251001   0.466   0.598  14.658  0.0193 -0.2388 -0.7019
 9837TIP3    H151002   0.535   0.663  14.671 -0.9358  0.4564  1.4026
 9837TIP3    H251003   0.386   0.641  14.689 -0.7713 -2.1526  0.1147
 9838TIP3   OH251004   5.353   5.676   2.226 -0.0332  0.2521  0.3602
 9838TIP3    H151005   5.376   5.754   2.277 -0.7839 -0.2858  1.5552
 9838TIP3    H251006   5.260   5.687   2.206 -0.5385 -1.0194  1.8318
 9839TIP3   OH251007   3.106   1.504   4.175 -0.4570  0.5769 -0.7606
 9839TIP3    H151008   3.123   1.496   4.268  1.7173  0.0664 -1.1359
 9839TIP3    H251009   3.058   1.424   4.152  0.7596 -0.2890 -0.3977
 9840TIP3   OH251010   5.691   1.192  16.217 -0.2342  0.3966  0.0316
 9840TIP3    H151011   5.744   1.135  16.161 -0.0352 -0.3727  0.9755
 9840TIP3    H251012   5.642   1.132  16.273 -1.0999  1.1320  0.0874
 9841TIP3   OH251013   6.542   3.875  15.819 -0.4186  0.0172 -0.1915
 9841TIP3    H151014   6.480   3.819  15.773 -0.2233  0.7408 -1.3758
 9841TIP3    H251015   6.604   3.814  15.859 -0.5248 -0.6448 -1.0053
 9842TIP3   OH251016   2.372   4.345  15.568 -0.1481  0.9555 -0.3687
 9842TIP3    H151017   2.310   4.308  15.505 -0.9794 -1.7895  1.8810
 9842TIP3    H251018   2.363   4.440  15.557 -0.1728  0.6548 -4.3367
 9843TIP3   OH251019   5.397   5.535  14.903 -0.4816  0.0164  0.3238
 9843TIP3    H151020   5.377   5.625  14.878  1.0383  0.4286  0.5011
 9843TIP3    H251021   5.425   5.492  14.822  3.6905  1.1428  0.9364
 9844TIP3   OH251022   5.219   1.380   2.417  0.3590 -0.5420  0.0362
 9844TIP3    H151023   5.311   1.363   2.399  0.0182 -0.3909 -2.1308
 9844TIP3    H251024   5.179   1.293   2.425  0.3192 -0.6735 -1.3283
 9845TIP3   OH251025   6.695   6.597   1.865  0.2290 -0.0684  0.2692
 9845TIP3    H151026   6.777   6.610   1.914  0.6700  0.3753 -0.5584
 9845TIP3    H251027   6.647   6.532   1.916  1.2625 -0.6221  0.5806
 9846TIP3   OH251028   3.288   6.311   3.332 -0.0488  0.1214 -0.3860
 9846TIP3    H151029   3.349   6.250   3.291  0.9745  0.9793 -0.1708
 9846TIP3    H251030   3.292   6.390   3.277  0.4224  0.8376  0.6448
 9847TIP3   OH251031   1.507   4.150   0.599 -0.1686 -0.4107 -0.0549
 9847TIP3    H151032   1.456   4.156   0.680 -0.1057  0.9922 -0.0841
 9847TIP3    H251033   1.534   4.241   0.582 -2.3784 -0.1721 -3.0852
 9848TIP3   OH251034   0.141   6.462   1.368 -0.0705  0.1755  0.3087
 9848TIP3    H151035   0.225   6.469   1.322  1.1171  0.1348  2.3794
 9848TIP3    H251036   0.121   6.369   1.369  0.2300  0.1144  0.4730
 9849TIP3   OH251037   2.116   3.289  11.832 -0.5041  0.6955  0.3540
 9849TIP3    H151038   2.079   3.205  11.858 -1.2280  1.1851  0.9498
 9849TIP3    H251039   2.106   3.292  11.737 -1.1126  0.4057  0.4065
 9850TIP3   OH251040   2.741   6.675  14.116  0.4291 -0.1063 -0.4642
 9850TIP3    H151041   2.759   6.748  14.175  1.0809  0.0773 -0.8740
 9850TIP3    H251042   2.730   6.716  14.030  1.4372 -0.5337 -0.8138
 9851TIP3   OH251043   0.294   5.861  14.547 -0.5361  1.1469  0.4314
 9851TIP3    H151044   0.305   5.772  14.580  0.5524  1.5964  1.3693
 9851TIP3    H251045   0.201   5.879  14.556 -0.8886 -0.1185 -0.4126
 9852TIP3   OH251046   3.010   1.296   3.438 -0.5137  0.2248  0.3058
 9852TIP3    H151047   3.068   1.227   3.471 -0.0801  0.9501  1.0705
 9852TIP3    H251048   3.034   1.374   3.487 -0.4236  1.1405 -1.1368
 9853TIP3   OH251049   0.102   6.184  13.000  1.0146 -0.2456 -0.1973
 9853TIP3    H151050   0.109   6.279  12.989  1.1813 -0.5491 -3.5438
 9853TIP3    H251051   0.012   6.164  12.973  1.0490 -1.0798  0.2928
 9854TIP3   OH251052   1.577   5.226   6.355  0.3296  0.1115  0.1656
 9854TIP3    H151053   1.503   5.169   6.332 -0.8909  2.1028 -1.1637
 9854TIP3    H251054   1.653   5.186   6.312 -0.6680 -0.0792 -1.5370
 9855TIP3   OH251055   2.256   0.850  15.014  0.1935  0.3235 -0.3017
 9855TIP3    H151056   2.169   0.811  15.021 -0.9308  2.6859 -0.0201
 9855TIP3    H251057   2.265   0.903  15.094  1.4765  0.8871 -0.7868
 9856TIP3   OH251058   6.264   4.887   5.175 -0.3396  0.0488 -0.5148
 9856TIP3    H151059   6.251   4.973   5.217  1.6137  1.9750 -3.4745
 9856TIP3    H251060   6.357   4.886   5.152 -0.2230 -3.0857 -0.2998
 9857TIP3   OH251061   6.173   5.842   0.563 -0.1451  0.3020  0.1074
 9857TIP3    H151062   6.084   5.809   0.573 -0.1329  0.0198 -0.6374
 9857TIP3    H251063   6.207   5.797   0.485 -0.1399  2.0301 -0.9508
 9858TIP3   OH251064   2.133   1.785   0.727 -0.8801  0.3737  0.0529
 9858TIP3    H151065   2.226   1.767   0.741 -0.5397  0.6622 -1.5694
 9858TIP3    H251066   2.120   1.873   0.764 -0.8998 -0.2850  1.6752
 9859TIP3   OH251067   6.072   6.333   5.111  0.3738 -0.1049 -0.1188
 9859TIP3    H151068   6.025   6.342   5.194 -0.9846 -0.7004 -0.8039
 9859TIP3    H251069   6.139   6.402   5.114  0.6169 -0.3737  1.6305
 9860TIP3   OH251070   1.795   5.358   1.332  0.1990 -0.3967 -0.6647
 9860TIP3    H151071   1.772   5.397   1.247 -1.7454 -1.2499 -0.5879
 9860TIP3    H251072   1.782   5.264   1.320  0.1270 -0.5489  0.4979
 9861TIP3   OH251073   5.268   2.441  16.090 -0.3543  0.0960 -0.0057
 9861TIP3    H151074   5.312   2.428  16.174  0.1068  0.8415 -0.1197
 9861TIP3    H251075   5.317   2.387  16.028  0.4522  0.9501 -0.1375
 9862TIP3   OH251076   5.728   5.947  13.994 -0.4265 -0.4557  0.2192
 9862TIP3    H151077   5.786   6.000  14.048 -1.9371  1.7245 -0.1788
 9862TIP3    H251078   5.777   5.933  13.913 -0.7780  2.3792 -0.5909
 9863TIP3   OH251079   0.536   4.419  16.283  0.5525 -0.0141  0.6024
 9863TIP3    H151080   0.495   4.500  16.313  2.3451  0.8748  0.8018
 9863TIP3    H251081   0.468   4.374  16.233  0.1543  2.6885 -1.4797
 9864TIP3   OH251082   1.188   5.302   1.939  0.1737 -0.2628 -0.3353
 9864TIP3    H151083   1.095   5.297   1.915  0.4417  0.8253 -1.7576
 9864TIP3    H251084   1.197   5.241   2.013 -2.0263  0.9273  1.0322
 9865TIP3   OH251085   2.833   2.633   1.230 -0.4776 -0.2535 -0.1283
 9865TIP3    H151086   2.813   2.592   1.145  0.3244 -0.3015 -0.2962
 9865TIP3    H251087   2.919   2.672   1.219 -0.9132  0.8742  0.2644
 9866TIP3   OH251088   0.658   2.305  14.430 -0.2381  0.5238 -0.0459
 9866TIP3    H151089   0.698   2.218  14.433 -2.0280 -0.4193 -1.5247
 9866TIP3    H251090   0.732   2.365  14.426  1.0736 -0.8435  1.8211
 9867TIP3   OH251091   4.712   0.750   1.632  0.9160  0.0161  0.0147
 9867TIP3    H151092   4.733   0.838   1.663  3.3450 -0.8678  1.1716
 9867TIP3    H251093   4.683   0.763   1.542 -1.4310  2.2082  0.9725
 9868TIP3   OH251094   2.596   3.533   5.487 -0.0454 -0.3971 -0.5146
 9868TIP3    H151095   2.515   3.576   5.515 -0.3828 -0.7294 -0.9829
 9868TIP3    H251096   2.578   3.502   5.399  1.3493  1.5568 -1.5615
 9869TIP3   OH251097   6.175   5.009   1.279  0.1730 -0.3078  0.4880
 9869TIP3    H151098   6.097   4.981   1.325 -0.7107  0.1436 -0.6806
 9869TIP3    H251099   6.248   4.977   1.332 -0.7801 -2.7434  0.4331
 9870TIP3   OH251100   5.793   4.830   5.688 -0.1912 -0.2548 -0.4148
 9870TIP3    H151101   5.794   4.922   5.712 -1.1412  0.0520 -1.5131
 9870TIP3    H251102   5.713   4.795   5.727  1.3656 -1.2606  2.1516
 9871TIP3   OH251103   6.581   4.894  15.669  0.2032  0.0930  0.0837
 9871TIP3    H151104   6.625   4.909  15.752  0.1589  1.3928 -0.1095
 9871TIP3    H251105   6.587   4.977  15.622 -1.9745  0.1725 -0.1865
 9872TIP3   OH251106   5.617   6.663   0.542 -0.2950  0.4988 -0.2617
 9872TIP3    H151107   5.631   6.747   0.586 -0.1533  0.8515 -0.9643
 9872TIP3    H251108   5.661   6.673   0.457 -1.4471  0.2152 -0.9173
 9873TIP3   OH251109   4.740   4.110  13.005 -0.0177  0.0681  0.0271
 9873TIP3    H151110   4.769   4.194  12.969 -1.1922  0.2317 -0.5991
 9873TIP3    H251111   4.809   4.085  13.067  0.1415  1.7150  0.5655
 9874TIP3   OH251112   6.772   6.679   2.776  0.2392  0.3110 -0.0090
 9874TIP3    H151113   6.771   6.733   2.697  2.4919  0.9423  0.3290
 9874TIP3    H251114   6.747   6.741   2.846 -0.2764  0.1177 -0.0163
 9875TIP3   OH251115   1.955   3.173   5.186  0.5294 -0.4298  0.3965
 9875TIP3    H151116   1.981   3.195   5.276  0.5552 -3.8315  1.3265
 9875TIP3    H251117   2.019   3.220   5.131 -0.9603  3.7853  1.8398
 9876TIP3   OH251118   5.965   3.883   3.497  0.3294 -0.1561 -0.5058
 9876TIP3    H151119   5.929   3.937   3.567  0.4873 -1.0043  0.2507
 9876TIP3    H251120   5.918   3.911   3.419 -0.6519  0.0326  0.1337
 9877TIP3   OH251121   1.630   2.957  15.454 -0.1905  0.0770 -0.8889
 9877TIP3    H151122   1.543   2.990  15.474 -0.2478  0.9466 -2.4140
 9877TIP3    H251123   1.616   2.887  15.390  0.3214  1.7319 -2.8843
 9878TIP3   OH251124   3.465   3.830   2.702 -0.0172 -0.2417 -0.3034
 9878TIP3    H151125   3.370   3.830   2.713  0.2870  1.1249  4.4801
 9878TIP3    H251126   3.488   3.922   2.689  0.7421 -0.4656 -0.6063
 9879TIP3   OH251127   3.389   4.021   5.026  0.3401  0.1093 -0.5488
 9879TIP3    H151128   3.333   4.080   4.976  0.6138  1.2247  0.4340
 9879TIP3    H251129   3.331   3.979   5.089  0.3376  0.0922 -0.5626
 9880TIP3   OH251130   1.656   6.122  14.680  0.0496  0.1551  1.0026
 9880TIP3    H151131   1.580   6.089  14.632  0.0935  1.7574 -0.2163
 9880TIP3    H251132   1.702   6.043  14.707 -0.6266 -0.8179 -0.5498
 9881TIP3   OH251133   3.680   5.017  13.780 -0.0485 -0.6770 -0.0603
 9881TIP3    H151134   3.608   4.956  13.795 -0.5276  0.0189  0.4524
 9881TIP3    H251135   3.728   4.978  13.706 -1.8276 -0.3426 -1.4395
 9882TIP3   OH251136   1.019   4.723   0.462 -0.2074  0.2799  0.1596
 9882TIP3    H151137   0.971   4.722   0.544 -1.0687 -0.2213 -0.3336
 9882TIP3    H251138   0.979   4.652   0.410 -0.7712  1.5982 -1.2915
 9883TIP3   OH251139   1.466   2.168   2.658 -0.1452  0.1487 -0.3642
 9883TIP3    H151140   1.404   2.153   2.587 -2.0700  1.4196  0.9468
 9883TIP3    H251141   1.470   2.263   2.667  2.0030  0.0900 -0.3800
 9884TIP3   OH251142   1.584   6.167  15.235  0.1735  0.1945  0.5585
 9884TIP3    H151143   1.652   6.160  15.167 -1.5220 -0.0153 -1.2165
 9884TIP3    H251144   1.538   6.083  15.231  0.8598 -0.3671  2.9814
 9885TIP3   OH251145   4.656   3.554  12.051 -0.2898 -0.3203 -0.0214
 9885TIP3    H151146   4.592   3.499  12.007  0.8634  0.0064 -2.2570
 9885TIP3    H251147   4.715   3.493  12.096 -0.7377 -0.7385  0.0005
 9886TIP3   OH251148   5.268   5.612  13.546  0.6205  0.7193 -0.1383
 9886TIP3    H151149   5.173   5.618  13.542  0.1900 -2.5795  2.0219
 9886TIP3    H251150   5.291   5.645  13.633  1.0166 -1.4639  0.6498
 9887TIP3   OH251151   5.361   6.183   2.491  0.2826 -0.8991 -0.2886
 9887TIP3    H151152   5.343   6.093   2.520 -0.1043 -1.3201 -1.7600
 9887TIP3    H251153   5.444   6.176   2.443  0.9238 -0.2164  0.6994
 9888TIP3   OH251154   0.359   5.534  17.019  0.0153  0.1234  0.1134
 9888TIP3    H151155   0.391   5.444  17.012 -2.3466 -0.8844  1.4486
 9888TIP3    H251156   0.301   5.545  16.944  0.2304  0.5323  0.0007
 9889TIP3   OH251157   4.379   4.323  11.297  0.1045 -0.2594 -0.2614
 9889TIP3    H151158   4.396   4.414  11.272  0.0138 -0.0782  0.3020
 9889TIP3    H251159   4.364   4.277  11.215  2.1964 -0.2088 -0.7049
 9890TIP3   OH251160   3.094   0.866  16.011 -0.0595  0.4272 -0.2710
 9890TIP3    H151161   3.052   0.789  15.972  0.4980 -0.3143  0.5481
 9890TIP3    H251162   3.021   0.919  16.044 -0.3979 -0.5697  0.6369
 9891TIP3   OH251163   4.478   1.156  17.111  0.6889 -0.2825  0.1324
 9891TIP3    H151164   4.434   1.124  17.190 -1.0671  1.5823 -0.0109
 9891TIP3    H251165   4.407   1.181  17.052  1.8890  2.3108 -0.3392
 9892TIP3   OH251166   5.050   0.680  12.900  0.1167 -0.7912  0.2292
 9892TIP3    H151167   5.028   0.730  12.979  1.5440 -0.8951  0.7047
 9892TIP3    H251168   4.996   0.720  12.832  0.2046  0.4890  0.8817
 9893TIP3   OH251169   4.589   0.418  14.759  0.5280 -0.1973 -0.1145
 9893TIP3    H151170   4.500   0.435  14.728 -0.6231 -1.4021  2.3100
 9893TIP3    H251171   4.612   0.495  14.811  0.7987 -0.0249 -0.4836
 9894TIP3   OH251172   2.633   3.023  11.562  0.0988  0.5643  0.1414
 9894TIP3    H151173   2.568   3.055  11.500 -0.6007 -0.4255  0.3543
 9894TIP3    H251174   2.623   2.928  11.562 -0.5548  0.5849  2.4513
 9895TIP3   OH251175   5.578   3.982  14.354 -0.0998  0.0589 -0.2234
 9895TIP3    H151176   5.656   3.936  14.321  0.1542  0.8073 -0.7091
 9895TIP3    H251177   5.525   3.914  14.394  1.0850 -0.3900  0.6496
 9896TIP3   OH251178   5.342   3.830   2.716  0.1164 -0.2800 -0.3772
 9896TIP3    H151179   5.375   3.867   2.634  1.3187 -0.4230  0.0177
 9896TIP3    H251180   5.415   3.777   2.749 -0.4310 -0.4042  0.6743
 9897TIP3   OH251181   0.929   0.587  14.800  0.3926 -0.5395 -0.3208
 9897TIP3    H151182   0.999   0.597  14.736  1.2199  0.7070  0.7188
 9897TIP3    H251183   0.954   0.511  14.853  1.1298  0.0583  0.2121
 9898TIP3   OH251184   6.149   6.597   0.906 -0.0048  0.0003 -0.7373
 9898TIP3    H151185   6.081   6.653   0.868  0.7405 -0.0797 -2.2970
 9898TIP3    H251186   6.214   6.658   0.939 -0.0313  0.0707 -0.8151
 9899TIP3   OH251187   4.244   6.612  16.553 -0.0720  0.3419 -0.0907
 9899TIP3    H151188   4.249   6.523  16.518 -0.8894 -0.0153  0.6696
 9899TIP3    H251189   4.236   6.601  16.648  1.5600  1.2778  0.2037
 9900TIP3   OH251190   3.371   4.250  10.318  0.6142 -0.0055  0.2783
 9900TIP3    H151191   3.319   4.297  10.253 -1.8986 -1.4717  1.0826
 9900TIP3    H251192   3.419   4.185  10.267  1.0862  0.8666 -0.4159
 9901TIP3   OH251193   5.217   6.801   1.586 -0.5262 -0.3249  0.0413
 9901TIP3    H151194   5.219   6.826   1.678  1.8949 -1.4691  0.3740
 9901TIP3    H251195   5.148   6.855   1.548  0.3942  2.3809  1.9090
 9902TIP3   OH251196   2.731   2.640  14.174 -0.1082  0.3936  0.1961
 9902TIP3    H151197   2.805   2.684  14.134  0.6356 -0.7329  0.2682
 9902TIP3    H251198   2.751   2.639  14.268 -0.1045 -0.0707  0.1971
 9903TIP3   OH251199   2.891   2.970   2.530  0.1001 -0.0143  0.1450
 9903TIP3    H151200   2.932   2.948   2.447 -1.7655  0.3927 -0.9243
 9903TIP3    H251201   2.906   2.893   2.585  4.0658  0.8792  0.6134
 9904TIP3   OH251202   5.301   4.089  10.539  0.1902 -0.4431  0.0413
 9904TIP3    H151203   5.394   4.083  10.518 -0.0223 -1.1832 -0.7657
 9904TIP3    H251204   5.292   4.171  10.587  1.2995 -0.5068  0.3895
 9905TIP3   OH251205   6.774   0.242   1.755  0.0795 -0.5009  0.0538
 9905TIP3    H151206   6.694   0.232   1.807  1.0870 -0.8746  1.5872
 9905TIP3    H251207   6.845   0.232   1.818  1.3862 -1.8965 -1.5454
 9906TIP3   OH251208   1.150   0.326   3.698  0.5346 -0.0513 -0.5367
 9906TIP3    H151209   1.149   0.375   3.616 -0.2920  0.8354 -0.0092
 9906TIP3    H251210   1.088   0.372   3.755  2.1143  0.2056  1.0723
 9907TIP3   OH251211   4.958   5.921   2.540 -0.4536 -0.5311 -0.0233
 9907TIP3    H151212   4.873   5.964   2.531  1.2889  3.1811 -0.8505
 9907TIP3    H251213   4.998   5.966   2.615 -0.0869 -4.0468  2.0933
 9908TIP3   OH251214   2.341   3.276  16.235  0.0694  0.1384  0.5280
 9908TIP3    H151215   2.387   3.290  16.153  1.2211 -1.3575  0.8635
 9908TIP3    H251216   2.344   3.360  16.280  1.5323  0.3745  0.0406
 9909TIP3   OH251217   5.037   0.314  14.828 -0.5675  0.1622  0.1672
 9909TIP3    H151218   4.961   0.336  14.882 -0.7211  1.4293 -0.5162
 9909TIP3    H251219   5.100   0.383  14.849  0.8378 -1.4569  1.5078
 9910TIP3   OH251220   4.950   5.717  12.495 -0.5722 -0.1768  1.1228
 9910TIP3    H151221   4.935   5.812  12.497  1.5394  0.2408  0.1194
 9910TIP3    H251222   4.890   5.685  12.428  0.9105  0.9752 -0.8443
 9911TIP3   OH251223   4.305   4.723  14.505  0.1185 -0.2367  0.2515
 9911TIP3    H151224   4.291   4.784  14.433 -0.3005 -1.2444 -0.5333
 9911TIP3    H251225   4.218   4.688  14.524  0.0802  0.5984  1.7962
 9912TIP3   OH251226   4.868   5.985   4.794 -0.0791  0.0146 -0.2993
 9912TIP3    H151227   4.887   6.013   4.705  0.6043 -0.1983 -0.2189
 9912TIP3    H251228   4.898   5.894   4.799  0.6923  0.2899  0.3953
 9913TIP3   OH251229   1.994   1.321   1.154  1.0653  0.8470 -0.3269
 9913TIP3    H151230   1.969   1.413   1.163 -0.3946  0.5943 -1.4394
 9913TIP3    H251231   2.030   1.298   1.240  0.6063  2.2019  0.2631
 9914TIP3   OH251232   4.862   5.961  15.148 -0.3875 -0.4289  0.5392
 9914TIP3    H151233   4.922   5.915  15.207 -0.3503 -0.6367  0.3408
 9914TIP3    H251234   4.824   5.891  15.094  0.2876 -0.1388 -0.3297
 9915TIP3   OH251235   5.365   2.237  14.247  0.3870  0.4400  0.6209
 9915TIP3    H151236   5.408   2.293  14.310 -0.2018 -0.1433  1.5604
 9915TIP3    H251237   5.433   2.176  14.218  0.5060  0.3084  1.1705
 9916TIP3   OH251238   3.957   2.258   5.233 -0.2923 -0.1451  0.2813
 9916TIP3    H151239   3.889   2.241   5.168 -0.0225 -0.2519  0.0253
 9916TIP3    H251240   4.028   2.198   5.209  0.3114  0.7047 -0.0867
 9917TIP3   OH251241   3.483   6.504  15.324  0.4035  0.6613  0.0918
 9917TIP3    H151242   3.509   6.542  15.240  1.1080  2.4268  1.0656
 9917TIP3    H251243   3.431   6.426  15.300  0.3577  1.2698 -1.9593
 9918TIP3   OH251244   2.923   0.369  15.400  0.4674  0.0519 -0.8940
 9918TIP3    H151245   3.011   0.382  15.436 -0.5777  2.3697  1.0796
 9918TIP3    H251246   2.907   0.448  15.348 -0.7188 -0.0341 -0.6740
 9919TIP3   OH251247   1.565   4.434   3.846 -0.1458 -0.2735 -0.6985
 9919TIP3    H151248   1.504   4.456   3.916 -1.1903 -0.3156 -1.5617
 9919TIP3    H251249   1.577   4.516   3.798  0.3925 -0.2922 -0.5963
 9920TIP3   OH251250   6.161   3.209   2.322  0.1737 -0.2272 -0.4201
 9920TIP3    H151251   6.136   3.145   2.255  0.8915  0.4260 -1.3386
 9920TIP3    H251252   6.152   3.293   2.278 -1.6763  0.4109  1.0603
 9921TIP3   OH251253   0.336   4.086   0.161 -0.3351 -0.0627 -0.0237
 9921TIP3    H151254   0.262   4.077   0.222 -0.2381  0.0581  0.1101
 9921TIP3    H251255   0.376   4.169   0.183 -0.5176  0.1552 -0.4945
 9922TIP3   OH251256   2.536   6.810   3.676  0.0288  0.1425  0.0528
 9922TIP3    H151257   2.485   6.781   3.600 -0.3409  1.0324 -0.0457
 9922TIP3    H251258   2.544   6.905   3.665 -1.2576  0.5111  1.8550
 9923TIP3   OH251259   5.474   5.893   4.186  0.2342  0.4581 -0.1844
 9923TIP3    H151260   5.568   5.880   4.179  0.0311 -1.7323  0.3685
 9923TIP3    H251261   5.441   5.883   4.096  0.5460  1.7270 -0.4593
 9924TIP3   OH251262   3.706   2.368   2.248  0.3585 -0.6238  0.5074
 9924TIP3    H151263   3.691   2.412   2.164  0.2401 -0.4064  0.6435
 9924TIP3    H251264   3.771   2.422   2.292 -1.0164  0.3601  1.3939
 9925TIP3   OH251265   5.169   4.910  15.494  0.1835  0.3292  0.3149
 9925TIP3    H151266   5.241   4.940  15.440 -0.6373 -0.5556 -1.3463
 9925TIP3    H251267   5.106   4.872  15.432 -0.8276 -0.6921  1.8841
 9926TIP3   OH251268   6.701   3.448  15.787 -0.0339 -0.4854  0.7131
 9926TIP3    H151269   6.647   3.517  15.826  1.7161  0.6693  1.1713
 9926TIP3    H251270   6.653   3.422  15.708 -1.5838  0.0108  1.4476
 9927TIP3   OH251271   2.753   3.826  12.388  0.5369 -0.2211  0.5118
 9927TIP3    H151272   2.701   3.825  12.308  2.4639 -0.3381 -0.7940
 9927TIP3    H251273   2.750   3.735  12.419  0.2547 -0.2984  0.2675
 9928TIP3   OH251274   2.338   6.150  16.954  0.0349 -0.4085  0.1649
 9928TIP3    H151275   2.244   6.149  16.975 -0.1651 -1.4258 -0.6369
 9928TIP3    H251276   2.369   6.235  16.983 -1.2716  0.1657 -0.0547
 9929TIP3   OH251277   2.512   2.100  11.614  0.6197 -0.0258  0.3680
 9929TIP3    H151278   2.453   2.167  11.579  0.8332 -0.7072 -1.3434
 9929TIP3    H251279   2.583   2.149  11.655  0.1054  0.7938  0.2981
 9930TIP3   OH251280   5.132   3.104   2.996  0.0313  0.6778 -0.2674
 9930TIP3    H151281   5.162   3.020   2.963  1.6553  0.2079  2.1402
 9930TIP3    H251282   5.077   3.139   2.926  1.6555 -1.0320 -2.5572
 9931TIP3   OH251283   5.421   4.922  12.100  0.4957 -0.2082 -0.1827
 9931TIP3    H151284   5.493   4.900  12.158  0.5481 -0.8952 -0.4910
 9931TIP3    H251285   5.412   4.846  12.042 -0.2536  0.0052 -0.3714
 9932TIP3   OH251286   1.354   6.617   3.149 -0.3710  0.4177  0.5777
 9932TIP3    H151287   1.288   6.668   3.195  0.4682 -0.1347  2.4888
 9932TIP3    H251288   1.433   6.670   3.155 -0.1524  0.1492  0.1029
 9933TIP3   OH251289   2.054   6.265   2.853 -0.1854 -0.2750 -0.2991
 9933TIP3    H151290   2.096   6.349   2.870 -0.9064 -0.0583  0.4737
 9933TIP3    H251291   2.026   6.234   2.940 -2.0629 -0.1652 -0.8192
 9934TIP3   OH251292   5.467   1.547   1.817  0.4928 -0.0889 -0.1723
 9934TIP3    H151293   5.511   1.615   1.765 -0.7728 -0.2476 -1.5094
 9934TIP3    H251294   5.382   1.536   1.775  0.5043 -2.2301  0.2627
 9935TIP3   OH251295   5.673   3.410  12.706 -0.0419 -0.0889  0.2605
 9935TIP3    H151296   5.766   3.422  12.722 -0.0923 -0.5250  0.9661
 9935TIP3    H251297   5.664   3.319  12.678 -0.2156  0.0473 -0.1300
 9936TIP3   OH251298   6.624   4.061  14.020  0.3701  0.0219 -0.1227
 9936TIP3    H151299   6.712   4.075  14.055  1.0641  2.2596 -2.5066
 9936TIP3    H251300   6.567   4.061  14.097  2.1676  1.1036  1.2657
 9937TIP3   OH251301   1.206   4.313  12.166 -0.4568 -0.1733 -0.8439
 9937TIP3    H151302   1.121   4.356  12.154 -0.9897 -1.0606 -0.4134
 9937TIP3    H251303   1.229   4.280  12.079  0.2767  1.5042 -1.3205
 9938TIP3   OH251304   1.990   4.212   3.160  0.4370 -0.0879 -0.0742
 9938TIP3    H151305   2.007   4.125   3.123 -1.6182  0.3794 -2.3927
 9938TIP3    H251306   2.033   4.272   3.099 -1.2064  0.6308 -0.5671
 9939TIP3   OH251307   0.555   6.136   0.271  0.3102  0.1245 -0.3354
 9939TIP3    H151308   0.623   6.202   0.286  0.1336  0.4971 -1.1606
 9939TIP3    H251309   0.589   6.083   0.198  1.9925 -2.7787  2.2733
 9940TIP3   OH251310   1.711   0.615   4.597  1.0020 -0.0098 -0.1436
 9940TIP3    H151311   1.723   0.700   4.555 -1.4549  0.8801  0.8112
 9940TIP3    H251312   1.616   0.606   4.607  1.2541 -2.3872  0.7663
 9941TIP3   OH251313   6.288   6.536   5.133  0.2400 -0.0248 -0.5108
 9941TIP3    H151314   6.303   6.614   5.080  0.6950 -0.2098 -0.6574
 9941TIP3    H251315   6.290   6.568   5.223  2.0566 -0.1003 -0.4823
 9942TIP3   OH251316   1.297   5.400  11.852  0.4345 -0.4085  0.1756
 9942TIP3    H151317   1.218   5.452  11.867  1.3579  0.7816  1.0791
 9942TIP3    H251318   1.323   5.421  11.762  0.0230 -0.3944  0.0604
 9943TIP3   OH251319   4.263   2.226  14.260 -0.0638 -0.5343  0.1192
 9943TIP3    H151320   4.181   2.273  14.248 -0.4725 -1.6289 -1.7090
 9943TIP3    H251321   4.236   2.135  14.276  0.7868 -0.9478 -0.7493
 9944TIP3   OH251322   3.475   4.181   1.784  0.1629  0.0751 -0.9526
 9944TIP3    H151323   3.451   4.108   1.841 -0.3384  1.1715  0.2906
 9944TIP3    H251324   3.398   4.238   1.783  1.2263  1.6241 -0.1907
 9945TIP3   OH251325   5.119   4.927  12.103 -0.5391 -0.3401  0.6175
 9945TIP3    H151326   5.212   4.912  12.089 -0.4439  1.3777 -1.0524
 9945TIP3    H251327   5.104   4.903  12.195  1.4340 -1.0625  0.7943
 9946TIP3   OH251328   6.104   6.430  11.634 -0.2399  0.4143 -0.2847
 9946TIP3    H151329   6.012   6.402  11.639 -0.6442  1.8458  1.0882
 9946TIP3    H251330   6.105   6.501  11.570  0.2959 -0.8391 -1.7295
 9947TIP3   OH251331   0.269   5.069  15.408  0.4514  0.2019  0.5161
 9947TIP3    H151332   0.294   5.108  15.492  1.5822  0.3178  0.1413
 9947TIP3    H251333   0.274   5.141  15.345  0.0611  0.0138  0.2664
 9948TIP3   OH251334   2.158   2.602  12.399  0.4736 -0.5139  0.0522
 9948TIP3    H151335   2.082   2.549  12.374 -1.4935  2.7085 -1.3834
 9948TIP3    H251336   2.198   2.626  12.315 -0.0116  1.9627  0.4668
 9949TIP3   OH251337   0.091   0.034  12.374  0.8174 -0.1412 -0.9620
 9949TIP3    H151338   0.067   0.059  12.464 -2.5590 -2.5803 -0.9762
 9949TIP3    H251339   0.138  -0.049  12.384 -1.5262 -1.6134 -1.4005
 9950TIP3   OH251340   3.821   0.818   4.551 -0.3796  0.1056 -0.3715
 9950TIP3    H151341   3.740   0.768   4.559  0.2503 -0.9141 -0.1321
 9950TIP3    H251342   3.880   0.777   4.614  0.7793 -0.1231 -1.5586
 9951TIP3   OH251343   5.683   6.146   5.213 -0.2266 -0.4713 -0.4075
 9951TIP3    H151344   5.686   6.095   5.294  1.7101  0.1986 -0.0275
 9951TIP3    H251345   5.754   6.110   5.160  1.0477  1.6438 -0.2124
 9952TIP3   OH251346   1.140   3.743   0.794 -0.8804  0.3873 -0.2742
 9952TIP3    H151347   1.065   3.801   0.806 -0.9087 -0.0448  2.0457
 9952TIP3    H251348   1.120   3.665   0.846  0.4912 -0.4118 -0.8753
 9953TIP3   OH251349   2.259   6.009   0.857 -0.1735  0.1884  0.2392
 9953TIP3    H151350   2.165   5.996   0.845  0.0229 -0.0876 -1.3196
 9953TIP3    H251351   2.299   5.933   0.816  0.7426  0.6707  0.2088
 9954TIP3   OH251352   6.299   1.958   5.038  0.2581 -0.6988  0.5627
 9954TIP3    H151353   6.373   1.906   5.068  0.9405 -0.5737 -0.8044
 9954TIP3    H251354   6.321   1.982   4.948 -0.4748  1.1345  0.8077
 9955TIP3   OH251355   5.426   4.837   1.586  0.0884  0.0433  0.4968
 9955TIP3    H151356   5.445   4.788   1.505 -0.8066  0.0898  0.2475
 9955TIP3    H251357   5.512   4.865   1.617  0.5278 -0.8055  0.0836
 9956TIP3   OH251358   6.274   6.779   2.352  0.0471  0.0047  0.1648
 9956TIP3    H151359   6.340   6.782   2.283  0.2107 -0.7113  0.2856
 9956TIP3    H251360   6.211   6.714   2.322  0.2158 -0.4432  0.7733
 9957TIP3   OH251361   2.817   5.198  13.341 -0.0262  0.8334  0.4138
 9957TIP3    H151362   2.762   5.182  13.264  1.1701 -0.7834 -0.1865
 9957TIP3    H251363   2.797   5.287  13.367 -1.8475  0.7881 -0.6410
 9958TIP3   OH251364   0.184   0.080   2.268  0.1447  0.2506 -0.4740
 9958TIP3    H151365   0.236   0.002   2.252 -1.3271 -0.7815 -0.5012
 9958TIP3    H251366   0.101   0.047   2.304  0.7662  2.0034  3.0758
 9959TIP3   OH251367   2.867   5.706   2.276  0.0624 -0.0470 -0.5319
 9959TIP3    H151368   2.888   5.699   2.369  2.0348  0.0864 -0.9295
 9959TIP3    H251369   2.838   5.618   2.252 -2.8457  0.4589  0.6714
 9960TIP3   OH251370   2.361   4.817   1.070 -0.5180 -0.4472  0.3940
 9960TIP3    H151371   2.427   4.874   1.030  0.6687  0.3768  3.3076
 9960TIP3    H251372   2.289   4.876   1.090 -0.3810 -0.4984  1.0350
 9961TIP3   OH251373   2.196   6.531  15.885 -0.1049 -0.0234 -0.1090
 9961TIP3    H151374   2.245   6.452  15.866 -0.3974 -0.5586  1.2591
 9961TIP3    H251375   2.177   6.527  15.979  1.7500  2.7377  0.5049
 9962TIP3   OH251376   2.251   0.047  16.664 -0.0980  0.1579 -0.2190
 9962TIP3    H151377   2.226  -0.041  16.634 -3.2809  1.1876 -0.9615
 9962TIP3    H251378   2.285   0.033  16.752 -1.6272 -1.7612  0.1499
 9963TIP3   OH251379   3.036   3.367   3.090 -0.3620  0.0868  0.1038
 9963TIP3    H151380   2.967   3.434   3.094  1.1763  1.8768 -1.6760
 9963TIP3    H251381   3.035   3.336   3.000  0.9478 -0.0853  0.1273
 9964TIP3   OH251382   3.339   0.788   0.169 -0.3603  0.1991 -0.4097
 9964TIP3    H151383   3.418   0.775   0.117 -0.1818  0.9416 -0.3241
 9964TIP3    H251384   3.267   0.772   0.108 -0.1579 -0.4079 -0.5066
 9965TIP3   OH251385   0.339   5.256   0.791 -0.2735 -0.6661  0.6702
 9965TIP3    H151386   0.327   5.339   0.745 -0.2130 -1.4080 -0.7677
 9965TIP3    H251387   0.410   5.213   0.744 -2.3658 -2.8826 -0.7317
 9966TIP3   OH251388   1.216   5.729  14.756  0.2849 -0.2854 -0.2255
 9966TIP3    H151389   1.259   5.724  14.670 -0.0378 -0.0748 -0.4007
 9966TIP3    H251390   1.277   5.685  14.815  0.7521  0.0166 -0.4683
 9967TIP3   OH251391   5.712   3.589  16.939 -0.6325 -0.4043  0.0817
 9967TIP3    H151392   5.716   3.565  16.846 -1.1147 -0.0793 -0.0208
 9967TIP3    H251393   5.711   3.684  16.939 -1.2822 -0.4120  0.3975
 9968TIP3   OH251394   6.068   5.086   0.985  0.0823 -0.2178 -0.3772
 9968TIP3    H151395   6.005   5.117   1.050 -0.2959 -3.8259  1.2294
 9968TIP3    H251396   6.153   5.112   1.019 -0.0003 -3.0727  2.4648
 9969TIP3   OH251397   2.001   0.056  14.026  0.4720  0.6386  0.4105
 9969TIP3    H151398   1.935  -0.010  14.005  0.4697  0.6882  0.2579
 9969TIP3    H251399   2.078   0.029  13.976  0.1515  1.3277 -0.4871
 9970TIP3   OH251400   0.534   2.001   4.851 -0.3748 -0.3467 -0.1857
 9970TIP3    H151401   0.485   1.941   4.908 -1.5580  1.1467  0.4449
 9970TIP3    H251402   0.590   2.050   4.911  0.1091 -0.3606 -0.6184
 9971TIP3   OH251403   2.787   0.826   3.003  0.2525  0.0216  0.2752
 9971TIP3    H151404   2.774   0.856   2.913  1.1269  1.5428  0.6314
 9971TIP3    H251405   2.882   0.817   3.012  0.0965 -1.4661  0.6454
 9972TIP3   OH251406   0.436   5.395  12.529  0.3136 -0.2596 -0.6352
 9972TIP3    H151407   0.360   5.378  12.474 -1.1601  2.1677  0.4768
 9972TIP3    H251408   0.491   5.318  12.519 -3.2150 -3.1216  0.1102
 9973TIP3   OH251409   6.374   2.870  11.243 -0.0822  0.2552  0.0822
 9973TIP3    H151410   6.304   2.824  11.290 -1.2240  0.9413 -0.8917
 9973TIP3    H251411   6.365   2.841  11.152  1.7150 -0.5961  0.1455
 9974TIP3   OH251412   3.414   5.654   3.470  0.3368 -0.1158  0.8616
 9974TIP3    H151413   3.369   5.653   3.555  2.0992  1.2214  1.8986
 9974TIP3    H251414   3.380   5.577   3.424 -1.6595 -0.1484  2.2229
 9975TIP3   OH251415   6.722   0.535   0.834 -0.7154 -0.0254 -0.2437
 9975TIP3    H151416   6.700   0.626   0.854 -0.7239  0.1293 -0.9468
 9975TIP3    H251417   6.758   0.538   0.746 -0.3086 -0.6460 -0.1013
 9976TIP3   OH251418   3.347   4.303  14.652 -0.3433  0.4101 -0.8803
 9976TIP3    H151419   3.329   4.373  14.589  0.7426  0.4812 -1.1255
 9976TIP3    H251420   3.427   4.331  14.696 -0.3054 -0.3328 -0.4679
 9977TIP3   OH251421   6.241   0.064   0.636  0.1619  0.4454  0.4176
 9977TIP3    H151422   6.279   0.147   0.667 -0.5978  0.8594  0.2431
 9977TIP3    H251423   6.153   0.062   0.673  0.6208 -0.9237  1.5370
 9978TIP3   OH251424   6.600   3.769  15.146  0.8530  0.0842  0.5271
 9978TIP3    H151425   6.671   3.811  15.195  1.2360  0.6070 -0.4564
 9978TIP3    H251426   6.526   3.828  15.155  0.9156  0.1674  0.4966
 9979TIP3   OH251427   5.382   0.081  13.598 -0.4824  0.1901  0.2874
 9979TIP3    H151428   5.298   0.113  13.567 -1.4383 -1.4686  1.0151
 9979TIP3    H251429   5.375  -0.015  13.591  1.9522  0.0377 -1.1654
 9980TIP3   OH251430   1.603   2.916  12.741  0.5382 -0.1853  0.1294
 9980TIP3    H151431   1.533   2.980  12.732  1.1789  0.3689 -1.2331
 9980TIP3    H251432   1.564   2.833  12.714 -0.3982 -0.4986  2.2503
 9981TIP3   OH251433   4.949   2.826   1.209  0.2701  0.3239  0.5824
 9981TIP3    H151434   4.879   2.767   1.237  0.1361  0.9039  1.4991
 9981TIP3    H251435   4.933   2.907   1.258  2.2953  0.0799  1.7420
 9982TIP3   OH251436   3.152   0.058   0.007  0.4165 -0.2720 -0.3028
 9982TIP3    H151437   3.125   0.007  -0.069  1.0133 -1.1064  0.0220
 9982TIP3    H251438   3.247   0.052   0.007  0.4412  0.0664  0.2724
 9983TIP3   OH251439   2.654   2.355  14.360  0.0175 -0.1051 -0.7722
 9983TIP3    H151440   2.688   2.432  14.406  1.3170 -0.9557 -0.2614
 9983TIP3    H251441   2.640   2.291  14.429 -1.1856 -0.2975 -1.1812
 9984TIP3   OH251442   2.511   5.921  15.103  0.6075 -0.6217  0.4074
 9984TIP3    H151443   2.447   5.948  15.037 -1.5902 -3.0721  1.3541
 9984TIP3    H251444   2.585   5.888  15.053 -1.0411 -2.4869 -0.9355
 9985TIP3   OH251445   1.189   2.281   3.832 -0.5765 -0.9216  0.1762
 9985TIP3    H151446   1.100   2.249   3.846 -0.5181 -0.9009  0.5917
 9985TIP3    H251447   1.241   2.202   3.822 -0.8248 -0.9367 -1.2880
 9986TIP3   OH251448   2.593   3.291   2.000  0.5504 -0.3241 -0.9484
 9986TIP3    H151449   2.498   3.293   1.992  0.5823 -0.2873 -1.3169
 9986TIP3    H251450   2.619   3.213   1.950  0.5774 -1.3081  0.5343
 9987TIP3   OH251451   6.160   4.299  10.977  0.1156 -0.0397 -0.4271
 9987TIP3    H151452   6.070   4.307  11.008  0.7059  0.6323  1.2023
 9987TIP3    H251453   6.158   4.336  10.888 -1.2450 -0.2994 -0.5321
 9988TIP3   OH251454   1.426   2.573  11.728 -0.6674  0.5084  0.1127
 9988TIP3    H151455   1.414   2.660  11.766  0.1183  0.3041  0.8437
 9988TIP3    H251456   1.371   2.574  11.649  1.0918  2.4923 -1.2139
 9989TIP3   OH251457   0.919   1.227   1.123 -0.0616  0.4617 -0.0325
 9989TIP3    H151458   0.938   1.282   1.199 -0.1522  0.6781 -0.1642
 9989TIP3    H251459   0.978   1.152   1.132 -0.3123  0.3159  0.4296
 9990TIP3   OH251460   0.767   0.452  13.307 -0.5033  0.3538  0.6473
 9990TIP3    H151461   0.837   0.465  13.371 -0.0851  0.8749  0.0942
 9990TIP3    H251462   0.809   0.404  13.235 -0.8153  0.2998  0.4998
 9991TIP3   OH251463   2.588   0.956  13.586  0.0518 -0.5930 -0.0848
 9991TIP3    H151464   2.620   0.932  13.674  3.4942  1.8500 -0.4556
 9991TIP3    H251465   2.602   0.877  13.533  0.7369 -1.1990  0.9514
 9992TIP3   OH251466   3.352   2.420   2.675  0.3206 -0.5431  0.5203
 9992TIP3    H151467   3.322   2.354   2.613 -1.4314  0.1911  0.5156
 9992TIP3    H251468   3.350   2.376   2.760  0.5922 -0.9114  0.3373
 9993TIP3   OH251469   5.320   0.401   5.022  0.3211  0.2099  0.0014
 9993TIP3    H151470   5.300   0.483   5.067  1.3547  0.6980 -0.4042
 9993TIP3    H251471   5.283   0.333   5.079  0.3265  0.8929  0.8411
 9994TIP3   OH251472   6.693   5.527  11.655  0.1486 -0.8024  0.2439
 9994TIP3    H151473   6.752   5.560  11.723  1.2999  2.9778 -2.3080
 9994TIP3    H251474   6.613   5.578  11.665 -0.5597 -1.8599  0.1379
 9995TIP3   OH251475   2.170   1.278   0.570  0.0871  0.6488  0.3382
 9995TIP3    H151476   2.211   1.357   0.537  0.8014 -0.9573 -3.0883
 9995TIP3    H251477   2.077   1.300   0.576  0.2932  1.8213 -0.3847
 9996TIP3   OH251478   4.710   0.531   2.191 -0.4508  0.7429  0.1145
 9996TIP3    H151479   4.678   0.620   2.177  0.5387  0.8230 -1.9523
 9996TIP3    H251480   4.669   0.479   2.123  0.1429 -0.0967  0.3755
 9997TIP3   OH251481   1.278   4.681  10.526  0.4067  0.0682  0.1136
 9997TIP3    H151482   1.273   4.774  10.504  0.9432  0.3303  1.0129
 9997TIP3    H251483   1.372   4.663  10.530  0.3017 -0.7472 -0.9548
 9998TIP3   OH251484   5.652   1.489   0.066  0.9830  0.0249 -0.3577
 9998TIP3    H151485   5.667   1.521  -0.023 -1.9776  0.9283 -0.6290
 9998TIP3    H251486   5.683   1.561   0.122 -0.7066  1.1808 -0.8282
 9999TIP3   OH251487   0.226   0.841  13.761 -0.5323  0.2215 -0.2440
 9999TIP3    H151488   0.289   0.848  13.832 -0.4906  1.8796 -0.4102
 9999TIP3    H251489   0.154   0.898  13.787 -0.5863  0.7238 -1.4419
10000TIP3   OH251490   2.160   3.929  15.087 -0.3121  0.0468  0.1488
10000TIP3    H151491   2.192   3.850  15.131 -0.8977 -0.3207 -0.0734
10000TIP3    H251492   2.233   3.990  15.091 -0.1781 -0.1632  1.1873
10001TIP3   OH251493   3.467   1.874   1.813  0.1546  0.4077 -0.4984
10001TIP3    H151494   3.550   1.829   1.798  1.2129  1.9729  0.3607
10001TIP3    H251495   3.450   1.861   1.907 -0.8749 -0.3275 -0.7602
10002TIP3   OH251496   5.987   2.960   2.758  0.4451 -0.0845  0.2801
10002TIP3    H151497   6.040   3.030   2.719 -0.1720 -0.5085 -1.4156
10002TIP3    H251498   5.898   2.981   2.732  0.2670 -1.5546 -0.3823
10003TIP3   OH251499   2.588   6.354   3.408  0.4134  0.0645 -0.0485
10003TIP3    H151500   2.569   6.294   3.336  1.3328  0.4526 -0.6338
10003TIP3    H251501   2.659   6.409   3.375  0.5876  0.5019  1.0182
10004TIP3   OH251502   3.565   6.163   1.859 -0.0484 -0.0978 -0.0154
10004TIP3    H151503   3.520   6.079   1.851 -0.0358 -0.1924  0.8393
10004TIP3    H251504   3.523   6.219   1.793  1.0236 -1.2153 -1.7386
10005TIP3   OH251505   1.467   5.794   0.210 -0.1820  0.0906  0.0068
10005TIP3    H151506   1.380   5.766   0.184 -0.2169 -0.7348  0.9630
10005TIP3    H251507   1.511   5.816   0.128 -0.3036 -2.3109 -0.7697
10006TIP3   OH251508   5.593   4.489   3.390  0.3574  0.7227  0.3351
10006TIP3    H151509   5.506   4.465   3.423  0.0791  4.4815  2.8685
10006TIP3    H251510   5.576   4.523   3.302 -0.6284  0.7472  0.5180
10007TIP3   OH251511   3.055   5.375  16.592  0.5855 -0.2800  0.8612
10007TIP3    H151512   3.098   5.294  16.620  0.1564 -0.8482 -0.0512
10007TIP3    H251513   3.126   5.437  16.576  0.9076 -0.4232  1.7349
10008TIP3   OH251514   3.356   0.740  13.956 -0.0337 -0.9353  0.0369
10008TIP3    H151515   3.426   0.776  13.903 -0.7392  1.0260  0.3720
10008TIP3    H251516   3.331   0.811  14.015 -3.1608 -1.0974 -0.9214
10009TIP3   OH251517   4.556   3.011  16.808 -0.0473 -0.1012 -0.0212
10009TIP3    H151518   4.592   2.954  16.740 -0.3303  1.4531 -1.5629
10009TIP3    H251519   4.463   3.020  16.786 -0.2975 -0.1076  0.9806
10010TIP3   OH251520   4.064   2.059   4.720 -0.1758  0.3911  0.7766
10010TIP3    H151521   4.136   2.095   4.772  1.0608 -1.8314  0.7311
10010TIP3    H251522   4.062   2.114   4.642  2.4722 -0.2824  0.1058
10011TIP3   OH251523   2.240   5.397  15.489  0.2564 -0.1015  0.3827
10011TIP3    H151524   2.236   5.310  15.447  1.6659 -0.3640  0.7470
10011TIP3    H251525   2.198   5.455  15.426  0.9510 -0.7547 -0.7282
10012TIP3   OH251526   6.847   2.068  13.793  0.0322 -0.2493 -0.0126
10012TIP3    H151527   6.811   2.147  13.752 -1.9032 -0.4501  1.1870
10012TIP3    H251528   6.895   2.101  13.869  1.8411 -0.0462 -1.1774
10013TIP3   OH251529   3.932   0.749   4.224  0.4763 -0.4440 -0.0826
10013TIP3    H151530   3.874   0.680   4.255  0.4593 -0.1198  0.6538
10013TIP3    H251531   3.893   0.830   4.257 -1.0862  0.2525 -3.3597
10014TIP3   OH251532   5.714   4.463   5.963 -0.5106 -0.2516  0.4775
10014TIP3    H151533   5.677   4.551   5.970 -0.0321  0.1733 -1.6945
10014TIP3    H251534   5.688   4.420   6.045 -1.3243  1.6715  1.3029
10015TIP3   OH251535   5.067   5.061  17.062  0.4421 -0.3240 -0.3274
10015TIP3    H151536   5.060   5.097  17.150  0.0006  0.2780 -0.5999
10015TIP3    H251537   4.980   5.073  17.024  0.5934 -0.6908 -0.7991
10016TIP3   OH251538   0.518   5.647   3.392 -0.4412  0.2430 -0.6136
10016TIP3    H151539   0.473   5.641   3.308  0.9250 -1.7858 -1.2848
10016TIP3    H251540   0.611   5.654   3.369  0.3413 -3.7079  0.5492
10017TIP3   OH251541   4.988   0.485  16.065 -0.6983  0.1338  0.6407
10017TIP3    H151542   5.082   0.498  16.056 -0.6323 -0.4883  0.3713
10017TIP3    H251543   4.958   0.464  15.976 -1.1272  0.5563  0.6818
10018TIP3   OH251544   0.945   4.743   2.820  0.2993 -0.5840  0.3185
10018TIP3    H151545   0.980   4.745   2.909  0.1593 -1.4417  0.4052
10018TIP3    H251546   1.014   4.779   2.765  0.1831  0.4535  0.8305
10019TIP3   OH251547   2.006   6.332  15.661  0.0886  0.0304  0.4428
10019TIP3    H151548   1.956   6.345  15.741 -0.4615 -0.0200  0.1167
10019TIP3    H251549   2.051   6.415  15.647 -1.8958  1.0301 -0.5949
10020TIP3   OH251550   2.855   3.911  10.943  0.3348  0.2039 -0.1030
10020TIP3    H151551   2.871   3.963  10.864 -0.7077  0.6570 -0.0308
10020TIP3    H251552   2.760   3.912  10.953  0.3849 -0.7691  0.5492
10021TIP3   OH251553   5.238   6.109  13.552 -0.5469 -0.1002  0.8879
10021TIP3    H151554   5.248   6.128  13.459 -0.0933 -0.8178  0.7812
10021TIP3    H251555   5.302   6.166  13.595  0.8860 -1.3873  0.5652
10022TIP3   OH251556   3.328   5.447   2.654  0.3055  0.1244 -0.4737
10022TIP3    H151557   3.298   5.363   2.690  1.3302 -1.0274 -2.1680
10022TIP3    H251558   3.356   5.426   2.565  0.5350  2.3012 -0.9578
10023TIP3   OH251559   4.977   1.511  15.889  0.1570  0.9275 -0.6844
10023TIP3    H151560   5.013   1.422  15.888 -0.4759  0.5877  1.5717
10023TIP3    H251561   5.041   1.561  15.940 -0.7351  1.1621  0.2200
10024TIP3   OH251562   3.931   1.477   0.950  0.7681 -0.2743  0.9819
10024TIP3    H151563   3.975   1.562   0.943  3.2735 -1.4947  0.8577
10024TIP3    H251564   3.884   1.482   1.033 -1.1372  2.0286 -0.0943
10025TIP3   OH251565   4.766   2.550  14.475  0.0844 -0.0214 -0.0500
10025TIP3    H151566   4.701   2.592  14.532 -0.4100  2.1489 -2.0562
10025TIP3    H251567   4.802   2.478  14.528 -4.6970 -2.1507  0.8492
10026TIP3   OH251568   3.794   6.263   5.736  0.3510  0.1600  0.1162
10026TIP3    H151569   3.799   6.173   5.769 -0.4912 -1.0243 -2.6812
10026TIP3    H251570   3.701   6.281   5.730  0.5174  1.1536  0.4586
10027TIP3   OH251571   6.318   6.825  14.516  0.3749 -0.0006  0.7095
10027TIP3    H151572   6.251   6.872  14.466 -2.0149 -2.0528  1.7539
10027TIP3    H251573   6.349   6.757  14.457 -1.7711 -1.8270  1.5172
10028TIP3   OH251574   6.037   6.366   1.028  0.2609  0.2683  0.1093
10028TIP3    H151575   6.045   6.385   1.122 -0.3829  2.6731 -0.2743
10028TIP3    H251576   6.058   6.448   0.985  0.2620 -0.7233 -1.8741
10029TIP3   OH251577   2.530   3.588  16.467 -0.1456  0.4468  0.6339
10029TIP3    H151578   2.582   3.598  16.388 -1.1512  2.5694  0.1675
10029TIP3    H251579   2.576   3.639  16.534 -0.7026  0.9398  0.6593
10030TIP3   OH251580   3.370   3.787  12.659  0.1503  0.2678  0.0535
10030TIP3    H151581   3.407   3.864  12.702 -0.3358  0.6790 -0.2453
10030TIP3    H251582   3.399   3.794  12.568  2.7605 -1.5931  0.6420
10031TIP3   OH251583   3.555   4.281   4.698 -0.2188  0.1556 -0.2620
10031TIP3    H151584   3.633   4.310   4.650 -0.4403  2.3899  0.6197
10031TIP3    H251585   3.481   4.308   4.643 -0.4367  1.7128  0.7354
10032TIP3   OH251586   5.151   5.897   1.774  0.0631 -0.0189 -0.3354
10032TIP3    H151587   5.100   5.968   1.814  1.3646  1.2247 -0.7650
10032TIP3    H251588   5.207   5.942   1.710 -0.2266 -1.6495 -1.8075
10033TIP3   OH251589   5.001   3.393  12.649 -0.3166  0.6919  0.0284
10033TIP3    H151590   4.981   3.443  12.728  3.2573 -0.5549  1.9734
10033TIP3    H251591   5.094   3.371  12.657 -0.3062 -1.4376 -3.4791
10034TIP3   OH251592   2.386   0.048  15.674  0.3428 -0.0074 -0.6585
10034TIP3    H151593   2.357   0.011  15.758 -0.5129 -1.1657 -1.4306
10034TIP3    H251594   2.440  -0.021  15.635  0.3372  0.3284 -1.2630
10035TIP3   OH251595   6.450   5.489  15.300  0.0659  0.2939 -0.2198
10035TIP3    H151596   6.375   5.488  15.360 -0.2565 -0.6244 -0.6207
10035TIP3    H251597   6.513   5.548  15.341 -0.5996  0.5422  0.4644
10036TIP3   OH251598   0.763   4.271   0.989  0.5697 -0.0237  0.1187
10036TIP3    H151599   0.797   4.207   0.927 -0.3840  1.2617 -1.8019
10036TIP3    H251600   0.837   4.329   1.007  0.4107  0.6220 -1.2114
10037TIP3   OH251601   3.184   0.501   4.767 -0.0823  0.3998  0.6085
10037TIP3    H151602   3.143   0.434   4.712 -2.3157  1.3095  1.0382
10037TIP3    H251603   3.199   0.457   4.851 -1.9435  0.4847  1.0302
10038TIP3   OH251604   1.006   2.426   3.133  0.2299 -0.5312  0.1434
10038TIP3    H151605   0.947   2.381   3.072 -0.0081 -0.8751  0.6245
10038TIP3    H251606   0.948   2.463   3.199  0.5252 -0.5300  0.4029
10039TIP3   OH251607   3.273   5.643   0.150 -0.3749  0.2188 -0.5948
10039TIP3    H151608   3.251   5.591   0.073 -0.9538  1.0071 -0.9839
10039TIP3    H251609   3.358   5.611   0.177  0.4766  0.8345 -2.3756
10040TIP3   OH251610   5.855   3.088   2.413 -0.0636  0.0550  0.3259
10040TIP3    H151611   5.840   3.001   2.375  0.2086  0.0480  0.2320
10040TIP3    H251612   5.824   3.081   2.503 -0.4553 -0.0107  0.1874
10041TIP3   OH251613   5.885   3.810   4.273 -0.3374 -0.3289  0.3701
10041TIP3    H151614   5.791   3.816   4.292 -0.1859  0.3110  0.9798
10041TIP3    H251615   5.927   3.818   4.359  0.3452  1.7971 -0.0955
10042TIP3   OH251616   1.184   1.001  16.318 -0.2801 -0.6367 -0.0810
10042TIP3    H151617   1.251   0.947  16.277  0.0744 -0.0877 -0.2386
10042TIP3    H251618   1.225   1.036  16.397 -0.7834 -1.2591  0.4611
10043TIP3   OH251619   0.054   4.654  14.675  0.5195 -0.8019  0.0736
10043TIP3    H151620   0.142   4.691  14.663  0.6071 -0.6585  1.0680
10043TIP3    H251621   0.046   4.642  14.770 -0.6449 -0.5549  0.0168
10044TIP3   OH251622   4.692   2.690  15.371  0.6890 -0.1255 -0.2965
10044TIP3    H151623   4.724   2.602  15.393 -0.3657 -0.5608 -0.4350
10044TIP3    H251624   4.679   2.688  15.276  1.0163  0.3034 -0.3530
10045TIP3   OH251625   2.363   1.992   4.219  0.2310 -0.1193 -0.2972
10045TIP3    H151626   2.357   2.036   4.304 -1.0724  0.1690 -0.5287
10045TIP3    H251627   2.451   1.954   4.219  0.5113  0.4704  0.8872
10046TIP3   OH251628   0.158   2.650   1.380  0.0624  0.0993  0.7277
10046TIP3    H151629   0.111   2.687   1.305  0.6868  0.3207  0.4385
10046TIP3    H251630   0.106   2.575   1.406  0.0057 -0.1741 -0.1359
10047TIP3   OH251631   2.552   3.885   4.627  0.5256 -0.0428 -0.0343
10047TIP3    H151632   2.485   3.887   4.559 -0.7603 -0.7536  1.1716
10047TIP3    H251633   2.583   3.794   4.628  0.2314 -0.1376  0.6182
10048TIP3   OH251634   1.577   0.024   0.726 -0.1754  0.6671 -0.0883
10048TIP3    H151635   1.547  -0.067   0.721  1.2569  0.2173 -1.1943
10048TIP3    H251636   1.666   0.022   0.690  0.0925  2.4204  0.3883
10049TIP3   OH251637   1.585   1.309  12.903  0.2307 -0.0013  0.3216
10049TIP3    H151638   1.538   1.392  12.912  0.3336 -0.0944  1.9516
10049TIP3    H251639   1.534   1.247  12.954 -1.6891 -1.8231 -3.4280
10050TIP3   OH251640   6.719   6.021   2.763  0.0094 -0.4114  0.3635
10050TIP3    H151641   6.788   6.087   2.761  1.1358 -1.5623 -1.4179
10050TIP3    H251642   6.652   6.053   2.703 -0.0416 -0.2896  0.4852
10051TIP3   OH251643   6.228   1.754   3.676 -0.4455  0.2900  0.3251
10051TIP3    H151644   6.175   1.683   3.639 -0.0413  0.6599 -1.0474
10051TIP3    H251645   6.240   1.815   3.603  2.5535 -0.1541  0.3205
10052TIP3   OH251646   4.963   2.665  15.841 -0.3535 -0.7141  0.5635
10052TIP3    H151647   5.019   2.660  15.763 -0.0752  0.3044  0.6778
10052TIP3    H251648   4.925   2.753  15.837 -2.3004 -1.5169  0.2698
10053TIP3   OH251649   3.192   3.104  16.889 -0.5221  0.0061  0.2142
10053TIP3    H151650   3.173   3.104  16.795  0.4558  0.7916 -0.0058
10053TIP3    H251651   3.112   3.136  16.930 -0.2417  1.8853 -0.5631
10054TIP3   OH251652   2.974   2.022   5.364  0.1446 -0.3773 -0.3141
10054TIP3    H151653   3.062   2.061   5.365 -0.2006  0.4453  1.6279
10054TIP3    H251654   2.988   1.932   5.393  0.3057 -0.1097  0.4622
10055TIP3   OH251655   0.069   0.706  12.955  0.3403  0.2259 -0.2006
10055TIP3    H151656   0.037   0.691  12.866 -2.4266 -0.0951  0.7528
10055TIP3    H251657   0.067   0.620  12.996 -0.4882  0.6736  0.7606
10056TIP3   OH251658   5.451   2.667   3.819  0.0459  0.0267 -0.2493
10056TIP3    H151659   5.539   2.701   3.801 -0.4433  1.5538  0.0471
10056TIP3    H251660   5.449   2.658   3.915  0.7298 -2.5611 -0.4130
10057TIP3   OH251661   0.929   1.622  14.767  0.4589  0.0439 -0.1095
10057TIP3    H151662   0.957   1.599  14.856 -1.9399 -1.6610  0.3135
10057TIP3    H251663   0.841   1.585  14.760 -0.4887  2.4328 -2.3132
10058TIP3   OH251664   3.498   1.441   5.740 -0.1798  0.5238  0.1235
10058TIP3    H151665   3.529   1.351   5.740 -1.2723  0.1214  0.7980
10058TIP3    H251666   3.576   1.494   5.755  0.3483 -0.3726  0.6096
10059TIP3   OH251667   2.912   3.033  14.637 -0.0063 -0.1509  0.0259
10059TIP3    H151668   2.857   3.029  14.716  1.2673 -2.5355  0.8955
10059TIP3    H251669   2.990   3.082  14.665  0.7802 -1.6386  0.5258
10060TIP3   OH251670   3.180   0.687  15.359  0.5558 -0.5931 -0.0357
10060TIP3    H151671   3.167   0.753  15.290 -1.6198 -1.6055 -0.6787
10060TIP3    H251672   3.164   0.734  15.441  0.5283  0.0240 -0.3863
10061TIP3   OH251673   4.742   4.370   2.441  0.1152 -0.0744  0.1109
10061TIP3    H151674   4.788   4.453   2.434 -2.7734  1.6237 -0.3269
10061TIP3    H251675   4.725   4.345   2.350  0.6055 -0.9668  0.2539
10062TIP3   OH251676   2.577   0.630   1.536  0.3713  0.9272 -0.2935
10062TIP3    H151677   2.570   0.560   1.601  2.3066  1.5553  0.6725
10062TIP3    H251678   2.555   0.587   1.453 -1.3374 -0.0941  0.6285
10063TIP3   OH251679   3.994   3.277   2.505  0.0872  0.2781 -0.6521
10063TIP3    H151680   4.024   3.253   2.417 -1.0062 -1.8630 -0.5067
10063TIP3    H251681   3.982   3.372   2.501  1.7270  0.4637 -2.2631
10064TIP3   OH251682   4.237   1.779  12.699  0.2929 -0.6105 -0.1624
10064TIP3    H151683   4.237   1.797  12.605 -0.3391 -0.5687 -0.1575
10064TIP3    H251684   4.249   1.684  12.706  0.2812 -0.6208 -0.2850
10065TIP3   OH251685   6.827   2.221   0.259  0.3175 -0.5841  0.0460
10065TIP3    H151686   6.893   2.237   0.192  0.4298  1.1494  0.5216
10065TIP3    H251687   6.871   2.237   0.342  1.0091 -5.4295  0.9063
10066TIP3   OH251688   1.966   1.026  13.792  0.3846 -0.5717  0.3384
10066TIP3    H151689   1.936   0.976  13.716  1.2162 -0.7093  0.0887
10066TIP3    H251690   1.908   0.999  13.863 -0.5173 -0.3058 -0.2905
10067TIP3   OH251691   2.151   1.050  16.598  0.0205  0.9178  0.0024
10067TIP3    H151692   2.107   0.965  16.584 -1.5092  1.6891 -0.1196
10067TIP3    H251693   2.079   1.112  16.611  1.1407  1.9552  1.5913
10068TIP3   OH251694   6.548   1.749   1.904  0.4774  0.3263  0.1937
10068TIP3    H151695   6.492   1.702   1.966  0.3875  1.1152  0.7228
10068TIP3    H251696   6.565   1.685   1.834  2.6953 -1.4683  2.2218
10069TIP3   OH251697   6.377   5.150  15.119 -0.0434 -0.4756  0.8449
10069TIP3    H151698   6.418   5.152  15.032 -1.0427  1.0069  0.3606
10069TIP3    H251699   6.444   5.186  15.177 -0.4872  1.7132  0.1012
10070TIP3   OH251700   3.292   1.615   0.409  0.9371  0.1112  0.4254
10070TIP3    H151701   3.253   1.528   0.413 -1.9967  1.3387  0.8410
10070TIP3    H251702   3.354   1.617   0.481 -2.9263  0.0336  4.1081
10071TIP3   OH251703   2.742   0.241  11.696  0.2182 -0.0960 -0.2431
10071TIP3    H151704   2.747   0.314  11.634  0.7633 -0.9091 -1.1957
10071TIP3    H251705   2.810   0.180  11.666  0.8212 -0.3068  1.4540
10072TIP3   OH251706   6.496   6.836   5.949 -0.5803  0.2111  0.0717
10072TIP3    H151707   6.483   6.743   5.967 -0.0620  0.6495  3.3645
10072TIP3    H251708   6.413   6.878   5.971  0.2214  0.8427  2.2036
10073TIP3   OH251709   5.487   5.012   2.108  0.3850  0.3423  0.0457
10073TIP3    H151710   5.476   5.008   2.203 -2.6934 -1.3968 -0.2574
10073TIP3    H251711   5.493   5.106   2.089  1.7425  0.7084  1.9490
10074TIP3   OH251712   0.060   4.850   0.980 -0.2482 -0.3998  0.4948
10074TIP3    H151713   0.032   4.922   1.036  0.5202 -0.1976  0.6253
10074TIP3    H251714   0.002   4.777   1.004 -2.3208  0.6729 -0.9604
10075TIP3   OH251715   0.502   0.556  14.960  0.8569  0.3994  0.4375
10075TIP3    H151716   0.423   0.601  14.932  1.6463  0.6071 -1.6334
10075TIP3    H251717   0.570   0.624  14.958  1.7383 -0.4596 -1.1900
10076TIP3   OH251718   6.153   2.613   2.114 -0.4120  0.1823 -0.3417
10076TIP3    H151719   6.153   2.560   2.034 -1.0319 -2.7096  1.4482
10076TIP3    H251720   6.246   2.631   2.130 -0.0882 -1.2501 -0.4706
10077TIP3   OH251721   3.704   4.357   2.358 -0.9412 -0.3251  0.0086
10077TIP3    H151722   3.752   4.433   2.326 -1.6082 -0.0098 -0.2680
10077TIP3    H251723   3.657   4.389   2.435  0.4810 -1.0244  1.2145
10078TIP3   OH251724   6.009   0.842  11.255 -0.5801 -0.1911 -0.4019
10078TIP3    H151725   6.016   0.876  11.344 -0.0598 -0.3679 -0.3759
10078TIP3    H251726   5.991   0.749  11.266 -0.7807 -0.1633 -0.4831
10079TIP3   OH251727   4.748   0.313  12.416 -0.7424  0.1040  0.1578
10079TIP3    H151728   4.760   0.222  12.445 -0.7789  0.5739  1.7829
10079TIP3    H251729   4.655   0.320  12.397 -0.4618 -0.6282 -1.6602
10080TIP3   OH251730   1.486   3.434  12.577 -0.1440 -0.2920 -0.5669
10080TIP3    H151731   1.406   3.385  12.557 -0.2007  0.1423 -1.4903
10080TIP3    H251732   1.485   3.507  12.515  0.1270  0.6760  0.5375
10081TIP3   OH251733   3.815   1.609  16.100  0.1998 -0.1199 -0.1059
10081TIP3    H151734   3.891   1.665  16.084  0.0559  0.9797  2.5805
10081TIP3    H251735   3.850   1.520  16.097  0.8941  0.1685 -2.1603
10082TIP3   OH251736   6.655   0.734  12.117  0.1053  0.4643 -0.0026
10082TIP3    H151737   6.594   0.801  12.088 -0.9702 -0.9476 -1.1624
10082TIP3    H251738   6.608   0.687  12.186  0.1796 -0.1325 -0.3528
10083TIP3   OH251739   6.249   6.243  15.028  0.2604 -0.0270  0.4935
10083TIP3    H151740   6.324   6.184  15.019 -0.2408 -0.4072 -1.5751
10083TIP3    H251741   6.173   6.185  15.029 -0.2009  0.5320 -0.9444
10084TIP3   OH251742   3.977   5.745   0.282 -0.7268  0.1881 -0.6372
10084TIP3    H151743   4.035   5.679   0.244 -0.4068 -1.0789  1.8829
10084TIP3    H251744   4.035   5.815   0.309 -0.6320 -0.0881 -0.1200
10085TIP3   OH251745   4.402   2.657   3.714 -0.1192  0.2155  0.5130
10085TIP3    H151746   4.466   2.680   3.647  0.4980 -0.4904  0.8405
10085TIP3    H251747   4.389   2.737   3.764 -2.0693  1.3292 -1.6118
10086TIP3   OH251748   5.777   0.484  12.680  0.2593  0.3762  0.5909
10086TIP3    H151749   5.737   0.484  12.767  0.4686  0.9004  0.6915
10086TIP3    H251750   5.833   0.561  12.679  1.3700 -0.4122  0.4931
10087TIP3   OH251751   3.975   4.765   5.180  0.1837  0.1009  0.3175
10087TIP3    H151752   3.948   4.828   5.114  0.6692 -0.0050  0.0091
10087TIP3    H251753   4.022   4.817   5.245  0.5468  0.0683  0.0849
10088TIP3   OH251754   0.236   5.575  15.281 -0.2505 -0.4538 -0.1915
10088TIP3    H151755   0.242   5.592  15.187 -0.4838  0.1494 -0.1037
10088TIP3    H251756   0.190   5.652  15.316 -1.4552 -1.3266  0.2102
10089TIP3   OH251757   6.706   1.090  12.470 -0.0008  0.2360 -0.5385
10089TIP3    H151758   6.781   1.106  12.528 -0.9247 -0.8647  1.0348
10089TIP3    H251759   6.721   1.003  12.434 -0.0383  0.4258 -1.0229
10090TIP3   OH251760   6.758   4.943   3.167 -0.5059  0.5099  0.2307
10090TIP3    H151761   6.719   5.023   3.202 -1.7373  0.0419 -0.0252
10090TIP3    H251762   6.727   4.938   3.077  1.4333  0.9214 -0.4971
10091TIP3   OH251763   2.178   2.123  13.191  0.0113  0.0398  0.1143
10091TIP3    H151764   2.186   2.179  13.114 -0.2780 -0.1023 -0.0220
10091TIP3    H251765   2.158   2.036  13.156 -1.9061  0.3196  0.3763
10092TIP3   OH251766   2.259   4.206   2.951 -0.1625 -0.0155  0.0188
10092TIP3    H151767   2.244   4.240   2.862  0.9248 -1.0237 -0.5828
10092TIP3    H251768   2.232   4.114   2.946  0.6881 -0.2992  0.4850
10093TIP3   OH251769   4.250   2.326   3.583  0.7867  0.1345 -1.1224
10093TIP3    H151770   4.271   2.235   3.562 -0.8630 -0.1897 -1.5143
10093TIP3    H251771   4.257   2.373   3.500 -0.5629 -0.1028 -1.3917
10094TIP3   OH251772   5.359   0.023   2.767 -0.2532  0.3096 -0.0884
10094TIP3    H151773   5.324   0.026   2.856  1.4248  1.7114  0.5777
10094TIP3    H251774   5.283   0.002   2.712 -1.9651  2.2902  1.3562
10095TIP3   OH251775   1.283   4.376   0.660 -0.2391 -0.1212 -0.1320
10095TIP3    H151776   1.220   4.430   0.707  1.7813  1.8223  0.4771
10095TIP3    H251777   1.238   4.292   0.649 -2.9008  1.1325  0.2789
10096TIP3   OH251778   1.786   1.723  10.895 -0.0299  0.3640  0.2374
10096TIP3    H151779   1.825   1.773  10.967 -0.4023  2.2817 -0.8358
10096TIP3    H251780   1.763   1.639  10.935  0.8615  0.9202  2.0579
10097TIP3   OH251781   6.629   6.221   4.182  0.3257 -0.3877  0.3152
10097TIP3    H151782   6.680   6.290   4.139  2.1882 -1.2322  1.0704
10097TIP3    H251783   6.633   6.244   4.275 -0.5417 -0.5856  0.4111
10098TIP3   OH251784   1.650   2.479   0.802  0.1773 -0.2441 -0.1379
10098TIP3    H151785   1.745   2.496   0.806 -0.0590  1.3808 -0.7809
10098TIP3    H251786   1.633   2.426   0.880  1.2628  1.3602  1.2554
10099TIP3   OH251787   0.746   4.882  14.018  0.8285 -0.7780  0.2425
10099TIP3    H151788   0.795   4.903  13.939  1.3428 -2.2446  0.1549
10099TIP3    H251789   0.655   4.901  13.995  1.0231 -0.7904 -0.5643
10100TIP3   OH251790   5.995   4.782   1.608 -0.6454  0.1218  0.0578
10100TIP3    H151791   5.949   4.697   1.608  1.3813 -1.0468  0.8219
10100TIP3    H251792   5.954   4.831   1.537 -3.4507 -0.5959  1.0467
10101TIP3   OH251793   2.589   4.605   3.836  0.5349  0.1622 -0.0149
10101TIP3    H151794   2.614   4.524   3.881 -0.6222 -0.5624 -0.6205
10101TIP3    H251795   2.502   4.625   3.869  0.2002  0.3313 -0.9601
10102TIP3   OH251796   6.126   1.780  11.689  0.6255  0.2545  0.3253
10102TIP3    H151797   6.143   1.692  11.656  0.2349 -0.5338  2.1481
10102TIP3    H251798   6.200   1.799  11.747  1.5144  1.7923 -1.1805
10103TIP3   OH251799   2.326   2.687   3.800  0.1863  0.4479  0.9848
10103TIP3    H151800   2.375   2.606   3.815 -0.9007 -0.0982  1.7192
10103TIP3    H251801   2.387   2.756   3.825  0.5097 -0.2236  2.1839
10104TIP3   OH251802   4.465   1.966  15.856 -0.2275  0.9509 -0.0984
10104TIP3    H151803   4.398   1.905  15.888  0.5187 -0.3677 -0.9557
10104TIP3    H251804   4.532   1.963  15.924  0.8291 -0.9655 -1.1324
10105TIP3   OH251805   6.845   0.319  14.333  0.4773  0.5696  0.2087
10105TIP3    H151806   6.810   0.281  14.414 -0.2756  0.2085 -0.2765
10105TIP3    H251807   6.842   0.247  14.270 -3.4869  1.9589 -1.5210
10106TIP3   OH251808   0.791   4.485  12.579 -0.5691 -0.3016  0.2857
10106TIP3    H151809   0.885   4.497  12.575 -0.6889  0.4376 -0.7729
10106TIP3    H251810   0.758   4.562  12.625 -0.6457 -0.6555  0.8319
10107TIP3   OH251811   1.931   2.649  16.916 -0.1507 -0.2132  0.2050
10107TIP3    H151812   1.991   2.589  16.871  1.5391  1.2329  0.4163
10107TIP3    H251813   1.866   2.673  16.849 -0.0100 -1.1463 -0.2825
10108TIP3   OH251814   2.304   3.738  15.904 -0.0120  0.7867  0.0570
10108TIP3    H151815   2.352   3.761  15.825 -0.1344 -0.5927 -0.4458
10108TIP3    H251816   2.370   3.697  15.960 -0.5813 -1.3261 -0.7285
10109TIP3   OH251817   4.292   6.819   0.061  0.1711  0.3501  0.6376
10109TIP3    H151818   4.385   6.798   0.051  0.3106  1.3154 -0.2879
10109TIP3    H251819   4.260   6.827  -0.028 -1.1173 -1.2167  0.9317
10110TIP3   OH251820   1.542   6.644  15.252 -0.1509  0.3419 -0.5084
10110TIP3    H151821   1.568   6.736  15.255 -0.8908  0.5372  0.5565
10110TIP3    H251822   1.601   6.601  15.314  1.3063 -0.2301 -2.2179
10111TIP3   OH251823   4.151   4.543  11.087  0.0314  0.3028  0.1576
10111TIP3    H151824   4.236   4.521  11.124 -1.0454  0.9362  3.3540
10111TIP3    H251825   4.090   4.482  11.130 -1.2632  0.4953 -1.3284
10112TIP3   OH251826   1.438   5.964  16.761  0.0496 -0.5650 -0.3154
10112TIP3    H151827   1.361   6.001  16.804  0.1492 -0.6585 -0.0554
10112TIP3    H251828   1.475   5.903  16.825  0.7771  0.0438 -0.1316
10113TIP3   OH251829   3.065   0.352   6.633  0.3452 -0.3865  0.4575
10113TIP3    H151830   3.038   0.444   6.631 -0.4697 -0.6279 -1.5601
10113TIP3    H251831   2.987   0.304   6.661  0.4395 -0.5501  0.4425
10114TIP3   OH251832   2.259   3.426  13.814 -0.0809  0.2299 -0.2540
10114TIP3    H151833   2.232   3.453  13.726  1.2026  0.6596 -0.5425
10114TIP3    H251834   2.312   3.347  13.800 -0.2388  0.0444  0.1759
10115TIP3   OH251835   6.422   4.819   1.159  0.1615 -0.2617  0.0588
10115TIP3    H151836   6.372   4.876   1.217 -1.3693 -1.2055 -0.2729
10115TIP3    H251837   6.468   4.759   1.218  0.4635  0.2462  0.3492
10116TIP3   OH251838   3.440   2.444  16.266  0.2539  0.6960 -0.4609
10116TIP3    H151839   3.353   2.453  16.305  0.1225  0.2137 -0.6404
10116TIP3    H251840   3.497   2.421  16.339  0.2097  0.8764 -0.3686
10117TIP3   OH251841   6.195   6.755  16.895  0.2667 -0.1080 -0.1652
10117TIP3    H151842   6.220   6.723  16.809 -0.4817 -1.5976  0.1377
10117TIP3    H251843   6.116   6.807  16.879  0.5900  0.2918 -0.4708
10118TIP3   OH251844   5.407   3.500  13.528  0.2274 -0.1024 -0.1079
10118TIP3    H151845   5.464   3.532  13.598  0.1764 -1.7698  0.7585
10118TIP3    H251846   5.330   3.466  13.574 -0.4404  0.0611 -1.0936
10119TIP3   OH251847   5.559   2.848   1.124 -0.2429 -0.3703 -0.2591
10119TIP3    H151848   5.533   2.757   1.138 -3.8223  0.1538 -2.3338
10119TIP3    H251849   5.655   2.846   1.127 -0.1611 -4.2377 -0.4879
10120TIP3   OH251850   3.822   5.104   1.617 -0.1879 -0.4856  0.6344
10120TIP3    H151851   3.791   5.089   1.528  1.5043 -0.8826  0.0750
10120TIP3    H251852   3.771   5.044   1.671 -1.9061  0.4189  0.1044
10121TIP3   OH251853   6.754   5.750  15.900 -0.5873 -0.4002 -0.2309
10121TIP3    H151854   6.812   5.819  15.933  0.8116 -1.5331 -0.2351
10121TIP3    H251855   6.751   5.686  15.971 -2.7696  0.1292  0.2285
10122TIP3   OH251856   3.674   5.003   0.852  0.6498 -0.0511  0.1601
10122TIP3    H151857   3.624   5.016   0.933  0.9473  0.0766  0.3244
10122TIP3    H251858   3.745   4.945   0.877  0.1467 -0.8667 -0.2507
10123TIP3   OH251859   3.438   5.690   4.897 -0.1319 -0.2464  0.2062
10123TIP3    H151860   3.370   5.727   4.841 -1.2461  0.2410  1.8065
10123TIP3    H251861   3.520   5.726   4.862 -0.6696 -0.7199 -1.6478
10124TIP3   OH251862   0.276   3.853   4.149 -0.1022  0.0976 -0.0162
10124TIP3    H151863   0.225   3.773   4.137  1.1406 -0.4904 -1.6160
10124TIP3    H251864   0.351   3.827   4.202 -0.9372  0.7789  1.5855
10125TIP3   OH251865   6.325   2.294   0.617  0.3572 -0.4624 -0.5307
10125TIP3    H151866   6.342   2.388   0.608 -0.5155 -0.2369  0.0775
10125TIP3    H251867   6.395   2.253   0.567 -0.5859  0.5668 -2.8330
10126TIP3   OH251868   0.100   1.193   5.545 -0.4686  0.1922 -0.0912
10126TIP3    H151869   0.181   1.243   5.531 -0.6867  0.1923 -1.4841
10126TIP3    H251870   0.036   1.236   5.488 -1.9270  1.2161  2.1906
10127TIP3   OH251871   6.596   6.041  15.368 -0.2494  0.1304  0.3990
10127TIP3    H151872   6.644   5.970  15.410 -0.5938  0.4057  1.2673
10127TIP3    H251873   6.658   6.077  15.305  0.3941 -0.0593  0.9084
10128TIP3   OH251874   3.585   4.965  12.562  0.1142 -0.3837 -0.5973
10128TIP3    H151875   3.646   4.937  12.629  0.0650  0.0894 -0.3489
10128TIP3    H251876   3.499   4.967  12.605  0.0391 -0.3346 -0.7454
10129TIP3   OH251877   6.318   0.049  13.048  0.9879  0.1076  0.4207
10129TIP3    H151878   6.377   0.115  13.012  1.3576  0.3491  1.4388
10129TIP3    H251879   6.353  -0.035  13.018  0.3240  0.3639 -1.1673
10130TIP3   OH251880   0.549   1.892   6.034  0.2699  0.2099 -0.2465
10130TIP3    H151881   0.496   1.814   6.047 -2.3439  1.7483 -0.8768
10130TIP3    H251882   0.627   1.861   5.988 -0.2593 -2.1145  0.3176
10131TIP3   OH251883   3.549   2.494  17.019  0.1931  0.0110  0.0997
10131TIP3    H151884   3.536   2.553  17.093  0.1123 -0.6811  0.6373
10131TIP3    H251885   3.615   2.432  17.048 -0.2642 -0.6266 -0.1928
10132TIP3   OH251886   3.824   5.694   2.977  0.0091 -0.2757  0.2321
10132TIP3    H151887   3.865   5.762   2.923 -0.7164  0.7398  0.9001
10132TIP3    H251888   3.896   5.655   3.026  0.3503  0.5809  0.4327
10133TIP3   OH251889   1.976   6.104  12.493  0.0182 -0.3845  0.1586
10133TIP3    H151890   1.971   6.107  12.397 -0.8887 -0.2093  0.2027
10133TIP3    H251891   1.940   6.019  12.517  0.2615 -0.4362  0.3468
10134TIP3   OH251892   0.998   2.420   1.071  0.4227  0.4340  0.0263
10134TIP3    H151893   1.030   2.510   1.059  0.1969  0.5844  0.5313
10134TIP3    H251894   0.987   2.387   0.982  2.8554  0.0584 -0.1857
10135TIP3   OH251895   1.951   0.967  13.055  0.8429  0.4237  0.8340
10135TIP3    H151896   1.900   0.894  13.088  1.6552  0.1740  1.5665
10135TIP3    H251897   1.887   1.025  13.013  0.3267 -1.3312 -0.9734
10136TIP3   OH251898   0.956   2.522  16.618  0.0354 -0.3867  0.1967
10136TIP3    H151899   0.902   2.595  16.647  0.6639  1.1017 -2.0925
10136TIP3    H251900   0.971   2.470  16.697 -0.7432  1.7378  1.8363
10137TIP3   OH251901   4.044   1.654  11.796 -0.1136  0.1064 -0.4579
10137TIP3    H151902   3.981   1.589  11.765 -0.6898  0.8507 -0.8691
10137TIP3    H251903   4.074   1.620  11.881 -0.2821 -0.7704 -0.7389
10138TIP3   OH251904   2.278   4.218   1.528  0.1620  0.1213  0.3473
10138TIP3    H151905   2.219   4.282   1.568 -0.1538 -0.2190  0.4350
10138TIP3    H251906   2.255   4.135   1.569  0.4376 -0.0817  0.0984
10139TIP3   OH251907   0.838   2.197   1.856  0.0798  0.4138 -0.3846
10139TIP3    H151908   0.930   2.218   1.842 -0.1135  1.3436 -0.3430
10139TIP3    H251909   0.807   2.166   1.770  0.8899 -1.8467  0.0728
10140TIP3   OH251910   6.362   5.280  12.676  0.7475  0.8082  0.0779
10140TIP3    H151911   6.456   5.264  12.682  0.9172  1.1715 -1.2774
10140TIP3    H251912   6.340   5.324  12.758  1.8393  1.0624  0.2518
10141TIP3   OH251913   3.753   3.023  15.737  0.6092  0.6928  0.3688
10141TIP3    H151914   3.669   3.052  15.701  0.9581  1.8941  0.4618
10141TIP3    H251915   3.776   2.946  15.685 -0.7874  0.0233  0.6973
10142TIP3   OH251916   5.026   6.082   3.032 -0.2841 -0.5487  0.0645
10142TIP3    H151917   5.104   6.035   3.002 -0.1899 -0.7777  0.6628
10142TIP3    H251918   5.011   6.050   3.121 -0.6217  0.0552  0.2277
10143TIP3   OH251919   1.015   4.213  16.398  0.1655 -0.7114  0.5534
10143TIP3    H151920   1.077   4.274  16.358 -0.3397 -0.7381 -0.2840
10143TIP3    H251921   0.931   4.234  16.358 -0.6744  0.2354  2.6347
10144TIP3   OH251922   4.422   0.637   2.736  0.3975  0.2167  0.5050
10144TIP3    H151923   4.393   0.710   2.790 -0.3152  1.3410 -1.3290
10144TIP3    H251924   4.518   0.642   2.740  0.4512 -0.9524  3.1784
10145TIP3   OH251925   0.416   1.907  16.718 -0.3917 -0.1588  0.1630
10145TIP3    H151926   0.331   1.903  16.674 -0.3172 -1.0075  0.0731
10145TIP3    H251927   0.480   1.898  16.647 -0.2011  1.0306  0.1669
10146TIP3   OH251928   1.297   0.265   1.443  0.4808  0.7717  0.1429
10146TIP3    H151929   1.340   0.204   1.503  2.0727 -0.4152 -2.0153
10146TIP3    H251930   1.360   0.275   1.371 -2.6991 -0.9918 -3.2345
10147TIP3   OH251931   6.264   5.029  12.668  0.3500  0.0151  0.4707
10147TIP3    H151932   6.336   4.975  12.635  0.4170  0.5627 -0.2971
10147TIP3    H251933   6.297   5.118  12.663 -0.9665  0.4403 -1.4935
10148TIP3   OH251934   0.904   3.020  14.503 -0.2833 -0.1363 -0.1169
10148TIP3    H151935   0.971   3.034  14.437 -0.3403 -0.0016 -0.1455
10148TIP3    H251936   0.920   3.087  14.569  1.8055 -2.1934  1.6495
10149TIP3   OH251937   5.207   2.757   4.628 -0.1528  0.2583  0.1287
10149TIP3    H151938   5.193   2.814   4.553  1.5920  0.1844 -0.2786
10149TIP3    H251939   5.122   2.714   4.641 -0.3116 -0.2308 -2.1939
10150TIP3   OH251940   5.437   2.852   1.868 -0.1480  0.4013  0.3808
10150TIP3    H151941   5.470   2.846   1.779  1.2117 -3.9758  0.9377
10150TIP3    H251942   5.342   2.851   1.860 -0.0314 -0.3991 -1.0045
10151TIP3   OH251943   0.557   1.366  10.735  0.4739  0.1767  0.4058
10151TIP3    H151944   0.527   1.384  10.824 -0.4592  0.3020  0.0765
10151TIP3    H251945   0.551   1.450  10.690  2.6820  0.5383  0.6820
10152TIP3   OH251946   3.283   1.220   0.761  0.4234 -0.4664 -0.4204
10152TIP3    H151947   3.332   1.273   0.824  0.8131 -2.6007  1.1725
10152TIP3    H251948   3.337   1.142   0.747 -1.2908 -1.6870 -0.5996
10153TIP3   OH251949   1.356   4.401   0.185 -0.3498 -0.1201  0.3002
10153TIP3    H151950   1.335   4.451   0.263  0.2968  0.9590 -0.1898
10153TIP3    H251951   1.283   4.340   0.175 -0.3771 -0.3519  1.7944
10154TIP3   OH251952   2.858   4.270  11.710  0.0588  0.0729  0.4096
10154TIP3    H151953   2.908   4.250  11.631 -1.9041 -1.3965 -0.5441
10154TIP3    H251954   2.822   4.358  11.694 -2.0178 -0.9870 -1.3744
10155TIP3   OH251955   4.776   6.072  15.701  0.2150  0.1301  0.8542
10155TIP3    H151956   4.776   6.146  15.761  0.1878 -0.6770  1.8762
10155TIP3    H251957   4.755   6.110  15.616 -1.2786  1.0993  1.6170
10156TIP3   OH251958   6.681   5.593  16.717 -0.5664  0.3799  0.3558
10156TIP3    H151959   6.618   5.561  16.653 -1.3474 -0.4224  1.4702
10156TIP3    H251960   6.634   5.587  16.801  0.6873  0.6249  1.0962
10157TIP3   OH251961   0.880   0.465   4.634 -0.2415 -0.6141  0.2570
10157TIP3    H151962   0.960   0.516   4.616 -0.5637  0.2014  1.0834
10157TIP3    H251963   0.838   0.456   4.549  0.3174 -0.3407 -0.0539
10158TIP3   OH251964   0.397   6.203  15.437  0.1923  0.2761  0.1733
10158TIP3    H151965   0.406   6.296  15.457  1.1918  0.2121  0.0808
10158TIP3    H251966   0.329   6.172  15.497  1.4555  0.5915  1.8405
10159TIP3   OH251967   0.014   0.170   5.336  0.2867  0.3544  0.2715
10159TIP3    H151968  -0.069   0.123   5.349  0.7874 -1.0368 -1.2719
10159TIP3    H251969  -0.001   0.222   5.258  0.6787  0.5491  0.3284
10160TIP3   OH251970   0.176   3.152   1.985  0.4267  0.1468 -0.5722
10160TIP3    H151971   0.105   3.216   1.986  0.0290 -0.1653 -2.6853
10160TIP3    H251972   0.139   3.076   1.940  1.4841 -0.8115  0.1382
10161TIP3   OH251973   6.260   4.485   4.878 -0.3643 -0.3096  0.1143
10161TIP3    H151974   6.329   4.549   4.895 -0.9500  0.0079  1.4846
10161TIP3    H251975   6.211   4.481   4.960 -0.5845 -2.2365 -0.0626
10162TIP3   OH251976   4.965   4.722   2.801  0.3417 -0.3581 -0.6741
10162TIP3    H151977   4.871   4.715   2.819  0.3805 -0.8591 -0.6576
10162TIP3    H251978   5.007   4.702   2.884  0.4652 -0.3246 -0.7282
10163TIP3   OH251979   6.843   4.605   2.832 -0.3731  0.0513  0.1666
10163TIP3    H151980   6.852   4.689   2.786 -0.2465  1.3724  2.4051
10163TIP3    H251981   6.933   4.577   2.848 -0.4137 -0.2325 -0.0958
10164TIP3   OH251982   2.324   1.943   3.122 -0.1758  0.4089  0.2349
10164TIP3    H151983   2.249   1.931   3.064 -0.4089 -0.4360  0.6869
10164TIP3    H251984   2.360   1.854   3.133  2.3773  1.0410 -1.9077
10165TIP3   OH251985   4.639   4.835  12.116  0.2016  0.6055 -0.2149
10165TIP3    H151986   4.691   4.825  12.036  0.6482  0.4343  0.0919
10165TIP3    H251987   4.697   4.805  12.186 -0.5129 -0.1540  0.0688
10166TIP3   OH251988   0.014   1.452  11.122 -0.1637 -0.6383  0.6774
10166TIP3    H151989  -0.053   1.512  11.089  1.3238 -0.1961 -1.8333
10166TIP3    H251990  -0.007   1.368  11.081 -0.0291 -0.8694  1.0781
10167TIP3   OH251991   4.611   0.875  14.632 -0.4842  0.6291  0.3824
10167TIP3    H151992   4.572   0.848  14.716 -1.8301  1.2294 -0.0288
10167TIP3    H251993   4.583   0.965  14.620 -2.1766 -0.0907 -1.7279
10168TIP3   OH251994   6.010   2.594   1.296 -0.0776 -0.7360  0.0104
10168TIP3    H151995   5.925   2.638   1.303  0.6691  0.6807  0.5771
10168TIP3    H251996   6.050   2.632   1.218  0.6048 -0.3458  0.5379
10169TIP3   OH251997   4.766   5.962   2.944  0.0889 -0.0169 -0.1014
10169TIP3    H151998   4.831   6.021   2.983 -0.2260 -0.4573  1.1180
10169TIP3    H251999   4.695   6.020   2.917  0.4901  0.3402 -0.4128
10170TIP3   OH252000   0.761   1.574   3.669  0.3975  0.4064 -0.3841
10170TIP3    H152001   0.829   1.542   3.728 -1.0337 -1.1674  0.5015
10170TIP3    H252002   0.714   1.495   3.642 -0.4643  1.3465 -1.7790
10171TIP3   OH252003   4.776   5.945   1.724 -0.1060  0.2267 -0.4213
10171TIP3    H152004   4.763   5.850   1.729 -0.9606  0.3680  0.2110
10171TIP3    H252005   4.700   5.977   1.676 -0.9747  0.8158  1.2916
10172TIP3   OH252006   5.786   2.963  14.863 -0.3014 -0.2563 -0.0227
10172TIP3    H152007   5.863   2.981  14.810 -1.4885  2.3442 -1.0392
10172TIP3    H252008   5.816   2.972  14.954  0.9621 -1.1506 -0.3300
10173TIP3   OH252009   5.617   5.872   2.268 -0.3467  0.1362 -0.4987
10173TIP3    H152010   5.607   5.785   2.305  1.7265 -0.1644 -0.5067
10173TIP3    H252011   5.631   5.857   2.174 -4.5078  0.8266 -1.4268
10174TIP3   OH252012   2.163   0.629  12.621 -0.5402  0.1282  0.0930
10174TIP3    H152013   2.135   0.696  12.683  0.4977 -0.3190  1.0676
10174TIP3    H252014   2.252   0.653  12.597 -0.3246 -0.6425  0.0898
10175TIP3   OH252015   6.571   2.218  16.208  0.0957 -0.1691  0.6484
10175TIP3    H152016   6.536   2.196  16.122 -2.5220 -0.2485  1.6635
10175TIP3    H252017   6.655   2.170  16.213 -0.3613 -1.2585 -1.2987
10176TIP3   OH252018   4.165   0.099   5.397 -0.4902  0.5014  0.0574
10176TIP3    H152019   4.156   0.190   5.371 -0.3772  0.9802  1.6078
10176TIP3    H252020   4.085   0.080   5.446 -0.4807 -0.2141 -0.1948
10177TIP3   OH252021   4.626   6.573   5.579  0.4637 -0.2190 -0.1890
10177TIP3    H152022   4.636   6.604   5.489 -1.4106  0.2894 -0.2553
10177TIP3    H252023   4.546   6.521   5.578  1.0272 -1.1811  0.9661
10178TIP3   OH252024   4.552   0.333  16.231  0.1533  0.2173 -0.3410
10178TIP3    H152025   4.644   0.339  16.254  0.1964 -1.8611  0.2821
10178TIP3    H252026   4.508   0.395  16.289  1.0718  0.6762 -0.1224
10179TIP3   OH252027   2.335   0.652   4.276 -0.3663  0.1838 -0.1562
10179TIP3    H152028   2.398   0.655   4.204  0.2040 -0.1957  0.3181
10179TIP3    H252029   2.261   0.704   4.245  0.6677  1.6387 -0.2597
10180TIP3   OH252030   6.222   1.627  15.179  0.0361  0.0737 -0.4642
10180TIP3    H152031   6.198   1.719  15.168 -0.0292  0.3130  1.4312
10180TIP3    H252032   6.210   1.589  15.092 -2.6267  1.2305 -0.6826
10181TIP3   OH252033   4.540   6.569  11.468 -0.1520  0.6164  0.0853
10181TIP3    H152034   4.460   6.617  11.446 -0.7160 -0.3273  0.0348
10181TIP3    H252035   4.602   6.592  11.399 -0.9524 -0.0278 -0.8709
10182TIP3   OH252036   1.115   4.873  11.707  0.4497  0.1966 -0.3904
10182TIP3    H152037   1.022   4.894  11.710  0.6684  1.1164  1.0297
10182TIP3    H252038   1.154   4.947  11.660  0.5745  0.3188 -0.0984
10183TIP3   OH252039   1.091   1.676  10.925  0.3709  0.4779 -0.6377
10183TIP3    H152040   1.129   1.588  10.923  2.3825  1.2719  0.6750
10183TIP3    H252041   1.101   1.708  10.835 -0.4150 -0.6077 -1.1376
10184TIP3   OH252042   3.162   3.584   0.260 -0.5569  0.3712  0.4169
10184TIP3    H152043   3.112   3.560   0.182 -0.8891 -0.0627  0.7578
10184TIP3    H252044   3.204   3.667   0.237  0.5696 -0.4837 -0.7899
10185TIP3   OH252045   4.288   0.968   5.225 -0.4106 -0.0845  0.0732
10185TIP3    H152046   4.328   1.043   5.179  1.5584  0.5290  2.5045
10185TIP3    H252047   4.315   0.892   5.174  3.6198  0.3575  1.1548
10186TIP3   OH252048   3.367   2.507   4.205  0.2958 -0.2197  0.5993
10186TIP3    H152049   3.411   2.466   4.131 -1.6208  0.4617 -1.0232
10186TIP3    H252050   3.322   2.435   4.249 -1.8618 -0.2031 -1.3777
10187TIP3   OH252051   5.318   4.519   5.592 -0.4071 -0.0677 -0.5272
10187TIP3    H152052   5.350   4.435   5.557  0.2106 -0.0852  0.0617
10187TIP3    H252053   5.295   4.500   5.683 -0.9569  0.2343 -0.6014
10188TIP3   OH252054   3.782   1.637  13.649  0.3204 -0.0943 -0.5404
10188TIP3    H152055   3.699   1.657  13.695 -0.2689 -1.4932 -0.9551
10188TIP3    H252056   3.839   1.602  13.718 -0.2180 -1.2350 -0.6493
10189TIP3   OH252057   4.975   4.119   4.644  0.5479  0.0136 -0.3563
10189TIP3    H152058   4.936   4.033   4.629 -0.8270  0.5020  0.2461
10189TIP3    H252059   4.944   4.145   4.730  0.7052  1.2486 -0.6487
10190TIP3   OH252060   3.646   3.306  16.199  0.0962  0.0980  0.2140
10190TIP3    H152061   3.600   3.293  16.282 -0.9415  1.4252 -0.1078
10190TIP3    H252062   3.597   3.251  16.137 -0.4969  0.7855  0.0599
10191TIP3   OH252063   0.078   0.631  12.079 -0.4012  0.0416 -0.1301
10191TIP3    H152064  -0.012   0.655  12.100 -0.1757  1.6475 -0.8445
10191TIP3    H252065   0.094   0.669  11.992  1.3146  0.7895  0.4689
10192TIP3   OH252066   4.316   1.413  11.773  0.0097  0.3163 -0.4389
10192TIP3    H152067   4.378   1.443  11.840  0.1968  4.2148 -2.1154
10192TIP3    H252068   4.230   1.441  11.806 -0.7802 -2.8997  0.7000
10193TIP3   OH252069   0.493   0.815   6.317 -0.3232 -0.2244  0.1408
10193TIP3    H152070   0.521   0.816   6.409 -1.5007 -0.5462  0.5118
10193TIP3    H252071   0.572   0.792   6.269  0.2967 -0.1234  1.0738
10194TIP3   OH252072   1.659   6.702  14.763 -0.4644 -0.0216 -0.1819
10194TIP3    H152073   1.754   6.696  14.774 -0.6800 -3.1311  0.9730
10194TIP3    H252074   1.625   6.712  14.852 -1.2464  1.0201 -0.5832
10195TIP3   OH252075   2.702   0.890  16.752  0.1583  0.3023 -0.3055
10195TIP3    H152076   2.711   0.796  16.767 -0.9202  0.4670  1.6752
10195TIP3    H252077   2.612   0.901  16.723  0.1067  0.7871  0.0307
10196TIP3   OH252078   5.391   4.614   0.052 -0.4783  0.0109 -0.5542
10196TIP3    H152079   5.469   4.646   0.098  0.2279 -0.8555 -1.1208
10196TIP3    H252080   5.341   4.693   0.032  1.1881  0.7896 -1.8658
10197TIP3   OH252081   4.328   3.697  12.140 -0.5858 -0.1093 -0.4213
10197TIP3    H152082   4.352   3.688  12.048  2.3043 -0.6699  0.2967
10197TIP3    H252083   4.410   3.719  12.185 -1.7500 -0.5439  2.1215
10198TIP3   OH252084   6.142   1.137  13.371  0.1899  0.1358  0.5120
10198TIP3    H152085   6.178   1.073  13.433  1.6889  0.1792 -0.2634
10198TIP3    H252086   6.180   1.112  13.287 -1.3915  0.4020 -0.3175
10199TIP3   OH252087   5.827   3.357  15.799 -0.2662  0.3236  0.1100
10199TIP3    H152088   5.740   3.324  15.777 -0.8408  1.2468  0.9296
10199TIP3    H252089   5.836   3.435  15.744  0.0774  0.1843 -0.0304
10200TIP3   OH252090   2.514   5.744  12.338  0.9607 -0.3368  0.4076
10200TIP3    H152091   2.485   5.681  12.404  0.0902 -2.1094 -1.5533
10200TIP3    H252092   2.448   5.813  12.340 -0.3505 -1.5349 -0.1401
10201TIP3   OH252093   6.690   2.236  10.585  0.0826 -0.0739  0.6982
10201TIP3    H152094   6.743   2.211  10.509 -0.1468  0.6257  0.3014
10201TIP3    H252095   6.732   2.314  10.620  0.5804 -0.7792  1.7109
10202TIP3   OH252096   0.440   5.283   2.135  0.1992 -0.2515  0.2767
10202TIP3    H152097   0.370   5.274   2.071 -2.5967  0.9485  2.9496
10202TIP3    H252098   0.465   5.192   2.156 -1.6310 -0.7881  0.2952
10203TIP3   OH252099   2.436   0.047   5.227  0.4244  0.0901 -0.0521
10203TIP3    H152100   2.439  -0.048   5.218  0.5781  0.1344 -0.4849
10203TIP3    H252101   2.371   0.075   5.162  0.2641  0.2709  0.1818
10204TIP3   OH252102   1.476   1.587   6.422 -0.0866 -0.3426 -0.5668
10204TIP3    H152103   1.393   1.636   6.427 -0.9350 -1.7072 -0.7113
10204TIP3    H252104   1.499   1.569   6.512  0.2853  0.4021 -0.5082
10205TIP3   OH252105   4.511   1.640  15.101 -0.1650  0.1487  0.0325
10205TIP3    H152106   4.553   1.683  15.026 -1.9187  1.5092 -0.2402
10205TIP3    H252107   4.581   1.629  15.165  0.7424  1.7582 -0.6218
10206TIP3   OH252108   6.726   4.402   2.215  0.3582 -0.4160 -0.1404
10206TIP3    H152109   6.694   4.348   2.142 -0.4163  0.1299 -0.2228
10206TIP3    H252110   6.662   4.473   2.222 -0.5558 -1.3426  2.1359
10207TIP3   OH252111   4.293   2.123  13.403 -0.3416  0.0118  0.0000
10207TIP3    H152112   4.255   2.037  13.424  0.8914 -1.1475 -2.1109
10207TIP3    H252113   4.388   2.108  13.406 -0.1119  1.0334 -1.2827
10208TIP3   OH252114   3.752   3.856   2.745  0.5377  0.5526 -0.4629
10208TIP3    H152115   3.672   3.803   2.743 -1.2778  3.0584  0.5571
10208TIP3    H252116   3.764   3.877   2.837  0.6311  2.6357 -0.9152
10209TIP3   OH252117   6.360   4.430  17.049 -0.0139 -0.5479  0.1194
10209TIP3    H152118   6.409   4.356  17.012 -0.9787 -1.4887  0.6609
10209TIP3    H252119   6.354   4.493  16.977 -0.9511 -1.8923 -1.0335
10210TIP3   OH252120   1.525   1.617   5.400  0.0914 -0.6236  0.5827
10210TIP3    H152121   1.557   1.677   5.467  1.0954 -1.3083  0.7474
10210TIP3    H252122   1.445   1.579   5.438 -0.2242  0.1656  0.7180
10211TIP3   OH252123   2.532   6.026  11.482  0.4770  0.7311 -0.2132
10211TIP3    H152124   2.494   6.069  11.405  1.3394  1.7655 -0.0778
10211TIP3    H252125   2.616   6.069  11.495  0.6280  0.1336  0.9392
10212TIP3   OH252126   2.343   2.424   5.073  0.7371 -0.5828  0.5048
10212TIP3    H152127   2.316   2.333   5.079  0.3704 -0.3994  2.0427
10212TIP3    H252128   2.438   2.422   5.088  1.5442 -1.0792 -3.5307
10213TIP3   OH252129   5.393   0.882  14.911  0.0122 -0.4759  0.1102
10213TIP3    H152130   5.390   0.828  14.832  0.9108 -0.1160 -0.1861
10213TIP3    H252131   5.393   0.819  14.983 -0.1083 -0.8325 -0.1965
10214TIP3   OH252132   1.137   0.051  16.908 -0.8556  0.5824  0.3799
10214TIP3    H152133   1.073   0.055  16.837  0.0484  2.4818 -0.4111
10214TIP3    H252134   1.090   0.010  16.980 -1.8389 -1.2884 -1.2362
10215TIP3   OH252135   6.123   4.405   2.325 -0.0680 -0.3055  0.5233
10215TIP3    H152136   6.187   4.334   2.320 -0.5905 -1.0527  3.0705
10215TIP3    H252137   6.047   4.372   2.277  0.9490  0.1200 -1.5125
10216TIP3   OH252138   1.238   3.520  14.122  0.3180  0.3854 -0.5358
10216TIP3    H152139   1.152   3.543  14.087  0.2992  0.2959 -0.5505
10216TIP3    H252140   1.247   3.427  14.102 -0.1510  0.0676  0.6245
10217TIP3   OH252141   5.815   3.989  11.015 -0.6309 -0.4839 -0.0466
10217TIP3    H152142   5.848   3.904  10.983  2.4961  1.1920 -1.8209
10217TIP3    H252143   5.795   4.038  10.935  0.8349  1.5272  0.7421
10218TIP3   OH252144   5.058   4.712   4.824  0.2038  0.2844 -0.1243
10218TIP3    H152145   5.006   4.793   4.817  1.0921  0.8208 -0.7686
10218TIP3    H252146   4.997   4.648   4.861 -1.2020  0.6578 -1.6294
10219TIP3   OH252147   2.173   3.695   2.231 -0.2058  0.3816  0.0181
10219TIP3    H152148   2.170   3.681   2.136  0.0573 -1.5941  0.2669
10219TIP3    H252149   2.211   3.782   2.241 -1.6916  1.3005 -1.7081
10220TIP3   OH252150   4.085   5.737  12.468  0.3550 -0.2233 -0.5359
10220TIP3    H152151   4.128   5.789  12.536 -1.3077  0.0190  0.3946
10220TIP3    H252152   4.030   5.799  12.421  1.6831 -0.3427 -2.3338
10221TIP3   OH252153   6.206   0.755   2.411 -0.4189 -0.2134  0.2420
10221TIP3    H152154   6.221   0.848   2.394  1.2428 -0.2450  1.2948
10221TIP3    H252155   6.258   0.710   2.344 -2.1326 -0.4433 -1.0025
10222TIP3   OH252156   0.011   1.123  11.319  0.1117  0.2444  0.3907
10222TIP3    H152157  -0.028   1.173  11.391  0.3765  0.2230  0.5513
10222TIP3    H252158  -0.029   1.160  11.240 -2.6329 -1.8339  0.6659
10223TIP3   OH252159   0.009   5.664   3.401  0.1524 -0.2172  0.2014
10223TIP3    H152160   0.067   5.718   3.454  0.3614 -0.0044 -0.2394
10223TIP3    H252161  -0.076   5.671   3.445  0.5239 -0.8056  1.0471
10224TIP3   OH252162   0.470   4.156  15.945 -0.1844  0.0339 -0.4999
10224TIP3    H152163   0.493   4.145  15.853 -0.3446  0.0500 -0.5417
10224TIP3    H252164   0.433   4.071  15.971  1.7491 -0.6701  0.1075
10225TIP3   OH252165   4.583   4.070   0.916  0.5516  0.3482  0.4232
10225TIP3    H152166   4.619   4.105   0.997 -2.7416 -0.1498  2.2783
10225TIP3    H252167   4.640   3.995   0.895  0.4334 -0.7202  3.4250
10226TIP3   OH252168   5.084   2.864   0.174  0.6090  0.4441 -0.0802
10226TIP3    H152169   5.059   2.807   0.101  0.2319 -0.0323  0.4065
10226TIP3    H252170   5.006   2.917   0.192  0.7293  0.6229 -0.0844
10227TIP3   OH252171   1.266   3.475   2.310 -0.8503  0.2995  0.6735
10227TIP3    H152172   1.302   3.387   2.305  1.3248  1.1705 -0.9329
10227TIP3    H252173   1.318   3.518   2.378  0.1323  1.1215 -0.5491
10228TIP3   OH252174   6.663   1.266   4.006 -0.5005  0.5217 -0.1242
10228TIP3    H152175   6.721   1.303   3.938  0.1369  1.4965  0.9089
10228TIP3    H252176   6.666   1.331   4.076 -0.8040 -0.6787  1.0188
10229TIP3   OH252177   4.460   1.113   2.038 -0.2377  0.3826  0.1190
10229TIP3    H152178   4.385   1.171   2.044 -0.3825  0.0700  1.7383
10229TIP3    H252179   4.430   1.041   1.982 -1.0123  0.4548  0.4324
10230TIP3   OH252180   2.255   6.375  10.954 -0.5547 -0.2355 -0.1177
10230TIP3    H152181   2.215   6.403  11.036  0.2838  0.1500  0.1730
10230TIP3    H252182   2.296   6.292  10.975 -0.2181 -0.0675 -0.1046
10231TIP3   OH252183   2.590   2.373   5.204 -0.3895  0.2000  0.0589
10231TIP3    H152184   2.669   2.361   5.257  0.3002 -0.0686 -0.9959
10231TIP3    H252185   2.622   2.381   5.114 -1.4723  1.4353 -0.2464
10232TIP3   OH252186   4.256   2.592  11.182  0.0280  0.2706  0.0373
10232TIP3    H152187   4.200   2.515  11.173  0.4049  0.0786 -0.8194
10232TIP3    H252188   4.302   2.598  11.098  0.1126  1.3468  0.1429
10233TIP3   OH252189   4.042   2.480  12.879  0.0946 -0.7885  0.4276
10233TIP3    H152190   3.974   2.536  12.915  1.2616  1.8722 -1.1967
10233TIP3    H252191   4.124   2.512  12.917  1.1225  0.7532 -2.6912
10234TIP3   OH252192   4.228   0.339   1.567 -0.5971 -0.1941 -0.4281
10234TIP3    H152193   4.266   0.343   1.655  0.1130 -0.7918 -0.6988
10234TIP3    H252194   4.182   0.422   1.557 -0.1538  0.1439  0.2758
10235TIP3   OH252195   6.851   0.947   0.538 -0.9009 -0.2388 -0.4722
10235TIP3    H152196   6.819   1.002   0.610  0.1549 -0.7231  0.4023
10235TIP3    H252197   6.892   0.872   0.582  1.5105  0.4025 -1.4835
10236TIP3   OH252198   5.627   6.501   5.231 -0.2464  0.2743  0.1357
10236TIP3    H152199   5.605   6.545   5.149 -3.2912 -1.1442  0.0582
10236TIP3    H252200   5.545   6.460   5.259  1.5108 -2.2198  2.0918
10237TIP3   OH252201   0.780   5.899  14.609  0.1927 -0.3953 -0.7141
10237TIP3    H152202   0.770   5.816  14.563  0.3629  0.0537 -1.5768
10237TIP3    H252203   0.842   5.879  14.679 -1.2498 -1.4641  0.3306
10238TIP3   OH252204   3.975   1.319   2.128  0.4011 -0.1821  0.0365
10238TIP3    H152205   3.907   1.386   2.115  0.8478  0.6789  1.8311
10238TIP3    H252206   3.938   1.239   2.092 -1.3015  0.4233  0.3761
10239TIP3   OH252207   2.612   5.712  14.707  0.0314  0.8491  0.1476
10239TIP3    H152208   2.669   5.751  14.773  0.7248  0.6059 -0.2977
10239TIP3    H252209   2.542   5.670  14.758  1.4201 -0.7349  0.8533
10240TIP3   OH252210   2.858   2.691  12.756  0.2310  0.3333 -0.2890
10240TIP3    H152211   2.820   2.777  12.774 -1.1728 -0.6024  1.5959
10240TIP3    H252212   2.783   2.634  12.744  1.0937 -0.9603  0.2720
10241TIP3   OH252213   2.593   5.750   4.638 -0.6141  0.0497  0.0322
10241TIP3    H152214   2.498   5.741   4.634 -0.7365  1.2559 -0.0790
10241TIP3    H252215   2.624   5.713   4.555 -1.2434  2.3942 -1.3177
10242TIP3   OH252216   1.325   3.456   3.993  0.0047  0.0917 -0.1519
10242TIP3    H152217   1.312   3.450   3.898  0.5112  0.1815 -0.2293
10242TIP3    H252218   1.357   3.545   4.007 -1.4219  0.5710  0.2698
10243TIP3   OH252219   3.617   1.639   1.096 -0.0873  0.1549  0.5190
10243TIP3    H152220   3.633   1.626   1.189  0.4402  0.0296  0.4177
10243TIP3    H252221   3.557   1.568   1.071 -0.7681  0.5891  0.8986
10244TIP3   OH252222   6.789   4.231   6.022  0.3147 -0.3453  0.1548
10244TIP3    H152223   6.874   4.200   5.992 -0.2717 -0.5873 -1.3298
10244TIP3    H252224   6.758   4.162   6.081  0.2472 -1.2508 -0.9220
10245TIP3   OH252225   0.781   5.436  14.467 -0.1727  0.0354 -0.1337
10245TIP3    H152226   0.738   5.354  14.443 -1.3444 -0.0140  1.8893
10245TIP3    H252227   0.710   5.501  14.466  0.5604  0.8466 -0.8016
10246TIP3   OH252228   3.435   1.636  15.237 -0.0518 -0.2118  0.4527
10246TIP3    H152229   3.445   1.633  15.332  0.0846 -0.1755  0.4395
10246TIP3    H252230   3.440   1.544  15.210 -0.8606 -0.2929  0.5584
10247TIP3   OH252231   4.595   5.468   0.675  0.6798 -0.1136  0.0939
10247TIP3    H152232   4.608   5.535   0.607 -0.4678 -0.6244 -0.6570
10247TIP3    H252233   4.538   5.510   0.739  0.6842 -0.0860  0.0797
10248TIP3   OH252234   1.497   3.944   2.668  0.2553 -0.3736  0.1979
10248TIP3    H152235   1.540   3.903   2.593  0.5746 -0.1347  0.2503
10248TIP3    H252236   1.510   4.038   2.655  2.4936 -0.3918  1.8471
10249TIP3   OH252237   6.652   3.918   1.641  0.2819 -0.3309  0.3354
10249TIP3    H152238   6.619   3.892   1.555 -0.1126 -2.2447  1.0240
10249TIP3    H252239   6.745   3.931   1.628  0.0607  0.4123 -0.5944
10250TIP3   OH252240   5.683   1.681  11.974 -0.1379  0.4117 -0.0315
10250TIP3    H152241   5.770   1.649  11.950 -0.1053 -1.1121  1.8767
10250TIP3    H252242   5.698   1.745  12.043 -0.5368 -0.9913  1.4217
10251TIP3   OH252243   3.826   6.443  14.436 -0.2653  0.2622  0.2022
10251TIP3    H152244   3.814   6.537  14.450 -1.7686  0.2677 -0.9521
10251TIP3    H252245   3.742   6.404  14.460  0.2555 -0.7786  0.4038
10252TIP3   OH252246   0.978   0.688   2.701  0.3224  0.1214 -0.0977
10252TIP3    H152247   1.055   0.632   2.690  0.8171  0.4854  1.2477
10252TIP3    H252248   0.971   0.698   2.796  0.0391  2.0497 -0.2984
10253TIP3   OH252249   2.103   4.666  14.987 -0.3832  0.0030 -0.2556
10253TIP3    H152250   2.149   4.718  15.052 -0.4836  0.5695 -0.6295
10253TIP3    H252251   2.172   4.624  14.936 -0.3061 -0.5583  0.3002
10254TIP3   OH252252   0.079   3.991  13.836 -0.5856  1.2474 -0.1439
10254TIP3    H152253   0.105   4.051  13.906  0.1858  0.4660  0.2600
10254TIP3    H252254   0.162   3.961  13.799 -0.9616  0.5761 -0.4611
10255TIP3   OH252255   0.347   4.407  15.909  0.3569 -0.5857  0.3760
10255TIP3    H152256   0.281   4.408  15.978  0.3818 -0.1616  0.3979
10255TIP3    H252257   0.382   4.318  15.910  0.0307 -0.7118  0.5976
10256TIP3   OH252258   6.062   2.493  13.721 -0.0717  0.5385 -0.1783
10256TIP3    H152259   6.050   2.575  13.673  1.0934  0.9048  0.1186
10256TIP3    H252260   6.156   2.488  13.736 -0.0066 -1.3020 -0.9552
10257TIP3   OH252261   2.709   2.452   1.666 -0.2064 -0.2461 -0.0764
10257TIP3    H152262   2.801   2.468   1.689 -1.2244  1.5516  3.3746
10257TIP3    H252263   2.693   2.514   1.594  1.0085  0.2053  0.0049
10258TIP3   OH252264   5.759   0.427   6.247 -0.1138  0.3001  0.0110
10258TIP3    H152265   5.831   0.376   6.283  2.5597  3.2583 -0.6755
10258TIP3    H252266   5.779   0.433   6.153 -1.2083  1.2308 -0.1805
10259TIP3   OH252267   5.015   6.252   1.585  0.1808 -0.4244  0.6508
10259TIP3    H152268   4.929   6.272   1.622 -1.1430  1.7706 -3.0993
10259TIP3    H252269   4.999   6.174   1.532 -0.0311  0.9332 -1.3752
10260TIP3   OH252270   0.533   2.402  12.990 -0.7274 -0.1804  0.2612
10260TIP3    H152271   0.489   2.318  12.980  0.1369 -0.4430 -1.9895
10260TIP3    H252272   0.474   2.465  12.948 -1.1905  0.3119  1.5951
10261TIP3   OH252273   6.261   4.900  12.348  0.1870  0.4440  0.5171
10261TIP3    H152274   6.283   4.989  12.321  2.1570 -0.5202 -1.3699
10261TIP3    H252275   6.222   4.860  12.270  0.6482 -0.7573  0.8875
10262TIP3   OH252276   0.593   4.973  14.240  0.0942 -0.2565 -0.2806
10262TIP3    H152277   0.667   4.922  14.207 -0.8958 -1.8390 -0.1758
10262TIP3    H252278   0.516   4.924  14.212 -0.8580 -0.3639  2.2773
10263TIP3   OH252279   2.696   0.712  13.068  0.0143  0.0103 -0.2412
10263TIP3    H152280   2.709   0.646  13.000  2.1035 -3.1281  2.8268
10263TIP3    H252281   2.771   0.771  13.059 -0.3052  0.2693 -1.2721
10264TIP3   OH252282   2.500   2.338   3.245 -0.1937 -0.1832  0.3162
10264TIP3    H152283   2.460   2.389   3.315 -1.7936  0.1149 -0.7685
10264TIP3    H252284   2.507   2.400   3.172  2.0530 -0.3012  0.3676
10265TIP3   OH252285   0.602   5.813  16.769 -0.0769  0.2374  0.6077
10265TIP3    H152286   0.673   5.876  16.754 -0.8826  1.2102  0.7381
10265TIP3    H252287   0.588   5.772  16.684 -0.3756  1.1613  0.1907
10266TIP3   OH252288   5.562   3.010   0.096  0.1143  0.3303  0.2949
10266TIP3    H152289   5.606   2.928   0.075 -0.4079 -0.3133  1.6506
10266TIP3    H252290   5.632   3.068   0.128  0.3037  0.0369  0.4115
10267TIP3   OH252291   3.527   4.090   2.655  0.1578  0.2478  0.3906
10267TIP3    H152292   3.481   4.173   2.641 -0.0768 -0.2502 -2.4637
10267TIP3    H252293   3.583   4.081   2.578 -2.2632 -3.7435 -1.2144
10268TIP3   OH252294   4.627   2.503  13.208 -0.5809  0.1873 -0.1579
10268TIP3    H152295   4.550   2.546  13.247  0.2526  2.2506 -0.6468
10268TIP3    H252296   4.697   2.516  13.271  0.3859  2.1674 -1.5325
10269TIP3   OH252297   2.981   3.605   1.786 -0.6372  0.1764  0.1469
10269TIP3    H152298   2.928   3.680   1.761 -1.4523 -0.6576 -0.7145
10269TIP3    H252299   2.919   3.534   1.798 -0.0801  0.0432  2.8000
10270TIP3   OH252300   2.635   2.594   2.796  0.8648 -0.4138  0.0531
10270TIP3    H152301   2.678   2.511   2.776  1.8337  0.2119 -0.5696
10270TIP3    H252302   2.701   2.660   2.775 -0.3739  0.5770 -0.8617
10271TIP3   OH252303   1.259   0.774   3.066  0.3938 -0.2016 -0.1366
10271TIP3    H152304   1.340   0.723   3.064  0.8568  0.4218  1.5488
10271TIP3    H252305   1.249   0.806   2.976  0.9131 -1.9393 -0.8573
10272TIP3   OH252306   2.612   2.781   2.063  0.9526 -0.7263 -0.0954
10272TIP3    H152307   2.620   2.689   2.040  1.1013 -0.7822  0.1750
10272TIP3    H252308   2.670   2.826   2.001 -1.6380 -0.4328 -2.4956
10273TIP3   OH252309   4.003   5.257  12.974  0.0590  0.1576  0.5300
10273TIP3    H152310   4.072   5.192  12.963  0.6122  1.0652 -1.9618
10273TIP3    H252311   4.046   5.341  12.958 -1.4865  0.7850 -0.6166
10274TIP3   OH252312   0.725   6.686   1.677  0.2444 -0.5204 -0.2844
10274TIP3    H152313   0.658   6.698   1.744 -0.5118  0.9271 -1.2418
10274TIP3    H252314   0.785   6.621   1.714  0.0237  0.4298  1.8967
10275TIP3   OH252315   2.303   1.738  12.838  0.5455 -0.1719 -0.6064
10275TIP3    H152316   2.332   1.742  12.747  0.2137 -0.2817 -0.7169
10275TIP3    H252317   2.352   1.808  12.882 -0.6524  1.1309 -1.2503
10276TIP3   OH252318   2.670   2.282  12.460  0.9100 -0.1331  0.2592
10276TIP3    H152319   2.665   2.260  12.367  0.3484  1.1857 -0.0400
10276TIP3    H252320   2.762   2.308  12.474  0.9802 -0.2772  0.0670
10277TIP3   OH252321   1.879   4.925  14.182 -0.4260 -0.1270  0.0582
10277TIP3    H152322   1.903   5.011  14.150 -1.7076  0.2499  0.0891
10277TIP3    H252323   1.933   4.913  14.261  1.2342 -0.2236 -1.0370
10278TIP3   OH252324   6.257   2.562  11.686  0.1817 -0.2550  0.3152
10278TIP3    H152325   6.333   2.620  11.694  0.8037 -0.8129 -1.2593
10278TIP3    H252326   6.215   2.567  11.772  1.2132  1.1352  0.7864
10279TIP3   OH252327   1.681   4.607   0.316  0.1789  0.1244 -0.0210
10279TIP3    H152328   1.663   4.575   0.405  0.2084  0.9944  0.3070
10279TIP3    H252329   1.775   4.594   0.305 -0.0102 -1.0769 -0.3818
10280TIP3   OH252330   1.636   2.298  15.915 -0.0861  0.2950  0.5281
10280TIP3    H152331   1.717   2.247  15.912  0.4966  1.2069 -0.0447
10280TIP3    H252332   1.665   2.387  15.937 -1.1987  0.1638  2.8077
10281TIP3   OH252333   5.141   3.483   0.244  0.0574  0.3917  0.0126
10281TIP3    H152334   5.157   3.508   0.153  0.3419  0.8706  0.1892
10281TIP3    H252335   5.227   3.458   0.278  0.0569  0.7781  0.3133
10282TIP3   OH252336   4.959   5.993   0.784 -0.4387  0.5760 -0.3781
10282TIP3    H152337   5.004   6.011   0.866 -0.0366  0.8745 -0.6576
10282TIP3    H252338   4.909   6.073   0.766  0.1961  0.8658 -0.8829
10283TIP3   OH252339   5.143   0.227  10.619 -0.1091 -0.5674 -0.3375
10283TIP3    H152340   5.114   0.282  10.546  0.4426  1.3431  0.8128
10283TIP3    H252341   5.071   0.165  10.632 -1.6927  1.1618 -0.4267
10284TIP3   OH252342   0.745   6.094  16.930  0.0954  0.4262  0.0137
10284TIP3    H152343   0.699   6.172  16.961  0.0936  0.9190 -1.1657
10284TIP3    H252344   0.715   6.083  16.840  0.1939 -0.8767  0.1281
10285TIP3   OH252345   0.627   3.474   1.597  0.4803  0.3866  0.1564
10285TIP3    H152346   0.708   3.443   1.638 -0.2445 -0.3183  1.0841
10285TIP3    H252347   0.647   3.564   1.571  0.7170  1.1592  2.8052
10286TIP3   OH252348   0.544   3.179  16.542  0.2658 -0.1075 -0.5817
10286TIP3    H152349   0.497   3.110  16.588  1.1877  0.3898  1.2320
10286TIP3    H252350   0.628   3.185  16.588 -0.0058  2.5942 -0.2647
10287TIP3   OH252351   5.418   1.355   5.547 -0.1640  0.2993  0.2132
10287TIP3    H152352   5.324   1.345   5.536 -0.3418  2.3221 -0.6380
10287TIP3    H252353   5.456   1.313   5.471 -0.3465 -0.7482  0.6889
10288TIP3   OH252354   0.089   5.779  16.622 -0.5665  0.9572  0.5586
10288TIP3    H152355   0.016   5.838  16.641 -0.1713  2.3984 -1.9470
10288TIP3    H252356   0.096   5.779  16.527 -0.5641 -3.2871  0.3608
10289TIP3   OH252357   1.857   4.766  13.241 -0.1537  0.4021  0.6018
10289TIP3    H152358   1.881   4.776  13.334  0.9905 -1.0924  0.5044
10289TIP3    H252359   1.928   4.714  13.204 -1.8349 -1.1632 -0.5498
10290TIP3   OH252360   3.259   5.555  14.165  0.3736  0.0132 -0.1033
10290TIP3    H152361   3.181   5.546  14.111  0.3950 -2.2070  0.1359
10290TIP3    H252362   3.259   5.647  14.193 -1.0604  0.5377 -1.6856
10291TIP3   OH252363   4.650   2.585   5.487  0.4166  0.0908 -0.5249
10291TIP3    H152364   4.714   2.628   5.430 -0.9877 -0.1212 -2.3165
10291TIP3    H252365   4.692   2.503   5.513  2.5085  1.7280  1.6985
10292TIP3   OH252366   1.794   6.546   3.022  0.1480 -0.5330 -0.2412
10292TIP3    H152367   1.709   6.581   3.048  1.3511  2.4027  0.1538
10292TIP3    H252368   1.817   6.483   3.091 -0.8987  0.0437  0.6621
10293TIP3   OH252369   0.043   5.178  11.661 -0.8492  0.1405  0.0671
10293TIP3    H152370   0.137   5.177  11.643 -1.0763  1.4170 -1.3214
10293TIP3    H252371   0.006   5.234  11.594 -2.6019 -0.1845  0.7117
10294TIP3   OH252372   0.871   5.225  13.043  0.2080 -0.2347  1.1035
10294TIP3    H152373   0.793   5.260  13.087 -1.4926 -1.1553 -1.0165
10294TIP3    H252374   0.942   5.282  13.073 -2.0141  3.7417 -0.4527
10295TIP3   OH252375   3.551   2.254   4.717  0.2423  0.3744 -0.4270
10295TIP3    H152376   3.525   2.343   4.693  1.1386  1.0161  0.8420
10295TIP3    H252377   3.619   2.266   4.783  0.2436 -1.2660 -0.0841
10296TIP3   OH252378   1.414   5.896  16.167  0.3573  0.0400 -0.1900
10296TIP3    H152379   1.486   5.952  16.138 -0.8596  1.9168  0.2018
10296TIP3    H252380   1.448   5.851  16.244  1.4085  0.1519 -0.5728
10297TIP3   OH252381   3.386   1.712  16.397 -0.6583  0.5682  0.5060
10297TIP3    H152382   3.338   1.751  16.324  1.2101  0.1613 -1.0135
10297TIP3    H252383   3.392   1.619  16.374  1.4529  0.7337  0.2629
10298TIP3   OH252384   0.727   3.724   6.298 -0.5789  0.1985 -0.2537
10298TIP3    H152385   0.790   3.727   6.226  2.1569 -2.5086  1.7722
10298TIP3    H252386   0.689   3.636   6.293 -0.9117  0.2426  1.1587
10299TIP3   OH252387   0.460   6.623   0.318 -0.0369  0.3924 -0.0323
10299TIP3    H152388   0.421   6.582   0.241  1.2759  0.2886 -0.6830
10299TIP3    H252389   0.387   6.659   0.367 -1.0285 -0.7767 -0.6087
10300TIP3   OH252390   6.287   4.369  16.678  0.1299  0.2895 -0.2416
10300TIP3    H152391   6.206   4.385  16.726  0.0415 -0.3710 -0.1664
10300TIP3    H252392   6.293   4.274  16.671 -0.5739  0.3780 -2.8116
10301TIP3   OH252393   2.594   3.802   4.147  0.2094 -0.0937  0.0508
10301TIP3    H152394   2.505   3.793   4.115  0.7493 -1.0299 -1.2895
10301TIP3    H252395   2.629   3.879   4.102  0.6869 -0.8927 -0.9866
10302TIP3   OH252396   4.839   0.370  15.019 -0.3113  0.2197 -0.0210
10302TIP3    H152397   4.781   0.446  15.013  1.3863  1.5168 -0.9495
10302TIP3    H252398   4.803   0.307  14.957 -0.8544  0.9076 -0.4132
10303TIP3   OH252399   4.224   2.346  15.704 -0.3911  0.1277  0.2037
10303TIP3    H152400   4.228   2.250  15.703  0.0084  0.0879  1.7139
10303TIP3    H252401   4.132   2.366  15.717 -0.3601 -0.0938  0.8046
10304TIP3   OH252402   6.256   3.562   4.153 -0.3698  0.6750  0.1398
10304TIP3    H152403   6.203   3.482   4.157 -1.1388  1.0155 -1.7581
10304TIP3    H252404   6.191   3.632   4.143  0.3782  1.2068 -1.2533
10305TIP3   OH252405   2.598   6.324   6.013 -0.2158 -0.1500 -0.3811
10305TIP3    H152406   2.595   6.254   6.078 -0.8554  0.0275 -0.2100
10305TIP3    H252407   2.657   6.389   6.050  0.2889 -0.5451 -0.4866
10306TIP3   OH252408   0.840   5.814   6.561  0.1154 -0.4101 -0.0448
10306TIP3    H152409   0.882   5.806   6.646 -1.4622 -1.0689  0.7213
10306TIP3    H252410   0.783   5.890   6.569  0.3243 -0.1817 -0.6773
10307TIP3   OH252411   6.490   4.350   5.788  0.1161 -0.3267 -0.2072
10307TIP3    H152412   6.583   4.366   5.768  0.3406 -1.4194 -0.1091
10307TIP3    H252413   6.473   4.401   5.867  0.9836 -1.0602  0.4839
10308TIP3   OH252414   1.824   2.151   5.256 -0.2553  0.1726  0.1561
10308TIP3    H152415   1.834   2.153   5.161 -2.0775 -1.1617 -0.1142
10308TIP3    H252416   1.899   2.201   5.289  0.6767  0.2600 -1.9397
10309TIP3   OH252417   2.935   6.291   5.372 -0.7564 -0.3040  0.1575
10309TIP3    H152418   3.029   6.303   5.361 -0.6820  1.7758  2.1796
10309TIP3    H252419   2.927   6.219   5.434 -0.5926 -1.3685 -1.0222
10310TIP3   OH252420   3.993   1.036  14.297 -0.2360  0.2494  0.4213
10310TIP3    H152421   3.974   1.128  14.279 -0.3999  0.0292 -0.6588
10310TIP3    H252422   3.921   0.989  14.254  0.2709 -0.4074  0.2789
10311TIP3   OH252423   0.701   0.906   0.860  0.2887 -0.1262 -0.2615
10311TIP3    H152424   0.786   0.869   0.886 -0.3278 -0.3294  1.6435
10311TIP3    H252425   0.678   0.966   0.931 -0.2073  1.5686 -1.7738
10312TIP3   OH252426   6.207   0.577  14.617 -0.1604  0.1929 -0.4938
10312TIP3    H152427   6.128   0.536  14.584 -0.5843  0.7831 -0.2173
10312TIP3    H252428   6.196   0.670  14.600  0.4360  0.2928 -0.3791
10313TIP3   OH252429   2.919   5.270  15.800  0.3489  0.2247 -0.2521
10313TIP3    H152430   2.915   5.281  15.705  0.3560 -0.4960 -0.3406
10313TIP3    H252431   2.886   5.353  15.835 -1.4403 -0.1679 -0.9033
10314TIP3   OH252432   6.133   2.012  15.918  0.0087  0.2607  0.2866
10314TIP3    H152433   6.159   2.082  15.857  0.0671  1.6719  1.8563
10314TIP3    H252434   6.200   1.945  15.907 -0.2208  0.2714 -1.4970
10315TIP3   OH252435   1.899   5.207   6.252 -0.4601  0.3805 -0.6458
10315TIP3    H152436   1.956   5.226   6.178 -0.0697  1.6531 -0.0577
10315TIP3    H252437   1.880   5.293   6.290 -1.0101 -0.2036  0.4572
10316TIP3   OH252438   2.776   6.786   3.152  0.1204 -0.3455  0.3908
10316TIP3    H152439   2.681   6.790   3.145  0.1947  0.9361 -0.1106
10316TIP3    H252440   2.798   6.695   3.131 -0.9902 -0.6810  0.6078
10317TIP3   OH252441   5.752   1.916  11.818 -0.4903 -0.8978 -0.2882
10317TIP3    H152442   5.780   1.859  11.746  0.2628 -1.3321  0.3281
10317TIP3    H252443   5.703   1.859  11.877 -1.4370 -0.4583 -0.6269
10318TIP3   OH252444   3.769   4.397  17.053  0.1691 -0.3864  0.4980
10318TIP3    H152445   3.680   4.432  17.067  0.8440  1.3518  0.7422
10318TIP3    H252446   3.776   4.325  17.115 -0.5248  0.5092  1.6689
10319TIP3   OH252447   1.418   2.572   5.366 -0.3253  0.8562  0.0929
10319TIP3    H152448   1.383   2.517   5.296  0.1499 -1.1483  1.3336
10319TIP3    H252449   1.511   2.582   5.345 -0.2963  0.7072  0.1462
10320TIP3   OH252450   3.672   6.657   1.134 -0.0056 -0.2834 -0.0555
10320TIP3    H152451   3.591   6.704   1.156  0.9622  1.0104  0.8670
10320TIP3    H252452   3.698   6.692   1.049  0.1784  0.1027  0.1620
10321TIP3   OH252453   4.591   3.554   1.084  0.1991  0.3019 -0.1860
10321TIP3    H152454   4.687   3.549   1.083  0.2093  0.4553 -1.0746
10321TIP3    H252455   4.570   3.618   1.016 -0.5946 -1.3953 -1.6358
10322TIP3   OH252456   1.023   0.963  13.327 -0.8121  0.5401 -0.0796
10322TIP3    H152457   1.014   1.055  13.350  0.2771  0.4824  0.6693
10322TIP3    H252458   0.984   0.955  13.240 -0.6938  1.7517 -0.2492
10323TIP3   OH252459   3.168   4.678   3.359 -0.1287 -0.1820  0.3159
10323TIP3    H152460   3.231   4.612   3.329 -0.2739 -0.8553  1.4414
10323TIP3    H252461   3.195   4.759   3.316  0.7685 -0.7236 -0.1603
10324TIP3   OH252462   3.422   0.678  11.224 -0.4698 -0.6094  0.0566
10324TIP3    H152463   3.447   0.677  11.132  0.8682 -1.5845  0.3945
10324TIP3    H252464   3.335   0.717  11.225 -1.2301 -2.1087 -1.7997
10325TIP3   OH252465   0.208   0.602   1.853  0.6415 -0.0953  0.3226
10325TIP3    H152466   0.189   0.531   1.792 -0.2140 -0.6576  1.2206
10325TIP3    H252467   0.301   0.592   1.873  1.1193  0.5145 -1.3771
10326TIP3   OH252468   3.907   1.548   1.463  0.1148  0.0043 -0.1080
10326TIP3    H152469   3.857   1.627   1.484 -0.3235 -0.1952 -0.3930
10326TIP3    H252470   3.970   1.577   1.396  2.1709  0.8774  2.0353
10327TIP3   OH252471   1.280   1.370   1.092  0.2474 -1.2357 -0.2681
10327TIP3    H152472   1.342   1.435   1.059  1.5261 -2.1936  0.1845
10327TIP3    H252473   1.237   1.413   1.166  0.2568 -0.5215 -0.6625
10328TIP3   OH252474   4.695   3.873   0.438 -0.3751 -0.3830  0.6061
10328TIP3    H152475   4.619   3.857   0.495 -1.1726  1.9569  0.3307
10328TIP3    H252476   4.675   3.825   0.358 -1.9565  0.7208  0.2875
10329TIP3   OH252477   2.934   6.519  14.793 -0.1010  0.0237  0.7458
10329TIP3    H152478   2.907   6.583  14.727  0.4487 -0.4358  0.0631
10329TIP3    H252479   2.928   6.566  14.876 -2.0080  0.2552  0.5282
10330TIP3   OH252480   5.788   2.168  13.966 -0.1440 -0.4760 -0.2308
10330TIP3    H152481   5.791   2.139  13.874  0.0778 -2.7910  0.4378
10330TIP3    H252482   5.695   2.164  13.988 -0.3547  1.3337 -0.6844
10331TIP3   OH252483   1.797   0.528   1.185  0.2380  0.2595  0.5874
10331TIP3    H152484   1.885   0.494   1.171 -0.7640 -1.9084 -1.0750
10331TIP3    H252485   1.788   0.599   1.121  0.6671  0.2912  0.5586
10332TIP3   OH252486   3.022   6.820  14.167 -0.3336  0.2764 -0.4583
10332TIP3    H152487   3.040   6.726  14.178 -1.5501  0.1821  1.3011
10332TIP3    H252488   3.040   6.837  14.075 -2.8910 -2.3937 -1.6410
10333TIP3   OH252489   6.321   4.797   2.737 -0.0510  0.0822  0.0449
10333TIP3    H152490   6.306   4.764   2.825 -0.3459 -0.0355 -0.0477
10333TIP3    H252491   6.349   4.888   2.750  0.5279 -0.1215  0.2871
10334TIP3   OH252492   1.624   6.358   4.121 -0.3321 -0.0027  0.3568
10334TIP3    H152493   1.581   6.443   4.132  0.1407  0.1013  1.6763
10334TIP3    H252494   1.623   6.342   4.027 -0.6429  1.3585  0.1068
10335TIP3   OH252495   2.270   1.173  16.121  0.3744 -0.0051  0.2557
10335TIP3    H152496   2.192   1.123  16.143 -0.6535  0.7339 -1.4249
10335TIP3    H252497   2.334   1.108  16.091 -0.8708 -0.4172 -1.7205
10336TIP3   OH252498   0.993   0.052  14.369  0.2486  0.4933 -0.2172
10336TIP3    H152499   0.932   0.010  14.430 -0.1752  0.3834 -0.7089
10336TIP3    H252500   1.055  -0.017  14.346  1.1593  0.8620  1.0368
10337TIP3   OH252501   5.020   0.751   1.006  0.2675  0.2838 -0.7215
10337TIP3    H152502   5.053   0.752   1.096 -0.2729 -1.0291 -0.4886
10337TIP3    H252503   4.933   0.791   1.011 -0.6645 -1.7146 -0.2530
10338TIP3   OH252504   1.068   6.525   3.003 -0.2926 -0.0056  0.5430
10338TIP3    H152505   1.118   6.444   3.012 -1.2933 -0.8704 -1.2002
10338TIP3    H252506   1.077   6.550   2.911 -3.1535 -0.3228  0.0686
10339TIP3   OH252507   4.279   2.934  12.864  0.4208 -0.1944 -0.3973
10339TIP3    H152508   4.340   2.987  12.813  2.5602 -2.6404 -0.5867
10339TIP3    H252509   4.277   2.850  12.819 -1.6088 -0.8389  0.7539
10340TIP3   OH252510   5.408   3.385   0.226 -0.5091 -0.1683 -0.0254
10340TIP3    H152511   5.486   3.339   0.257 -0.5762 -1.3335 -1.4912
10340TIP3    H252512   5.441   3.467   0.189  0.0795 -0.8135 -0.9574
10341TIP3   OH252513   2.695   3.681   1.491  0.1571 -0.6952 -0.1970
10341TIP3    H152514   2.773   3.697   1.439  1.3691 -1.3736  1.3299
10341TIP3    H252515   2.676   3.588   1.478  0.4539 -0.8631  0.5208
10342TIP3   OH252516   0.183   5.367   2.758  0.0380 -0.0482 -0.2724
10342TIP3    H152517   0.122   5.377   2.685  1.7521 -2.3070 -2.1833
10342TIP3    H252518   0.236   5.446   2.757  1.5237 -0.9409 -3.0869
10343TIP3   OH252519   6.206   5.445   0.868 -0.0176 -0.1814 -0.3976
10343TIP3    H152520   6.235   5.362   0.830  0.8212 -0.0363 -0.1077
10343TIP3    H252521   6.209   5.507   0.795 -1.2791 -0.5307 -0.7700
10344TIP3   OH252522   2.044   1.053   6.357  0.9776 -0.2126  0.5315
10344TIP3    H152523   1.976   1.111   6.393 -0.2721  0.1014 -2.0570
10344TIP3    H252524   2.072   1.000   6.431 -1.5933  0.1708  1.9054
10345TIP3   OH252525   4.275   3.085  13.443  0.1501  0.2214  0.2643
10345TIP3    H152526   4.188   3.048  13.428 -0.4797  0.7227  2.3732
10345TIP3    H252527   4.308   3.104  13.355 -1.5308 -0.7181 -0.6274
10346TIP3   OH252528   5.670   5.199   5.328  0.3356  0.7144  0.4092
10346TIP3    H152529   5.587   5.245   5.321 -0.3273 -0.5192 -0.0608
10346TIP3    H252530   5.646   5.106   5.338  1.6311  0.4195  1.0815
10347TIP3   OH252531   1.240   4.843   2.246 -0.1263 -0.2015  0.3621
10347TIP3    H152532   1.211   4.765   2.292  0.8857 -1.0130 -0.3111
10347TIP3    H252533   1.225   4.823   2.154 -0.3966  0.6355  0.2238
10348TIP3   OH252534   1.926   1.297   2.394  0.0434  0.4267  0.2383
10348TIP3    H152535   1.984   1.357   2.440  0.0951  2.2865 -2.1027
10348TIP3    H252536   1.985   1.240   2.344 -0.0477 -0.9665  1.6373
10349TIP3   OH252537   4.079   3.900   2.493 -0.2177 -0.1200 -0.1685
10349TIP3    H152538   4.162   3.944   2.478 -0.4177 -0.2011 -1.6017
10349TIP3    H252539   4.103   3.817   2.534  0.3230  0.2728  0.3356
10350TIP3   OH252540   3.827   6.397  16.903 -0.1927  0.1343  0.5678
10350TIP3    H152541   3.777   6.476  16.886  1.9751  1.2725 -0.8699
10350TIP3    H252542   3.888   6.390  16.830  2.0433 -0.9334  2.4053
10351TIP3   OH252543   6.796   3.747  11.065 -0.6360 -0.1928 -0.1647
10351TIP3    H152544   6.889   3.763  11.078 -0.4787 -0.7860 -0.5065
10351TIP3    H252545   6.782   3.759  10.971 -1.6713  3.5811  0.3299
10352TIP3   OH252546   2.753   4.188  15.941  0.0432  0.7872 -0.4035
10352TIP3    H152547   2.689   4.218  16.006  0.8570 -1.5829  1.6759
10352TIP3    H252548   2.838   4.209  15.979  0.5362  0.2236 -1.1567
10353TIP3   OH252549   1.277   0.090   3.840 -0.7389 -0.3374 -0.6469
10353TIP3    H152550   1.263   0.174   3.795  2.2137  0.5061 -0.1921
10353TIP3    H252551   1.253   0.024   3.775  0.8486  0.8732 -2.5913
10354TIP3   OH252552   1.743   5.018  11.734  0.0325 -0.2123  0.3189
10354TIP3    H152553   1.757   4.965  11.655  1.9704  0.4716  0.1567
10354TIP3    H252554   1.709   5.101  11.701  0.7879  0.0530  0.1826
10355TIP3   OH252555   0.613   6.331   1.469  0.3239 -0.1589  0.3388
10355TIP3    H152556   0.703   6.306   1.449  1.0473  1.3432  1.4711
10355TIP3    H252557   0.560   6.291   1.400  1.9925 -0.0232 -1.0664
10356TIP3   OH252558   5.086   5.216  14.701  0.3281  0.1782  0.5512
10356TIP3    H152559   5.134   5.298  14.686 -0.0693  0.1326 -1.2015
10356TIP3    H252560   5.154   5.150  14.714  0.6633  0.6335  1.1838
10357TIP3   OH252561   2.255   4.752   5.325 -0.6109 -0.1477  0.1379
10357TIP3    H152562   2.213   4.703   5.255 -0.3640 -0.1895  0.0165
10357TIP3    H252563   2.220   4.841   5.316 -0.5084 -0.1292 -0.1026
10358TIP3   OH252564   0.809   4.097   0.790  0.6952 -0.2322  0.6017
10358TIP3    H152565   0.750   4.057   0.725  2.0166 -2.1319  0.5018
10358TIP3    H252566   0.886   4.122   0.739  0.0725  2.2341  0.7344
10359TIP3   OH252567   5.085   4.241  16.991  0.3989 -0.5170 -0.1117
10359TIP3    H152568   5.006   4.210  17.034 -0.0578 -0.3657 -0.8099
10359TIP3    H252569   5.093   4.187  16.912 -1.1545  1.8511 -2.0688
10360TIP3   OH252570   6.602   0.768   0.835 -0.6543 -0.3483  0.1171
10360TIP3    H152571   6.592   0.863   0.829  0.4373  0.1131  3.6370
10360TIP3    H252572   6.530   0.739   0.891  0.3135 -1.2409  0.9466
10361TIP3   OH252573   3.345   4.796  12.466 -0.0068  0.2082  0.3060
10361TIP3    H152574   3.313   4.865  12.408  2.3473  1.0216 -0.1454
10361TIP3    H252575   3.356   4.839  12.550 -2.4348 -0.7180  1.1837
10362TIP3   OH252576   1.192   3.776  15.135 -0.3677 -0.4001 -0.6464
10362TIP3    H152577   1.195   3.692  15.090 -1.0892 -0.5430 -0.4338
10362TIP3    H252578   1.138   3.832  15.079 -0.5528 -0.3177 -0.3868
10363TIP3   OH252579   2.292   4.847   3.080 -0.2899  0.1247 -0.0052
10363TIP3    H152580   2.330   4.778   3.133 -0.4269  0.2828  0.3030
10363TIP3    H252581   2.239   4.898   3.141 -1.3812 -0.3703 -0.5132
10364TIP3   OH252582   5.363   2.182  16.534  0.1654 -0.2953 -0.8729
10364TIP3    H152583   5.418   2.176  16.611 -0.8432  0.5676 -0.0543
10364TIP3    H252584   5.382   2.103  16.484  1.2958 -0.5506 -0.0592
10365TIP3   OH252585   0.216   5.765   2.715  0.1900  0.3083 -0.3262
10365TIP3    H152586   0.126   5.740   2.737 -0.1863  2.9954  1.6991
10365TIP3    H252587   0.261   5.771   2.800  1.4140  1.9398 -1.0316
10366TIP3   OH252588   3.510   2.251  16.897  0.0986 -0.0262 -0.6858
10366TIP3    H152589   3.426   2.286  16.926 -0.6574 -1.5946 -0.8436
10366TIP3    H252590   3.554   2.324  16.854 -0.6674  1.1396  0.4279
10367TIP3   OH252591   1.470   0.490   5.526  0.4870  0.0709  0.2686
10367TIP3    H152592   1.404   0.557   5.544  0.9816  0.7436 -0.3791
10367TIP3    H252593   1.463   0.473   5.432  0.1206 -1.0620  0.4891
10368TIP3   OH252594   3.032   5.823  13.352 -0.6346 -0.3623  0.0206
10368TIP3    H152595   3.053   5.903  13.304 -0.2252  0.1493  1.0243
10368TIP3    H252596   2.971   5.776  13.295  0.7533 -0.3539 -1.5322
10369TIP3   OH252597   4.270   0.262   4.533 -0.0030  0.1479  0.2303
10369TIP3    H152598   4.241   0.182   4.577  1.5550 -1.2916 -1.1822
10369TIP3    H252599   4.227   0.260   4.448  2.1479 -0.7610 -0.9333
10370TIP3   OH252600   4.823   2.967   4.155 -0.7710 -0.2775  0.4167
10370TIP3    H152601   4.899   3.001   4.201 -0.3740 -0.9428  0.2758
10370TIP3    H252602   4.749   3.017   4.188 -0.0076  2.0245 -1.1143
10371TIP3   OH252603   3.577   3.899  14.505  0.2035  0.7181  0.5752
10371TIP3    H152604   3.571   3.886  14.600  0.9616 -0.5077  0.4854
10371TIP3    H252605   3.530   3.981  14.488  0.9685  1.5265  2.1425
10372TIP3   OH252606   3.290   1.807   1.602  0.3331 -0.2347  0.3319
10372TIP3    H152607   3.359   1.805   1.536  0.7013  0.1824  0.7009
10372TIP3    H252608   3.332   1.777   1.682  0.1478  0.2485  0.6144
10373TIP3   OH252609   1.367   4.843  14.585 -0.4616  0.0156 -0.1089
10373TIP3    H152610   1.376   4.793  14.666  0.0639  1.8498  1.0384
10373TIP3    H252611   1.442   4.819  14.532 -0.1282 -0.2784  0.4912
10374TIP3   OH252612   4.030   5.311  14.298  0.3526 -0.5579 -0.2177
10374TIP3    H152613   3.947   5.324  14.252 -1.7227 -1.6060  2.8937
10374TIP3    H252614   4.053   5.220  14.280 -2.4753 -2.2515  3.3819
10375TIP3   OH252615   6.494   4.823  16.041 -0.3180  0.0561  0.1887
10375TIP3    H152616   6.430   4.797  16.108  1.4883 -1.9586  1.2563
10375TIP3    H252617   6.444   4.877  15.980 -2.0380  2.2099  3.2177
10376TIP3   OH252618   2.549   4.670   4.875  0.3132 -0.3953  0.0182
10376TIP3    H152619   2.589   4.718   4.948 -0.7838 -0.0117  0.3864
10376TIP3    H252620   2.565   4.578   4.895  2.0763 -0.2264 -0.4803
10377TIP3   OH252621   6.374   6.160  15.314 -0.0267  0.0362 -0.2335
10377TIP3    H152622   6.450   6.109  15.341 -0.5845 -0.8839 -0.3509
10377TIP3    H252623   6.410   6.234  15.265  0.8564  0.3043  0.7752
10378TIP3   OH252624   2.130   0.273  16.824 -0.4048  0.0020  0.3383
10378TIP3    H152625   2.081   0.345  16.786  1.9480  1.0839 -0.8629
10378TIP3    H252626   2.111   0.198  16.768  1.7654  1.1971 -2.2509
10379TIP3   OH252627   1.362   2.610  12.132  0.3476  0.4755 -0.3223
10379TIP3    H152628   1.290   2.651  12.085  1.8082  0.9166 -2.2906
10379TIP3    H252629   1.388   2.536  12.077  0.6390 -0.4295  0.9686
10380TIP3   OH252630   1.319   6.627  16.862 -0.2381 -1.1065  0.1806
10380TIP3    H152631   1.339   6.608  16.771  0.7514  1.3181 -0.1969
10380TIP3    H252632   1.290   6.719  16.862  1.6006 -0.4131  2.4898
10381TIP3   OH252633   6.757   1.069   3.504  0.3285  0.3040  0.3795
10381TIP3    H152634   6.669   1.097   3.531 -0.0571  0.1881 -0.7148
10381TIP3    H252635   6.811   1.083   3.582 -1.1045 -1.8238  1.8608
10382TIP3   OH252636   5.181   6.148   3.768 -0.1070  0.3220  0.4030
10382TIP3    H152637   5.259   6.203   3.755  0.5423 -0.6844 -0.0833
10382TIP3    H252638   5.181   6.128   3.862 -0.9268  1.9517  0.7934
10383TIP3   OH252639   4.704   5.684  17.069  0.3763 -0.4318  0.7207
10383TIP3    H152640   4.675   5.593  17.076  1.5957 -0.7802  1.7444
10383TIP3    H252641   4.624   5.735  17.073 -0.1997 -1.3802  2.4607
10384TIP3   OH252642   2.794   3.118  11.762 -0.1855  0.2402 -0.5579
10384TIP3    H152643   2.885   3.144  11.747 -0.3487  1.4732  0.4042
10384TIP3    H252644   2.758   3.106  11.674  1.0646 -0.9138 -0.9410
10385TIP3   OH252645   5.136   0.620   3.071  0.0663 -0.0299  0.0313
10385TIP3    H152646   5.044   0.594   3.072  0.4570 -1.8618 -2.5900
10385TIP3    H252647   5.138   0.700   3.017  0.0117 -0.0425  0.0109
10386TIP3   OH252648   3.519   1.668  13.710 -0.3346 -0.4973 -0.1016
10386TIP3    H152649   3.474   1.612  13.774  2.1666 -0.2562  2.0129
10386TIP3    H252650   3.490   1.757  13.732  2.3021 -0.1210  2.5156
10387TIP3   OH252651   0.098   6.022   2.510  0.3064  0.1196 -0.5880
10387TIP3    H152652   0.187   6.003   2.480 -1.1648 -0.8091 -5.1469
10387TIP3    H252653   0.064   5.938   2.540  0.2699 -0.0292 -1.0394
10388TIP3   OH252654   3.150   3.705   6.139  0.5400  0.0384  0.2062
10388TIP3    H152655   3.128   3.791   6.105  0.9568  0.2699  0.5179
10388TIP3    H252656   3.139   3.713   6.234  0.9983 -0.1275  0.2728
10389TIP3   OH252657   4.329   0.355   2.804  0.5275  0.5174  0.3673
10389TIP3    H152658   4.360   0.443   2.783 -0.6167  0.6661 -0.8101
10389TIP3    H252659   4.377   0.297   2.745  0.0304  0.5412 -0.0659
10390TIP3   OH252660   2.588   1.393   4.636  0.5751  0.0430  0.0519
10390TIP3    H152661   2.515   1.420   4.581  0.8543 -0.3170 -0.5078
10390TIP3    H252662   2.550   1.329   4.696  0.8777 -2.0086 -1.8201
10391TIP3   OH252663   0.057   5.684   1.830 -0.8548  0.1226  0.1541
10391TIP3    H152664  -0.004   5.630   1.780  2.3037 -2.6119 -1.1641
10391TIP3    H252665   0.066   5.637   1.914 -1.3884  1.1493  0.8007
10392TIP3   OH252666   4.559   1.622  16.614 -0.4344  0.3085 -0.4663
10392TIP3    H152667   4.540   1.570  16.535 -2.1968 -1.3967  0.9831
10392TIP3    H252668   4.479   1.671  16.630 -0.2128  0.3850  0.4465
10393TIP3   OH252669   6.859   4.094   4.857  0.2300  0.2212  0.0046
10393TIP3    H152670   6.858   4.048   4.773 -0.2085 -0.7425  0.5253
10393TIP3    H252671   6.951   4.093   4.884  0.1496 -0.8065  0.2550
10394TIP3   OH252672   1.440   1.837  14.775 -0.1509 -0.3633  0.2904
10394TIP3    H152673   1.414   1.913  14.826  0.6586  1.3137 -1.6773
10394TIP3    H252674   1.364   1.817  14.721 -0.7701 -1.7329  1.5767
10395TIP3   OH252675   4.212   5.435   2.982 -0.8932  0.3692  0.3755
10395TIP3    H152676   4.292   5.383   2.983 -0.7554  0.5629 -0.3155
10395TIP3    H252677   4.217   5.487   2.902  0.1645  3.2945  2.1643
10396TIP3   OH252678   0.248   2.541   2.538  0.8276 -0.6540 -0.4457
10396TIP3    H152679   0.311   2.521   2.608 -0.6135 -0.0186  1.1140
10396TIP3    H252680   0.245   2.637   2.537  0.3396 -0.6763 -0.9217
10397TIP3   OH252681   5.977   6.441   3.908 -0.0449 -0.3404  0.8203
10397TIP3    H152682   5.939   6.464   3.823 -2.7468 -0.3676  1.9258
10397TIP3    H252683   6.062   6.485   3.909  0.9870 -1.8940 -2.6253
10398TIP3   OH252684   0.270   2.480   1.552  0.5630 -0.0123  0.2999
10398TIP3    H152685   0.237   2.540   1.619 -0.1982 -0.2658  0.1618
10398TIP3    H252686   0.284   2.535   1.475 -0.7815 -0.0935 -0.0394
10399TIP3   OH252687   0.897   6.724  14.762 -0.1952  0.2920 -0.3850
10399TIP3    H152688   0.816   6.706  14.808  0.6649 -0.7046  0.7980
10399TIP3    H252689   0.955   6.651  14.785  1.0823  1.0461 -1.0830
10400TIP3   OH252690   6.164   5.963  13.397  0.2393  0.5897 -0.2730
10400TIP3    H152691   6.108   6.018  13.452 -0.0282  0.4147 -0.3697
10400TIP3    H252692   6.134   5.982  13.308 -0.7515 -0.6949 -0.2388
10401TIP3   OH252693   0.473   3.542  14.374  0.0848 -0.2919  0.4750
10401TIP3    H152694   0.462   3.613  14.437 -0.9542 -0.2247  0.2286
10401TIP3    H252695   0.413   3.473  14.404  0.8103 -0.9220  0.5049
10402TIP3   OH252696   3.866   5.048   1.058  0.2606 -0.9013 -0.5658
10402TIP3    H152697   3.936   5.111   1.040  1.0370 -1.1942  1.2240
10402TIP3    H252698   3.793   5.102   1.090  1.4639 -0.8970  2.5506
10403TIP3   OH252699   3.083   0.056  14.768 -0.2633  0.1351  0.0880
10403TIP3    H152700   2.995   0.052  14.804 -0.6396 -0.7756 -0.8863
10403TIP3    H252701   3.071   0.074  14.675  0.5640 -0.2209 -0.1053
10404TIP3   OH252702   1.229   3.764   0.541  0.6128  0.2091 -0.4513
10404TIP3    H152703   1.203   3.740   0.629  2.5438 -1.1985 -0.1925
10404TIP3    H252704   1.184   3.701   0.485  0.2748  0.3814 -0.3741
10405TIP3   OH252705   4.955   1.343  14.512  0.2854  0.4441 -0.2931
10405TIP3    H152706   4.937   1.413  14.574  1.2870  0.4672 -0.0049
10405TIP3    H252707   5.012   1.283  14.560  1.8282  0.9202 -1.4375
10406TIP3   OH252708   1.045   5.347   3.222  0.2463 -0.3079  0.0138
10406TIP3    H152709   1.100   5.424   3.230  1.3000 -1.1534  1.3654
10406TIP3    H252710   0.968   5.377   3.173  0.0555  1.8870  1.5117
10407TIP3   OH252711   1.361   3.758   0.059 -0.1869  0.4940 -0.3046
10407TIP3    H152712   1.408   3.762  -0.025  0.6926 -1.7017  0.0156
10407TIP3    H252713   1.352   3.664   0.077 -0.5053  0.9052  1.9917
10408TIP3   OH252714   6.393   1.932   4.782  0.3964  0.0172 -0.5945
10408TIP3    H152715   6.389   1.958   4.689  1.6743 -1.4548 -1.1074
10408TIP3    H252716   6.457   1.862   4.784  1.6550  1.1227  1.7064
10409TIP3   OH252717   6.049   6.615  13.242  0.1251 -0.3033  0.2316
10409TIP3    H152718   6.063   6.526  13.209 -0.6138 -0.8872  1.4083
10409TIP3    H252719   6.065   6.608  13.336 -0.2252  0.7488  0.3786
10410TIP3   OH252720   5.175   3.586  17.107  0.0780 -0.1368  0.2392
10410TIP3    H152721   5.112   3.523  17.071  1.1684 -0.9395 -0.3245
10410TIP3    H252722   5.152   3.669  17.065 -0.0366 -0.6149 -0.6761
10411TIP3   OH252723   3.576   5.971  16.224  0.5435  0.7788  0.1163
10411TIP3    H152724   3.671   5.958  16.214  0.7654  2.7087 -0.7579
10411TIP3    H252725   3.564   6.065  16.212 -1.2446  0.9248  2.4693
10412TIP3   OH252726   2.341   0.130   2.938  0.0596  0.0460 -0.2297
10412TIP3    H152727   2.418   0.125   2.995 -0.6165 -2.6611  0.6052
10412TIP3    H252728   2.376   0.122   2.850  0.8949  1.2037 -0.0211
10413TIP3   OH252729   2.112   4.323  11.873 -0.2733 -0.3481 -0.3204
10413TIP3    H152730   2.088   4.392  11.810 -0.7480  0.1236  0.3692
10413TIP3    H252731   2.179   4.271  11.827 -0.8950 -0.2476 -1.3647
10414TIP3   OH252732   6.436   6.781   3.051  0.1472  0.2577 -0.2439
10414TIP3    H152733   6.445   6.818   2.963 -0.6079 -2.1017 -1.4038
10414TIP3    H252734   6.516   6.731   3.065 -0.9872 -1.9323 -0.9921
10415TIP3   OH252735   1.901   2.082   3.244  0.0104 -0.1560  0.0577
10415TIP3    H152736   1.989   2.053   3.267 -0.3366 -1.2343  0.0641
10415TIP3    H252737   1.907   2.105   3.151 -0.3070 -2.8376 -0.7068
10416TIP3   OH252738   0.572   4.050  13.906 -0.2560 -0.1249  0.1302
10416TIP3    H152739   0.653   4.087  13.872  1.1865 -2.9347  0.2289
10416TIP3    H252740   0.513   4.049  13.830  1.0417 -1.2176 -0.9236
10417TIP3   OH252741   6.509   1.236   3.361 -0.4576 -0.0105 -0.6395
10417TIP3    H152742   6.513   1.200   3.449  2.2225 -1.8202 -1.3715
10417TIP3    H252743   6.480   1.327   3.373  1.1224  0.2215  2.2497
10418TIP3   OH252744   5.888   1.290   1.382 -0.2102 -0.0307 -0.0494
10418TIP3    H152745   5.819   1.336   1.431 -0.2548 -0.4877  0.3300
10418TIP3    H252746   5.864   1.301   1.290 -0.5416  0.2046  0.0624
10419TIP3   OH252747   4.454   6.780  14.279 -0.2291  0.3075 -0.2984
10419TIP3    H152748   4.483   6.865  14.310  0.7316 -0.1216  0.0094
10419TIP3    H252749   4.406   6.799  14.198  0.4079  1.0944 -0.5005
10420TIP3   OH252750   1.567   4.500   1.568  0.0234 -0.1621 -0.1887
10420TIP3    H152751   1.615   4.531   1.491  2.8486 -1.0554  1.0715
10420TIP3    H252752   1.571   4.405   1.561  0.2225 -0.2503  0.9662
10421TIP3   OH252753   3.785   5.775  13.197  0.5820 -0.2746 -0.2755
10421TIP3    H152754   3.724   5.725  13.143 -0.7757  0.0288  0.9200
10421TIP3    H252755   3.834   5.708  13.246  1.4603 -0.5288 -1.4453
10422TIP3   OH252756   2.327   3.045   0.568  0.1787  0.3672  0.4932
10422TIP3    H152757   2.306   3.136   0.588  0.6075  0.4993  0.3331
10422TIP3    H252758   2.281   2.995   0.635 -1.8113  0.5616 -0.6455
10423TIP3   OH252759   3.577   2.420   6.334  0.0984 -0.5027 -0.4906
10423TIP3    H152760   3.538   2.353   6.278 -2.7850 -1.3877  2.3193
10423TIP3    H252761   3.527   2.499   6.317  1.5584  0.2420 -1.6198
10424TIP3   OH252762   3.016   3.123   0.810 -0.1914  0.5744  0.7885
10424TIP3    H152763   2.947   3.183   0.840  1.9508  2.7887  1.6324
10424TIP3    H252764   2.972   3.064   0.750 -2.2055  4.2555 -1.7576
10425TIP3   OH252765   2.876   3.606   4.531  0.2680  0.2942  0.3671
10425TIP3    H152766   2.947   3.574   4.587 -0.5239 -0.2818  1.0686
10425TIP3    H252767   2.905   3.586   4.442  0.7951 -0.3110  0.6678
10426TIP3   OH252768   6.064   3.010   1.670 -0.0735 -0.4851 -0.4255
10426TIP3    H152769   6.153   3.042   1.655  0.2605 -1.0864  0.1872
10426TIP3    H252770   6.063   2.922   1.632  0.3790 -1.4810  1.7326
10427TIP3   OH252771   3.631   0.619   2.498  0.0681  0.2912  0.7496
10427TIP3    H152772   3.705   0.637   2.441  0.6324 -0.6955  1.1468
10427TIP3    H252773   3.586   0.703   2.506  1.0246  0.8600  0.3400
10428TIP3   OH252774   1.549   6.575  13.775  0.3333  0.8251  0.6629
10428TIP3    H152775   1.534   6.551  13.867 -1.6837  1.3429  0.5139
10428TIP3    H252776   1.511   6.503  13.725 -2.6548  2.5141  0.2554
10429TIP3   OH252777   1.757   3.026   2.764  0.4420 -0.0543  0.5731
10429TIP3    H152778   1.769   2.932   2.774 -0.0810 -0.0416  1.3999
10429TIP3    H252779   1.841   3.058   2.731 -0.3946 -1.2486 -3.1458
10430TIP3   OH252780   3.017   4.591   5.227 -0.4999  0.1173  0.5945
10430TIP3    H152781   3.011   4.558   5.137  1.1543 -0.0992  0.5308
10430TIP3    H252782   3.087   4.538   5.267 -0.8590  0.5584  1.8574
10431TIP3   OH252783   4.361   6.058   4.074 -0.3334  0.2481  0.2182
10431TIP3    H152784   4.432   5.996   4.058  0.4509  0.5808  2.1644
10431TIP3    H252785   4.297   6.009   4.125 -0.7830  0.3952 -0.2031
10432TIP3   OH252786   1.803   0.954  15.912 -0.0061 -0.1861  0.1155
10432TIP3    H152787   1.816   0.940  16.006  1.0091 -1.5744 -0.2065
10432TIP3    H252788   1.816   0.868  15.873 -0.2056  0.4163 -1.3353
10433TIP3   OH252789   0.705   2.925  13.463  0.0114 -0.1327 -0.1823
10433TIP3    H152790   0.800   2.936  13.457  0.0742 -0.3888  0.2849
10433TIP3    H252791   0.676   2.993  13.524  0.0134 -0.6152  0.3644
10434TIP3   OH252792   4.286   4.180  11.095 -0.3593  0.5095 -0.1344
10434TIP3    H152793   4.247   4.238  11.030 -1.6578 -0.1700  0.0100
10434TIP3    H252794   4.353   4.131  11.046  0.0886  1.4441 -0.4708
10435TIP3   OH252795   3.913   2.572  11.780 -0.0862  0.2343  0.4401
10435TIP3    H152796   3.990   2.527  11.745  1.0265  1.0140  1.7689
10435TIP3    H252797   3.874   2.615  11.704  0.6131 -0.4338 -0.3149
10436TIP3   OH252798   3.143   3.578  13.430  0.0795 -0.7204 -0.2509
10436TIP3    H152799   3.188   3.565  13.513 -0.5687 -2.1298 -0.0848
10436TIP3    H252800   3.200   3.636  13.380 -1.4103  3.7406  2.6773
10437TIP3   OH252801   4.466   0.437   0.074  0.8441 -0.3672 -0.5216
10437TIP3    H152802   4.556   0.464   0.056  0.7497  0.4911  0.1892
10437TIP3    H252803   4.436   0.499   0.140 -0.2410 -0.7073 -0.6788
10438TIP3   OH252804   0.199   0.126  11.562  0.1572 -0.4501  0.1451
10438TIP3    H152805   0.229   0.197  11.505 -0.2342  0.0892  0.5989
10438TIP3    H252806   0.135   0.168  11.620 -0.0154 -1.1592  0.4701
10439TIP3   OH252807   4.980   1.181  14.754  0.0769 -0.6346  0.0232
10439TIP3    H152808   4.930   1.207  14.832 -0.3001 -1.8595  0.2051
10439TIP3    H252809   5.058   1.139  14.789 -0.8205 -2.5888 -0.2228
10440TIP3   OH252810   4.402   5.190  15.581 -0.4840 -0.0429 -0.3569
10440TIP3    H152811   4.471   5.208  15.517 -0.0530  0.5400  0.2715
10440TIP3    H252812   4.447   5.150  15.655 -0.4648  2.1576  0.9111
10441TIP3   OH252813   2.899   2.465  14.939 -0.3210  0.4158  0.1939
10441TIP3    H152814   2.848   2.544  14.954  1.7186  1.9583 -0.5282
10441TIP3    H252815   2.988   2.497  14.924  0.1416 -1.8209 -2.5638
10442TIP3   OH252816   6.650   2.775   3.365  0.1109  0.4192 -0.4824
10442TIP3    H152817   6.669   2.807   3.453  0.5610 -0.4161 -0.2620
10442TIP3    H252818   6.725   2.804   3.312 -1.1673  2.8122 -1.1215
10443TIP3   OH252819   6.590   2.232  12.943  0.3866 -0.4569 -0.0677
10443TIP3    H152820   6.579   2.138  12.927  1.8258 -0.5173 -0.8693
10443TIP3    H252821   6.583   2.241  13.038  0.6614 -1.4431  0.0567
10444TIP3   OH252822   4.669   0.179   0.548 -0.1531  0.5731 -0.5171
10444TIP3    H152823   4.761   0.154   0.538  0.3052  1.1849  1.5919
10444TIP3    H252824   4.624   0.137   0.475  1.3320 -2.1972  0.0301
10445TIP3   OH252825   5.128   5.300  14.984 -0.0019 -0.9236 -0.1397
10445TIP3    H152826   5.102   5.380  15.029  0.2187 -1.3192  0.7198
10445TIP3    H252827   5.144   5.327  14.894 -1.2027 -0.2531 -0.1706
10446TIP3   OH252828   3.927   3.095  16.221 -0.0773  0.0209 -0.0365
10446TIP3    H152829   3.882   3.134  16.147  0.1029 -1.6202 -1.0605
10446TIP3    H252830   4.017   3.082  16.191 -0.4670 -2.5817 -0.3858
10447TIP3   OH252831   5.742   2.266  12.343  0.1419 -0.0648 -0.9000
10447TIP3    H152832   5.704   2.229  12.263  1.9031 -1.6807 -1.0605
10447TIP3    H252833   5.728   2.198  12.409  0.3019  0.4979 -0.2807
10448TIP3   OH252834   5.867   1.996   2.163  0.3883 -0.0501 -0.2055
10448TIP3    H152835   5.865   2.092   2.160 -0.8536  0.1793  3.4884
10448TIP3    H252836   5.946   1.975   2.213 -0.7008 -0.7608  1.2840
10449TIP3   OH252837   6.032   2.022   6.341  0.6957  0.7230  0.7730
10449TIP3    H152838   5.986   2.067   6.412 -3.0457 -1.9849  0.4018
10449TIP3    H252839   6.075   1.948   6.384 -0.2209  0.0014  0.4933
10450TIP3   OH252840   5.933   4.263  14.529 -0.0725 -0.0033  0.5638
10450TIP3    H152841   5.967   4.351  14.542  1.5788 -0.6020  0.4994
10450TIP3    H252842   5.984   4.227  14.457  0.2497 -1.4894  1.4834
10451TIP3   OH252843   5.155   4.505   2.671  0.0366 -0.1585 -0.0914
10451TIP3    H152844   5.164   4.595   2.638  0.1249  0.4377  1.4854
10451TIP3    H252845   5.232   4.460   2.637 -0.9351 -0.1792 -2.4553
10452TIP3   OH252846   2.634   6.768  11.635  0.2250 -0.1779  0.1586
10452TIP3    H152847   2.598   6.856  11.640  1.2823  0.3869 -1.4044
10452TIP3    H252848   2.724   6.777  11.665  1.0971 -0.1790 -2.2125
10453TIP3   OH252849   6.028   3.156   4.578 -0.2767 -0.0374  0.4783
10453TIP3    H152850   5.987   3.115   4.501 -1.5098  0.1723  0.9949
10453TIP3    H252851   6.104   3.202   4.543  0.0986 -1.2606 -0.3812
10454TIP3   OH252852   1.522   5.554   1.816 -0.6654 -0.4570  0.2375
10454TIP3    H152853   1.486   5.466   1.826 -0.5763 -0.4518  0.6560
10454TIP3    H252854   1.611   5.547   1.851 -1.3418  0.2702  2.2357
10455TIP3   OH252855   1.390   3.720   1.122  0.5010  0.2156 -0.1371
10455TIP3    H152856   1.300   3.751   1.110  0.1901 -0.3946  0.5123
10455TIP3    H252857   1.381   3.625   1.128  1.3405  0.0425 -1.3217
10456TIP3   OH252858   1.293   0.269   2.590  0.5818 -0.3723  0.3833
10456TIP3    H152859   1.325   0.228   2.670 -0.4810 -1.7802  0.1292
10456TIP3    H252860   1.312   0.206   2.521  1.1786  0.6765 -0.4464
10457TIP3   OH252861   0.685   2.036  15.061  0.7983  0.1522  0.3557
10457TIP3    H152862   0.651   2.018  14.974 -0.0952  0.0218  0.7238
10457TIP3    H252863   0.675   2.130  15.073  0.6458  0.1279  0.4257
10458TIP3   OH252864   0.292   4.155  13.226  0.4175 -0.1703 -0.3327
10458TIP3    H152865   0.346   4.077  13.217  0.9372  0.2069 -0.5606
10458TIP3    H252866   0.210   4.133  13.182 -0.2395 -1.3124  1.3637
10459TIP3   OH252867   6.195   6.599  11.912 -0.0336 -0.2753 -0.3306
10459TIP3    H152868   6.169   6.625  12.000 -0.3770  0.8152 -0.7472
10459TIP3    H252869   6.114   6.570  11.869 -0.1116  0.5465 -0.7463
10460TIP3   OH252870   5.775   6.341  17.115 -0.5232 -0.1564  0.3959
10460TIP3    H152871   5.831   6.272  17.081 -2.3074 -0.3506 -2.5259
10460TIP3    H252872   5.730   6.301  17.189 -0.8613 -1.9164 -0.6918
10461TIP3   OH252873   1.945   5.114   3.331 -0.7005 -0.0067  0.0971
10461TIP3    H152874   1.965   5.207   3.341  0.7094 -0.2071 -0.6217
10461TIP3    H252875   1.869   5.100   3.387 -0.5354  1.4367  0.7323
10462TIP3   OH252876   2.426   2.782  16.748 -0.3398  0.0851 -0.0256
10462TIP3    H152877   2.478   2.863  16.755 -0.2942  0.0183  0.4090
10462TIP3    H252878   2.467   2.722  16.810 -1.4854  0.3311  1.0183
10463TIP3   OH252879   4.620   3.746  15.122  0.2438  0.4353  0.6199
10463TIP3    H152880   4.582   3.808  15.185 -1.4709 -1.4029  1.5191
10463TIP3    H252881   4.576   3.767  15.039  1.5314  1.9986  0.2883
10464TIP3   OH252882   6.663   3.279  13.994  0.1128  0.1180  0.9363
10464TIP3    H152883   6.738   3.291  14.052  0.2596  0.0948  0.7544
10464TIP3    H252884   6.635   3.368  13.972 -0.2517  0.1299  1.4322
10465TIP3   OH252885   1.299   1.538  16.356  0.5557 -0.3762  0.2179
10465TIP3    H152886   1.355   1.468  16.325  0.7813 -0.1324  0.0683
10465TIP3    H252887   1.222   1.494  16.391  1.4772 -0.8069  1.8085
10466TIP3   OH252888   1.576   4.483   2.777 -0.3511 -0.0717 -0.4308
10466TIP3    H152889   1.538   4.458   2.861  0.2413 -1.1882 -0.4656
10466TIP3    H252890   1.644   4.417   2.762  0.1568  0.6446 -1.3572
10467TIP3   OH252891   1.771   0.142  10.690 -0.4544 -0.4721  0.2762
10467TIP3    H152892   1.841   0.099  10.642 -0.0741 -2.0080  2.0739
10467TIP3    H252893   1.701   0.077  10.694 -1.0752  0.1965  0.4774
10468TIP3   OH252894   6.072   6.013  10.386 -0.6244  0.1126 -0.0156
10468TIP3    H152895   6.024   5.956  10.446  0.5924 -0.6736  0.2350
10468TIP3    H252896   6.099   6.087  10.440  0.9165 -0.8410  0.5827
10469TIP3   OH252897   1.678   0.986   3.016 -0.1281  0.2782  0.2000
10469TIP3    H152898   1.602   1.040   2.993  0.0564  0.6530  0.4606
10469TIP3    H252899   1.645   0.925   3.082 -0.6973 -0.8922 -1.1076
10470TIP3   OH252900   3.355   4.494   3.274 -0.2569  0.5496 -0.4638
10470TIP3    H152901   3.388   4.495   3.184  0.9098 -0.4512 -0.0802
10470TIP3    H252902   3.432   4.478   3.327 -1.0213  0.5826  0.6873
10471TIP3   OH252903   2.235   4.429   0.563  0.1887 -0.0458 -0.7523
10471TIP3    H152904   2.306   4.436   0.627  1.0969  1.9420 -1.8693
10471TIP3    H252905   2.246   4.506   0.507 -1.8550 -0.5855 -1.9994
10472TIP3   OH252906   5.681   1.712   4.610  0.5294 -0.4057 -0.4212
10472TIP3    H152907   5.620   1.786   4.608 -0.5526 -1.2676 -0.1710
10472TIP3    H252908   5.685   1.687   4.703 -2.0722 -2.9946 -0.8589
10473TIP3   OH252909   5.424   1.701   5.245  0.7263  0.1315  0.3251
10473TIP3    H152910   5.436   1.626   5.186 -0.0157 -1.3779  1.9904
10473TIP3    H252911   5.511   1.716   5.281  1.1147  0.8451 -0.8506
10474TIP3   OH252912   6.262   1.448  11.618 -0.1105  0.1388 -0.5400
10474TIP3    H152913   6.311   1.368  11.638  1.7972  1.5500  0.8962
10474TIP3    H252914   6.328   1.507  11.582 -2.0447  0.1810 -4.5304
10475TIP3   OH252915   2.594   3.163  15.371  0.2521  0.2388 -0.2550
10475TIP3    H152916   2.586   3.218  15.293 -2.4495  0.8937  0.3836
10475TIP3    H252917   2.620   3.223  15.441  3.7117 -0.5145 -0.7083
10476TIP3   OH252918   5.311   6.688  13.643  0.7782  0.2382 -0.4620
10476TIP3    H152919   5.380   6.666  13.705  0.0689 -0.0389  0.2531
10476TIP3    H252920   5.232   6.694  13.697  0.0855 -0.3215 -1.3843
10477TIP3   OH252921   1.410   3.852   0.877 -0.1602 -0.2015 -0.0293
10477TIP3    H152922   1.438   3.811   0.959  0.0430  0.7430  0.3828
10477TIP3    H252923   1.342   3.794   0.843 -0.6996 -0.2663  1.1342
10478TIP3   OH252924   6.460   3.442   3.054 -0.7702 -0.4813  0.0297
10478TIP3    H152925   6.504   3.357   3.055  0.6857  0.2338  1.4232
10478TIP3    H252926   6.483   3.479   2.968  0.4664 -0.5882  0.2860
10479TIP3   OH252927   4.710   6.166  13.435  0.1404  0.0195  0.3996
10479TIP3    H152928   4.782   6.168  13.372  0.0700 -0.3529  0.2996
10479TIP3    H252929   4.682   6.074  13.436 -0.0376  0.0737  0.7725
10480TIP3   OH252930   5.679   2.234  13.333 -0.8234  0.0065 -0.0258
10480TIP3    H152931   5.654   2.326  13.330 -2.0632 -0.3134 -0.1457
10480TIP3    H252932   5.603   2.190  13.371 -0.4986 -1.0354 -0.5521
10481TIP3   OH252933   4.966   2.148  12.813  0.4417  0.1888 -0.0536
10481TIP3    H152934   4.900   2.116  12.751 -0.2494  0.7528  0.3767
10481TIP3    H252935   4.931   2.125  12.899  1.0271  0.0984  0.1626
10482TIP3   OH252936   4.717   3.942   5.116 -0.4253 -0.3473  0.0802
10482TIP3    H152937   4.660   3.867   5.136  0.7851 -1.2473  0.2946
10482TIP3    H252938   4.788   3.935   5.179 -0.1582  0.8611 -0.0632
10483TIP3   OH252939   1.334   6.403   5.423 -0.3072 -0.1055  0.0091
10483TIP3    H152940   1.291   6.408   5.509 -0.4870 -0.0007 -0.0850
10483TIP3    H252941   1.261   6.403   5.361 -0.2117 -1.0815 -0.1103
10484TIP3   OH252942   3.391   5.375   5.933  0.1722 -0.2122 -0.4125
10484TIP3    H152943   3.427   5.347   6.018 -0.9723 -1.1320 -0.2074
10484TIP3    H252944   3.359   5.464   5.950 -0.8491 -0.7115  0.3866
10485TIP3   OH252945   2.295   6.831  11.715  0.7727 -0.1572  0.4279
10485TIP3    H152946   2.341   6.829  11.799 -2.1540  1.8088  2.2362
10485TIP3    H252947   2.341   6.898  11.664  1.1965  0.2815  1.3652
10486TIP3   OH252948   6.779   2.683  11.948 -0.5481 -0.3907 -0.2571
10486TIP3    H152949   6.804   2.759  11.895  1.0495 -0.7317 -0.0329
10486TIP3    H252950   6.835   2.612  11.916 -0.7763 -1.0354  0.7364
10487TIP3   OH252951   3.190   6.478   0.867  0.3685  0.2881 -0.5178
10487TIP3    H152952   3.117   6.420   0.885  0.4084  0.6252  0.8357
10487TIP3    H252953   3.265   6.419   0.858  0.2590  0.0614 -0.0043
10488TIP3   OH252954   5.443   0.105  15.586  0.8493  0.4812 -0.2615
10488TIP3    H152955   5.519   0.163  15.587  0.5054  0.9587 -1.0150
10488TIP3    H252956   5.394   0.131  15.508 -0.8217  1.0909  0.9391
10489TIP3   OH252957   0.724   4.560   5.336 -0.7633  0.1369  0.1597
10489TIP3    H152958   0.795   4.496   5.342 -1.1212 -0.6862 -2.6536
10489TIP3    H252959   0.763   4.643   5.363  1.0807 -0.4247 -0.6336
10490TIP3   OH252960   2.409   4.000   1.427  0.1582 -0.1230 -0.6023
10490TIP3    H152961   2.367   4.077   1.465  0.7961 -1.0495  2.2574
10490TIP3    H252962   2.336   3.947   1.394 -0.7927 -0.4423  1.7765
10491TIP3   OH252963   5.904   0.859   3.728  0.8648  0.6290  0.2807
10491TIP3    H152964   5.853   0.877   3.649  1.3244 -0.2222 -0.2312
10491TIP3    H252965   5.869   0.919   3.794  0.2216  1.0936 -0.4657
10492TIP3   OH252966   4.440   3.473   0.267  0.7910  0.1031  0.6467
10492TIP3    H152967   4.349   3.442   0.270  1.0029 -0.4840  0.9820
10492TIP3    H252968   4.491   3.396   0.244  1.3380  0.1553  1.6361
10493TIP3   OH252969   2.213   6.474   0.599 -0.0472  0.7732 -0.1890
10493TIP3    H152970   2.140   6.487   0.539 -0.5291  3.4381  0.8377
10493TIP3    H252971   2.284   6.527   0.563 -0.2032  2.0707  1.2956
10494TIP3   OH252972   6.737   1.991  13.505  0.0149 -0.2019  0.2117
10494TIP3    H152973   6.686   2.046  13.564  0.1374 -1.2366  1.3080
10494TIP3    H252974   6.770   2.052  13.438 -3.4351  0.4149 -1.1777
10495TIP3   OH252975   4.804   2.173   0.710 -0.5944 -0.0143  0.1563
10495TIP3    H152976   4.774   2.117   0.782  0.3596 -0.4197  0.2577
10495TIP3    H252977   4.861   2.237   0.751 -2.8267  2.0432  0.2688
10496TIP3   OH252978   5.181   4.436   4.976  0.2967 -0.2359  0.6000
10496TIP3    H152979   5.223   4.481   5.049 -0.8805  1.3139  0.3928
10496TIP3    H252980   5.185   4.498   4.903  0.4220 -1.2899 -0.3229
10497TIP3   OH252981   6.469   4.850  12.635 -0.9359 -0.1733 -0.2596
10497TIP3    H152982   6.404   4.781  12.640 -1.7871  0.5133 -1.2644
10497TIP3    H252983   6.498   4.863  12.725 -0.1911 -2.3188 -0.1321
10498TIP3   OH252984   4.271   1.440  16.686  0.2582  0.0228  0.0473
10498TIP3    H152985   4.214   1.433  16.763 -1.1039  0.7617 -0.8441
10498TIP3    H252986   4.338   1.373  16.699 -0.0720 -0.0105  1.7621
10499TIP3   OH252987   0.108   4.198  17.093 -0.0371 -0.6407 -0.2336
10499TIP3    H152988   0.066   4.142  17.027 -2.0470 -0.6439  0.9586
10499TIP3    H252989   0.163   4.137  17.143 -0.3240 -1.0760 -0.4352
10500TIP3   OH252990   2.755   6.090  15.176 -0.1258  0.0990  0.0133
10500TIP3    H152991   2.711   6.175  15.181 -0.3268 -0.0311  0.5048
10500TIP3    H252992   2.684   6.026  15.182  0.0662 -0.1061  0.1170
10501TIP3   OH252993   0.400   0.793   4.763  0.2350  0.0768 -0.2463
10501TIP3    H152994   0.458   0.756   4.830 -0.8358 -1.8710 -0.3240
10501TIP3    H252995   0.459   0.822   4.694  1.2760  0.8883  0.9532
10502TIP3   OH252996   6.093   0.808  14.511 -0.5346 -0.1697  0.3201
10502TIP3    H152997   6.011   0.797  14.462 -0.1555 -0.2965 -0.2932
10502TIP3    H252998   6.123   0.896  14.487 -1.5536  0.7586  2.1780
10503TIP3   OH252999   6.547   1.840  11.668 -0.2794  0.3570  0.1754
10503TIP3    H153000   6.632   1.824  11.709 -0.1851  0.8591  0.1773
10503TIP3    H253001   6.484   1.825  11.739 -0.1459  0.7605  0.3830
10504TIP3   OH253002   5.247   6.433  12.594 -0.0929 -1.2299 -0.5704
10504TIP3    H153003   5.224   6.358  12.649 -0.5213 -0.1859  0.7117
10504TIP3    H253004   5.287   6.394  12.516  0.5340 -2.7584  0.4746
10505TIP3   OH253005   3.677   3.433   4.048  0.0648 -0.2765 -0.7471
10505TIP3    H153006   3.727   3.428   3.967  0.8139  1.0098 -0.3902
10505TIP3    H253007   3.591   3.465   4.020  0.2205 -0.1327 -1.0676
10506TIP3   OH253008   6.321   1.231  15.289  0.3479 -0.2184 -0.0823
10506TIP3    H153009   6.336   1.242  15.195 -0.4205 -0.4096 -0.2343
10506TIP3    H253010   6.405   1.200  15.323  0.5119 -0.5674 -0.7809
10507TIP3   OH253011   6.840   0.944   4.314  0.6737  0.1580  0.1213
10507TIP3    H153012   6.790   0.989   4.383  2.6250  0.0835  1.6754
10507TIP3    H253013   6.867   1.014   4.255 -2.3751  0.0425 -1.6256
10508TIP3   OH253014   6.146   0.540  16.959  0.8950 -0.3070 -0.4709
10508TIP3    H153015   6.158   0.448  16.982 -0.8073 -0.4115  0.2214
10508TIP3    H253016   6.056   0.559  16.986  0.8162  1.2431 -1.6820
10509TIP3   OH253017   0.182   1.972  10.512  0.8579  0.2689  0.2104
10509TIP3    H153018   0.164   1.894  10.459  0.0843  0.7801 -0.3115
10509TIP3    H253019   0.260   2.011  10.472  0.6629  0.2926 -0.1577
10510TIP3   OH253020   4.605   1.709  12.284 -0.3290  0.2171  0.1278
10510TIP3    H153021   4.531   1.702  12.345  0.1766  0.5113  0.7890
10510TIP3    H253022   4.682   1.714  12.341  0.2152 -0.2597 -0.5565
10511TIP3   OH253023   4.484   3.991  15.260  0.0356  0.2244 -0.0781
10511TIP3    H153024   4.397   4.012  15.294 -1.0716 -0.1174 -2.4713
10511TIP3    H253025   4.508   4.067  15.206  1.3340  0.3868  0.6806
10512TIP3   OH253026   5.324   4.736   4.305  0.3735 -0.0293 -0.1656
10512TIP3    H153027   5.259   4.784   4.357  1.9828  0.9193  1.0358
10512TIP3    H253028   5.356   4.800   4.241  0.3023 -0.4322 -0.6129
10513TIP3   OH253029   6.495   4.068   4.999  0.2051 -0.1396 -0.4439
10513TIP3    H153030   6.511   4.048   5.091  2.2963  1.2686 -0.4443
10513TIP3    H253031   6.483   4.163   4.996  2.3118  0.1561 -1.8230
10514TIP3   OH253032   0.957   3.584  10.458 -0.3077  0.6234 -0.4657
10514TIP3    H153033   0.955   3.554  10.548 -1.1823  0.0817 -0.6581
10514TIP3    H253034   0.899   3.660  10.456  0.1546  0.9787 -0.4538
10515TIP3   OH253035   1.778   5.793   4.414 -0.1723 -0.0200 -0.1192
10515TIP3    H153036   1.732   5.741   4.480 -1.6225  1.3833  0.0549
10515TIP3    H253037   1.813   5.868   4.462  1.8180 -0.7243 -0.3740
10516TIP3   OH253038   6.532   4.877   6.177  0.3493  0.2368  0.0477
10516TIP3    H153039   6.551   4.970   6.192 -0.0196  0.2834  0.2322
10516TIP3    H253040   6.456   4.878   6.118  0.4502  0.0512 -0.0861
10517TIP3   OH253041   1.880   4.338  11.168  0.5837 -0.4719  0.7975
10517TIP3    H153042   1.932   4.292  11.102 -1.4674 -0.1860 -1.1243
10517TIP3    H253043   1.927   4.419  11.183  1.0836 -0.5377 -0.3465
10518TIP3   OH253044   6.841   4.186   1.578 -0.4859 -0.7949  0.4593
10518TIP3    H153045   6.819   4.188   1.485  1.2028 -0.7133  0.0323
10518TIP3    H253046   6.873   4.098   1.594 -3.3460 -1.7373  1.6630
10519TIP3   OH253047   3.000   6.002  15.907 -0.3455 -0.5203 -0.1103
10519TIP3    H153048   3.041   6.004  15.993  1.2988 -0.5432 -0.8687
10519TIP3    H253049   2.992   6.095  15.882 -1.8324 -0.4578  0.5028
10520TIP3   OH253050   4.511   6.152  16.047  0.7957  0.4131 -0.5270
10520TIP3    H153051   4.463   6.209  15.987  0.7575  1.2255  0.2423
10520TIP3    H253052   4.448   6.085  16.072  0.9588 -0.2211 -1.7487
10521TIP3   OH253053   1.210   0.139  12.022  0.8199  0.0135  0.1596
10521TIP3    H153054   1.215   0.074  12.092 -0.6550 -0.5610 -0.2464
10521TIP3    H253055   1.146   0.203  12.053 -2.0397 -1.7125 -1.7499
10522TIP3   OH253056   1.130   1.159  13.843 -0.6035  0.8904 -1.0987
10522TIP3    H153057   1.077   1.104  13.786 -0.0202 -0.2987 -0.5191
10522TIP3    H253058   1.212   1.170  13.795  0.2705 -0.9334 -0.1240
10523TIP3   OH253059   6.457   4.938  11.578 -1.2368  0.0578 -0.0481
10523TIP3    H153060   6.477   5.026  11.547 -0.3901 -0.5622 -1.3134
10523TIP3    H253061   6.413   4.952  11.662  0.8878  1.6363  0.9121
10524TIP3   OH253062   1.930   1.824   5.150  0.5996 -1.2142 -0.4350
10524TIP3    H153063   2.003   1.882   5.129  0.2704 -1.0934 -1.2597
10524TIP3    H253064   1.936   1.812   5.245  0.3780  0.5615 -0.1720
10525TIP3   OH253065   1.008   1.497  11.774 -0.1652  0.4386  0.1945
10525TIP3    H153066   0.931   1.457  11.734  0.2200 -1.0222  0.8738
10525TIP3    H253067   1.019   1.451  11.857  1.1564  0.9685  0.3408
10526TIP3   OH253068   1.276   2.802  10.878  0.2167 -0.5791  0.2692
10526TIP3    H153069   1.355   2.755  10.853 -1.6892 -4.1297  0.1803
10526TIP3    H253070   1.234   2.825  10.794 -0.4363 -1.8163  0.2276
10527TIP3   OH253071   0.167   3.851   2.735  0.1969  0.8585 -0.4137
10527TIP3    H153072   0.110   3.834   2.661  1.3010  0.4458 -1.1926
10527TIP3    H253073   0.158   3.774   2.791 -1.5131  1.6652  0.5003
10528TIP3   OH253074   4.519   3.706  12.963  0.0256  0.5005 -0.6434
10528TIP3    H153075   4.558   3.720  13.050 -0.2226  2.1792 -0.7606
10528TIP3    H253076   4.433   3.747  12.969  0.4483  1.6723 -2.0122
10529TIP3   OH253077   5.233   4.359  10.639  0.1999  0.1908  0.7973
10529TIP3    H153078   5.277   4.423  10.695  1.7045  0.1132 -0.2203
10529TIP3    H253079   5.173   4.412  10.586  0.7691  0.6479  0.5947
10530TIP3   OH253080   4.895   4.109   2.769 -0.2646 -0.2241 -0.2830
10530TIP3    H153081   4.906   4.202   2.749 -1.8350  0.1198  0.2607
10530TIP3    H253082   4.982   4.078   2.793  0.3083  1.0680 -0.6425
10531TIP3   OH253083   6.679   6.292  12.202  0.0472  0.5455  0.0299
10531TIP3    H153084   6.773   6.300  12.214 -0.0770  1.7367  0.3244
10531TIP3    H253085   6.665   6.200  12.182  1.3647  0.5368 -0.9369
10532TIP3   OH253086   3.540   3.606   0.833  0.3312 -0.0019  0.5383
10532TIP3    H153087   3.629   3.625   0.863  0.5955  0.9744 -0.7716
10532TIP3    H253088   3.548   3.600   0.738 -1.2466  1.5908  0.2574
10533TIP3   OH253089   2.160   4.925  16.007  0.2666  0.6107  0.3401
10533TIP3    H153090   2.127   4.928  16.097 -0.2177 -3.3041  0.4907
10533TIP3    H253091   2.241   4.976  16.009  0.2869  0.6242  2.9927
10534TIP3   OH253092   3.595   1.158  14.468 -0.9001  0.4161 -0.2938
10534TIP3    H153093   3.598   1.135  14.375  1.4832  0.1778 -0.2203
10534TIP3    H253094   3.562   1.248  14.470  0.3595  0.9284 -1.5058
10535TIP3   OH253095   0.789   1.000   3.881 -0.1132  0.5436  0.5558
10535TIP3    H153096   0.849   1.066   3.846  1.0890 -0.5717  0.4607
10535TIP3    H253097   0.797   1.009   3.976  1.1852 -0.4075  0.5715
10536TIP3   OH253098   0.306   1.807  13.314 -0.1471 -0.4445  0.6070
10536TIP3    H153099   0.217   1.838  13.331  0.3577  1.1125  0.6275
10536TIP3    H253100   0.314   1.808  13.219  0.4259  1.3138  0.6332
10537TIP3   OH253101   2.253   5.663   3.039 -0.0227 -0.0611  0.2400
10537TIP3    H153102   2.234   5.700   2.953 -1.3223 -1.7154 -0.2428
10537TIP3    H253103   2.339   5.622   3.029 -0.8534 -1.6371 -0.7984
10538TIP3   OH253104   6.538   0.131   5.561  0.0135 -0.2861 -0.5684
10538TIP3    H153105   6.528   0.223   5.587  1.1798 -0.6698  1.4813
10538TIP3    H253106   6.465   0.086   5.602  1.5529 -0.8066  1.8011
10539TIP3   OH253107   2.969   5.264  15.492  0.1563 -0.0557  0.4016
10539TIP3    H153108   3.038   5.300  15.548  0.2196  0.7347 -0.1799
10539TIP3    H253109   3.015   5.205  15.432  0.5776  1.6701 -1.0351
10540TIP3   OH253110   3.587   6.772  13.018 -0.1093  0.3128 -0.2765
10540TIP3    H153111   3.671   6.724  13.015  0.1765  0.6964  0.9839
10540TIP3    H253112   3.522   6.705  13.038 -0.5759 -0.4826 -3.8033
10541TIP3   OH253113   2.829   0.838   1.302  0.2087 -0.1969  0.5364
10541TIP3    H153114   2.856   0.753   1.269  1.3886  0.6038 -0.7027
10541TIP3    H253115   2.749   0.858   1.255 -0.2712 -0.7720  1.1030
10542TIP3   OH253116   4.329   2.190  13.031 -0.2291 -0.2548  0.2551
10542TIP3    H153117   4.351   2.223  12.943 -2.1275  1.6822  0.4071
10542TIP3    H253118   4.273   2.114  13.015 -1.9069  1.0391 -0.3123
10543TIP3   OH253119   5.371   4.814  13.731 -0.5198  0.2525  0.6802
10543TIP3    H153120   5.362   4.728  13.691  0.3378 -0.3511  1.7171
10543TIP3    H253121   5.311   4.870  13.683 -0.4084 -0.7124 -0.6224
10544TIP3   OH253122   0.581   3.003  12.081 -0.4226  0.1403  0.3115
10544TIP3    H153123   0.513   2.958  12.131 -1.4852 -0.1533 -1.3107
10544TIP3    H253124   0.658   2.947  12.087 -0.9407 -0.5573  0.4990
10545TIP3   OH253125   4.807   5.772  14.970 -0.4074 -0.6407  0.2064
10545TIP3    H153126   4.863   5.704  14.934 -1.0253 -0.6248 -0.8340
10545TIP3    H253127   4.741   5.787  14.902  0.1579  1.5207  0.0578
10546TIP3   OH253128   1.603   2.030   4.195  0.1339 -0.0392 -0.0349
10546TIP3    H153129   1.596   2.090   4.121 -1.7970  1.5907  1.3592
10546TIP3    H253130   1.599   1.942   4.156 -1.4917  0.7725 -1.8172
10547TIP3   OH253131   4.387   2.653   5.384  0.4888  0.3226  0.1100
10547TIP3    H153132   4.478   2.631   5.406  0.4151  0.2344  0.3270
10547TIP3    H253133   4.373   2.614   5.298 -0.0374 -1.5765  1.0214
10548TIP3   OH253134   1.356   4.573   2.648 -0.0194 -0.1540  0.0506
10548TIP3    H153135   1.449   4.563   2.671  0.0674 -2.5812 -1.1152
10548TIP3    H253136   1.325   4.485   2.630 -2.5197  0.6273  0.0923
10549TIP3   OH253137   6.089   3.952  12.829  0.4429  0.4506 -0.7412
10549TIP3    H153138   6.183   3.970  12.833  0.8973 -1.6671 -0.9140
10549TIP3    H253139   6.070   3.943  12.736 -0.3772  2.7038 -0.8633
10550TIP3   OH253140   4.398   2.754   6.314 -0.1206  0.1891 -0.1977
10550TIP3    H153141   4.431   2.665   6.305 -0.6394 -0.1063  0.6724
10550TIP3    H253142   4.305   2.743   6.331  0.0579  0.8102  1.3773
10551TIP3   OH253143   3.502   0.257  14.229  0.3127  0.5221 -0.1370
10551TIP3    H153144   3.411   0.246  14.204  0.8073 -0.1253 -1.8431
10551TIP3    H253145   3.502   0.258  14.324 -1.4367  0.2770 -0.1175
10552TIP3   OH253146   2.366   1.195   1.743 -0.6538 -0.3806 -0.3689
10552TIP3    H153147   2.284   1.177   1.790 -0.3832  0.3137  0.3821
10552TIP3    H253148   2.435   1.168   1.804 -0.2973  0.6722 -0.2934
10553TIP3   OH253149   5.383   0.516  13.720 -0.5659  0.0126  0.5248
10553TIP3    H153150   5.417   0.557  13.640 -2.5321 -0.8261 -0.8097
10553TIP3    H253151   5.316   0.455  13.690 -0.7773 -0.9793  2.7765
10554TIP3   OH253152   0.731   3.812   3.227 -0.1495 -0.2972  0.0875
10554TIP3    H153153   0.714   3.721   3.201  0.3092 -1.7887  4.2295
10554TIP3    H253154   0.646   3.845   3.257  0.2949 -0.8209  2.1365
10555TIP3   OH253155   0.977   1.059  12.099  0.3350  0.0152 -0.2497
10555TIP3    H153156   0.998   1.003  12.025  0.6478 -1.1389  0.6887
10555TIP3    H253157   1.051   1.050  12.159 -1.0459 -1.1620  1.3890
10556TIP3   OH253158   1.716   0.579  11.026 -0.2798 -0.1433 -0.6201
10556TIP3    H153159   1.794   0.530  11.002 -0.7920 -0.9906 -0.6109
10556TIP3    H253160   1.643   0.522  11.001 -0.9422  1.1580 -1.8459
10557TIP3   OH253161   6.774   1.006  13.280 -0.1536 -0.6251 -0.1067
10557TIP3    H153162   6.801   1.000  13.189 -2.9446 -1.1229 -1.0134
10557TIP3    H253163   6.681   1.029  13.275 -0.2803 -0.2310  2.6416
10558TIP3   OH253164   1.737   3.168   1.372 -0.6288  0.2292  0.3035
10558TIP3    H153165   1.801   3.179   1.302 -0.1484 -0.1001  0.6833
10558TIP3    H253166   1.780   3.206   1.449 -0.5292 -0.7705  0.7547
10559TIP3   OH253167   2.780   4.041   5.050 -0.2860  0.3636  0.5963
10559TIP3    H153168   2.837   3.992   5.109 -0.7551 -1.1869 -0.1794
10559TIP3    H253169   2.829   4.046   4.968 -0.4347  0.8166  0.5312
10560TIP3   OH253170   5.305   6.276   1.057  0.0385 -0.2255 -0.4754
10560TIP3    H153171   5.382   6.250   1.006 -0.5916 -0.4967 -1.3027
10560TIP3    H253172   5.290   6.203   1.117 -0.0087 -0.4901 -0.8097
10561TIP3   OH253173   3.744   0.043  14.277  0.5265 -0.3915 -0.6384
10561TIP3    H153174   3.770   0.123  14.324  1.6615 -0.8803 -0.3985
10561TIP3    H253175   3.668   0.010  14.326 -0.4681  0.9416 -1.2085
10562TIP3   OH253176   5.022   3.408  10.875 -0.0620  0.0074 -0.5017
10562TIP3    H153177   5.038   3.450  10.790 -2.2100  0.5183 -0.7162
10562TIP3    H253178   4.958   3.339  10.855  0.6998 -0.9992  0.4468
10563TIP3   OH253179   1.049   1.630   0.437 -0.6579 -0.0339 -0.4161
10563TIP3    H153180   1.128   1.645   0.385 -0.3490  2.9309  0.6999
10563TIP3    H253181   1.079   1.572   0.508  0.3957  0.5555 -0.3505
10564TIP3   OH253182   6.713   6.527  11.397  0.1085  1.0597  0.1358
10564TIP3    H153183   6.733   6.618  11.420 -1.8593  1.4885  0.2624
10564TIP3    H253184   6.660   6.495  11.470  0.3853 -0.0457 -0.1366
10565TIP3   OH253185   0.429   6.520  11.776 -0.2107 -0.2878 -0.0523
10565TIP3    H153186   0.525   6.527  11.775 -0.2044 -0.3870 -0.3055
10565TIP3    H253187   0.409   6.464  11.701 -0.5155  0.3316 -0.4398
10566TIP3   OH253188   3.341   0.331   3.111  0.0900  0.7747 -0.1869
10566TIP3    H153189   3.378   0.243   3.119  0.6942  1.0737  0.3846
10566TIP3    H253190   3.416   0.389   3.114 -0.4336  1.4181  1.3098
10567TIP3   OH253191   2.728   5.019  14.398 -0.3991  0.3632  0.6494
10567TIP3    H153192   2.712   5.085  14.465 -2.5998  0.8435 -0.2792
10567TIP3    H253193   2.813   5.043  14.361  0.0319  1.1171  2.0367
10568TIP3   OH253194   5.139   4.143   1.275 -0.2443  0.2032 -0.4274
10568TIP3    H153195   5.093   4.226   1.277  1.1327  1.0304 -1.2840
10568TIP3    H253196   5.230   4.165   1.294  0.1760 -1.0777 -0.8250
10569TIP3   OH253197   6.592   2.587  13.963  0.6338  0.6372  0.5866
10569TIP3    H153198   6.596   2.628  14.050 -1.9652 -2.4142  2.3834
10569TIP3    H253199   6.661   2.521  13.964  1.0555  1.0690  0.0406
10570TIP3   OH253200   0.910   6.370  11.369 -0.4424 -0.2432 -0.2331
10570TIP3    H153201   0.926   6.359  11.275 -2.1682  0.6317 -0.6728
10570TIP3    H253202   0.911   6.465  11.382  1.3475 -0.3821  0.9620
10571TIP3   OH253203   2.909   0.483   5.889  0.7829  0.2227 -0.4875
10571TIP3    H153204   2.847   0.552   5.913  0.9863  0.0082  0.7041
10571TIP3    H253205   2.874   0.404   5.927  0.9049 -0.2279 -1.2810
10572TIP3   OH253206   1.534   4.241  11.475  0.3497  0.4495 -0.1596
10572TIP3    H153207   1.516   4.223  11.383 -0.8949 -0.9109  0.3154
10572TIP3    H253208   1.581   4.164  11.506 -0.5154  0.2363  0.6780
10573TIP3   OH253209   0.815   0.199   1.722  0.6666 -0.0826  0.4873
10573TIP3    H153210   0.790   0.172   1.811  2.2741 -0.8836  0.7293
10573TIP3    H253211   0.837   0.292   1.731  0.5436 -0.0887  0.8688
10574TIP3   OH253212   2.801   6.557  13.778  0.6572 -0.0290  0.2234
10574TIP3    H153213   2.796   6.651  13.762 -0.9912  0.0352  0.9399
10574TIP3    H253214   2.876   6.546  13.837 -0.1297  1.0368  1.4521
10575TIP3   OH253215   1.354   6.332   5.835  0.3929  0.3049  0.3150
10575TIP3    H153216   1.410   6.279   5.778  0.7476  0.2834  0.6808
10575TIP3    H253217   1.266   6.319   5.800  0.6340  0.4938 -0.3856
10576TIP3   OH253218   6.094   0.736   1.817 -0.3060 -0.1390  0.3095
10576TIP3    H153219   6.180   0.772   1.839 -0.9851  1.2497  0.8305
10576TIP3    H253220   6.106   0.641   1.818  1.2159  0.0302  0.3529
10577TIP3   OH253221   5.098   0.212   4.611 -0.7443  0.2020 -0.4972
10577TIP3    H153222   5.181   0.193   4.566 -1.0262  0.1176 -0.9856
10577TIP3    H253223   5.124   0.264   4.687 -0.3129  0.8214 -1.0577
10578TIP3   OH253224   0.498   2.775  16.275 -0.1555 -0.1474 -0.3058
10578TIP3    H153225   0.548   2.856  16.270 -1.4945  0.7031 -0.1278
10578TIP3    H253226   0.548   2.714  16.220  0.0579  1.2254 -1.7174
10579TIP3   OH253227   6.584   4.395   5.213  0.0625 -0.1680 -0.8291
10579TIP3    H153228   6.631   4.353   5.285  0.1746  1.2693 -0.0312
10579TIP3    H253229   6.518   4.449   5.256  0.6342  1.3250 -1.7419
10580TIP3   OH253230   1.764   5.763   2.232 -0.2729  0.2413  0.0997
10580TIP3    H153231   1.713   5.743   2.153  0.9064 -3.1149  0.0327
10580TIP3    H253232   1.727   5.705   2.299 -0.9858  2.7435  1.9969
10581TIP3   OH253233   0.613   2.026   1.077 -0.4031  0.5626  0.0004
10581TIP3    H153234   0.570   1.953   1.034 -0.2084  1.3782 -1.6384
10581TIP3    H253235   0.554   2.100   1.064  0.3755  1.1629 -0.1826
10582TIP3   OH253236   3.955   2.467  12.598 -0.5226 -0.6576  0.5380
10582TIP3    H153237   3.880   2.444  12.652  0.5587 -1.2974  1.8123
10582TIP3    H253238   4.028   2.473  12.659  0.5117 -0.2195 -0.6938
10583TIP3   OH253239   5.506   3.314  14.094 -0.1328 -0.4409  0.3645
10583TIP3    H153240   5.492   3.387  14.155  1.5701 -1.0974  1.6138
10583TIP3    H253241   5.516   3.238  14.150  0.6515 -1.2203 -0.7977
10584TIP3   OH253242   6.861   5.613  11.854  0.1899 -0.6369 -0.1632
10584TIP3    H153243   6.943   5.662  11.863 -0.1602  0.2660 -1.5486
10584TIP3    H253244   6.868   5.542  11.918  1.4250  0.2638  0.7426
10585TIP3   OH253245   2.432   3.402   2.300 -0.2038  0.1256  0.3357
10585TIP3    H153246   2.409   3.432   2.388 -1.9548 -4.2755  1.6348
10585TIP3    H253247   2.349   3.374   2.262  0.8356 -0.1117 -1.9037
10586TIP3   OH253248   1.932   6.693   5.296  0.1033  0.4269  0.5391
10586TIP3    H153249   1.912   6.602   5.320 -0.2150  0.9259  2.3138
10586TIP3    H253250   1.885   6.746   5.360  0.7435  1.8457 -0.1112
10587TIP3   OH253251   3.068   0.382   0.340  0.0821  0.0620  0.3428
10587TIP3    H153252   3.118   0.358   0.262 -0.1815 -1.7422  0.6824
10587TIP3    H253253   3.125   0.442   0.388  1.3059 -0.8092  0.0080
10588TIP3   OH253254   3.648   1.690   5.243  0.7359 -0.1068 -0.0968
10588TIP3    H153255   3.555   1.689   5.222  0.7642  0.6336 -0.2922
10588TIP3    H253256   3.684   1.762   5.191  1.0104  1.0948  1.6800
10589TIP3   OH253257   2.744   5.393   3.754 -0.5004 -0.2541 -0.1300
10589TIP3    H153258   2.667   5.336   3.751 -1.0647  0.4631  0.4150
10589TIP3    H253259   2.720   5.469   3.701 -1.0558  1.0078  1.8159
10590TIP3   OH253260   6.381   3.054  11.431  0.4343 -0.0068  0.2803
10590TIP3    H153261   6.308   3.058  11.493 -0.8679  2.0777 -1.3122
10590TIP3    H253262   6.367   2.972  11.384 -0.2075 -0.1854  0.7585
10591TIP3   OH253263   2.950   5.384   0.731  0.0105  0.4635 -0.2304
10591TIP3    H153264   3.018   5.324   0.763 -0.6122 -0.4202 -0.5150
10591TIP3    H253265   2.974   5.469   0.766  0.3560 -0.1426  1.0497
10592TIP3   OH253266   6.243   3.261  14.858 -0.1759  0.5958  0.3063
10592TIP3    H153267   6.171   3.319  14.880 -0.5654  1.7576 -3.3444
10592TIP3    H253268   6.320   3.319  14.853 -0.1356  0.4532 -1.1942
10593TIP3   OH253269   4.672   1.401   2.995 -0.0000  0.1845  0.0603
10593TIP3    H153270   4.610   1.372   2.928  0.2852  0.5680 -0.3801
10593TIP3    H253271   4.673   1.496   2.986 -1.3829  0.4176  1.8937
10594TIP3   OH253272   0.610   0.387   2.216  0.2893  0.5223  0.1391
10594TIP3    H153273   0.567   0.436   2.147  2.5473  0.7828 -1.1929
10594TIP3    H253274   0.561   0.305   2.222 -1.2954  1.4054 -0.1549
10595TIP3   OH253275   1.749   3.329   0.846 -0.4559 -0.1729 -0.0358
10595TIP3    H153276   1.766   3.383   0.923  1.5496 -1.5756  0.5794
10595TIP3    H253277   1.689   3.261   0.876 -0.4435 -0.1515  0.0372
10596TIP3   OH253278   1.906   6.239  17.099 -0.6658 -0.3526 -1.0840
10596TIP3    H153279   1.814   6.235  17.073 -0.5925 -0.8119 -1.2903
10596TIP3    H253280   1.925   6.332  17.108 -0.6519 -0.1534 -2.8422
10597TIP3   OH253281   1.395   1.527  12.854 -0.4714  0.5466  0.2858
10597TIP3    H153282   1.315   1.558  12.897 -0.1395  0.3148  1.0936
10597TIP3    H253283   1.365   1.457  12.796 -0.9140  0.7802  0.2258
10598TIP3   OH253284   6.845   1.498   3.505  0.3500 -0.5499  0.2457
10598TIP3    H153285   6.905   1.568   3.530  0.1075 -0.5735  0.9031
10598TIP3    H253286   6.898   1.440   3.450  0.8688 -0.4614  0.6483
10599TIP3   OH253287   4.142   4.480   4.145  0.2514  0.4796 -0.3720
10599TIP3    H153288   4.222   4.464   4.195  0.7704  0.1149 -1.2973
10599TIP3    H253289   4.104   4.393   4.133 -0.1549  0.6249 -0.1654
10600TIP3   OH253290   0.255   0.915   1.678  1.3420  1.1285  0.1541
10600TIP3    H153291   0.317   0.919   1.751  1.1956 -1.7057  0.5264
10600TIP3    H253292   0.303   0.950   1.604  2.0366  2.5594  1.2152
10601TIP3   OH253293   3.418   4.246  12.253  0.1633 -0.2370 -0.0177
10601TIP3    H153294   3.426   4.310  12.324 -1.1200 -0.3776  0.2771
10601TIP3    H253295   3.502   4.200  12.253  1.3420  1.7935 -0.5912
10602TIP3   OH253296   2.497   1.922  16.068 -0.2338 -0.4780  0.6699
10602TIP3    H153297   2.566   1.934  16.133  0.8392  2.2932 -0.8102
10602TIP3    H253298   2.543   1.899  15.987 -0.8077  2.1655 -0.5343
10603TIP3   OH253299   4.528   6.525  13.215  0.2392  0.3199 -0.1240
10603TIP3    H153300   4.451   6.580  13.202  0.5190  0.4151 -1.5660
10603TIP3    H253301   4.595   6.564  13.158  0.7568 -0.8898 -0.3789
10604TIP3   OH253302   5.239   5.434  12.222  0.1125 -0.1788 -0.0457
10604TIP3    H153303   5.289   5.401  12.147 -1.2762 -0.7156 -0.7709
10604TIP3    H253304   5.218   5.524  12.199 -0.5197 -0.4190 -0.4189
10605TIP3   OH253305   0.077   1.307  11.862  0.0240 -0.7695  0.0388
10605TIP3    H153306   0.157   1.356  11.876 -0.3316  0.4939 -1.9629
10605TIP3    H253307   0.107   1.219  11.837  0.6697 -1.3916  2.6964
10606TIP3   OH253308   0.055   4.321  11.851  0.2523  0.3352  0.0715
10606TIP3    H153309   0.050   4.346  11.758 -0.0595 -2.2477 -0.6854
10606TIP3    H253310   0.146   4.294  11.863 -0.2878 -1.8366 -0.2696
10607TIP3   OH253311   3.927   0.393  12.924 -0.3457 -0.0331 -0.5843
10607TIP3    H153312   3.850   0.430  12.881 -1.5319 -1.9907 -0.2296
10607TIP3    H253313   3.896   0.313  12.965  1.4033  0.2544  1.4789
10608TIP3   OH253314   5.654   3.722  13.362 -0.2333 -0.1431 -0.7512
10608TIP3    H153315   5.677   3.809  13.395 -1.5581 -0.3433  0.7960
10608TIP3    H253316   5.730   3.668  13.382 -0.9369 -0.2424  2.0936
10609TIP3   OH253317   1.236   1.140  10.816 -0.1112  0.3490 -0.2055
10609TIP3    H153318   1.191   1.056  10.821  1.8811 -0.8315 -0.7871
10609TIP3    H253319   1.174   1.198  10.772 -0.7679 -1.4258 -1.7487
10610TIP3   OH253320   5.939   1.014  16.953 -0.7496  0.1035  0.3416
10610TIP3    H153321   5.915   1.094  16.999 -1.2001  1.3216 -1.9065
10610TIP3    H253322   6.027   1.031  16.919  0.2924 -1.4301  2.0683
10611TIP3   OH253323   2.846   3.239  13.356 -0.5667 -0.2082  0.3923
10611TIP3    H153324   2.857   3.229  13.261  0.2970 -0.4242  0.5083
10611TIP3    H253325   2.755   3.214  13.372 -1.0051  0.7555 -0.5001
10612TIP3   OH253326   6.859   2.981  17.109 -0.0013  0.5512 -0.2359
10612TIP3    H153327   6.924   2.944  17.169 -0.0631  2.1622  0.8916
10612TIP3    H253328   6.806   2.906  17.083  1.9354 -0.7317 -0.7670
10613TIP3   OH253329   4.574   5.778  10.717  0.0087  0.5871 -0.5477
10613TIP3    H153330   4.559   5.835  10.792 -0.2140  1.3865 -1.1738
10613TIP3    H253331   4.648   5.818  10.671 -1.2894  1.4634 -1.9851
10614TIP3   OH253332   5.369   3.686   6.138  0.2436 -0.4596 -0.1471
10614TIP3    H153333   5.322   3.663   6.057 -1.6139  2.6078 -0.1209
10614TIP3    H253334   5.450   3.726   6.108  0.2639 -0.6961 -0.4161
10615TIP3   OH253335   1.489   2.617   3.273 -0.0927 -0.1802 -0.0157
10615TIP3    H153336   1.419   2.680   3.251 -0.9824  0.7061  4.4096
10615TIP3    H253337   1.545   2.665   3.334  1.4725 -2.5247  0.4847
10616TIP3   OH253338   3.903   6.839  13.290  0.3158 -0.5994  0.8311
10616TIP3    H153339   3.980   6.891  13.268  0.1174 -0.4089  0.5755
10616TIP3    H253340   3.869   6.809  13.206 -3.7766  4.8017 -0.0237
10617TIP3   OH253341   0.936   0.194  11.887  0.1456 -0.0512 -0.4115
10617TIP3    H153342   0.932   0.285  11.858 -1.1897 -0.2839 -1.0605
10617TIP3    H253343   1.022   0.185  11.927  1.0471  0.9956 -2.0036
10618TIP3   OH253344   2.701   3.359  13.976 -0.0656 -0.1060 -0.1200
10618TIP3    H153345   2.695   3.300  14.051  2.0715  1.3367  1.2785
10618TIP3    H253346   2.614   3.401  13.972  0.1584  0.7848  2.4627
10619TIP3   OH253347   3.712   4.586   4.970  0.1888 -0.7622 -0.4925
10619TIP3    H153348   3.741   4.620   4.886  0.2359  1.1431  0.2427
10619TIP3    H253349   3.640   4.643   4.996  0.5634 -0.9262  1.0349
10620TIP3   OH253350   1.376   0.776  13.121 -0.2790 -0.3511  0.1092
10620TIP3    H153351   1.337   0.826  13.193 -0.6194 -1.5497  0.7925
10620TIP3    H253352   1.303   0.758  13.061 -0.2135 -0.2562  0.0009
10621TIP3   OH253353   0.060   0.085  14.155  0.1023  0.6979 -0.0122
10621TIP3    H153354  -0.027   0.051  14.178 -0.2066 -0.6003 -2.7381
10621TIP3    H253355   0.121   0.025  14.197 -0.4079 -0.5299 -0.9558
10622TIP3   OH253356   2.965   1.088  12.356 -1.1512  0.0181  0.0542
10622TIP3    H153357   3.031   1.156  12.346 -2.6125  1.4556 -0.1494
10622TIP3    H253358   2.924   1.107  12.440 -0.3699 -1.7489  0.8908
10623TIP3   OH253359   5.959   3.812  12.095  0.8097  0.2364  0.2844
10623TIP3    H153360   5.871   3.779  12.109  1.5968 -3.0934 -1.5214
10623TIP3    H253361   5.950   3.873  12.021 -0.0053  0.1468  0.2998
10624TIP3   OH253362   6.845   3.874  15.479  0.0153  0.0092  0.7496
10624TIP3    H153363   6.835   3.893  15.386  0.1881  0.7428  0.8737
10624TIP3    H253364   6.793   3.795  15.494  0.8101 -0.7122 -0.1697
10625TIP3   OH253365   4.975   1.364  11.161  0.5510  0.0237  0.3267
10625TIP3    H153366   5.054   1.353  11.213  2.5181  1.1278 -2.1800
10625TIP3    H253367   4.970   1.284  11.108  1.3564  0.8830 -1.1155
10626TIP3   OH253368   5.965   1.256   1.696 -0.1700 -0.2557  0.2711
10626TIP3    H153369   5.938   1.174   1.737  0.8746 -0.1194  1.2970
10626TIP3    H253370   5.885   1.308   1.690 -0.2965 -0.0418  2.7702
10627TIP3   OH253371   3.860   5.279  15.230 -0.5757 -0.1248 -0.3811
10627TIP3    H153372   3.904   5.326  15.160  1.3113 -0.6394  0.3918
10627TIP3    H253373   3.908   5.197  15.239 -2.0838 -1.0015  0.1354
10628TIP3   OH253374   5.256   2.938   2.771  0.6510 -0.0782  0.1249
10628TIP3    H153375   5.337   2.947   2.822 -0.2884 -1.7252  2.0602
10628TIP3    H253376   5.257   2.848   2.739 -1.7768 -1.2948  2.9365
10629TIP3   OH253377   2.487   4.409   2.671 -0.0546  0.1525  0.3826
10629TIP3    H153378   2.421   4.347   2.640 -0.0279  0.2440  0.1461
10629TIP3    H253379   2.480   4.484   2.613  1.0776 -0.3282 -0.4271
10630TIP3   OH253380   3.382   3.061   5.493  0.2849  0.2662  0.0075
10630TIP3    H153381   3.296   3.020   5.500 -0.1617  1.1808  0.0859
10630TIP3    H253382   3.369   3.150   5.528  1.1118  0.6217 -0.5488
10631TIP3   OH253383   0.904   5.311   5.243  0.3791  0.3603  0.0575
10631TIP3    H153384   0.835   5.345   5.186  0.3788  0.3557  0.0553
10631TIP3    H253385   0.861   5.294   5.326  0.1956 -0.4123 -0.1866
10632TIP3   OH253386   4.770   0.819  11.038  0.0769  0.4384 -0.1159
10632TIP3    H153387   4.812   0.770  10.967  1.6154  2.1371 -0.4447
10632TIP3    H253388   4.764   0.908  11.005 -0.4922  0.9691  1.3679
10633TIP3   OH253389   4.084   6.564   1.358 -0.2596  0.3269  0.6115
10633TIP3    H153390   4.048   6.481   1.390  1.0797 -0.3470  0.4151
10633TIP3    H253391   4.076   6.624   1.432 -0.5835 -0.1669  0.9869
10634TIP3   OH253392   5.560   3.566   1.136 -0.0531  0.2207 -0.3155
10634TIP3    H153393   5.478   3.562   1.184  0.8802  0.8039  1.3865
10634TIP3    H253394   5.564   3.483   1.088 -1.2161 -0.1811  0.2587
10635TIP3   OH253395   5.865   5.822  15.173 -0.0914 -0.2618 -0.3541
10635TIP3    H153396   5.893   5.877  15.246  0.7334 -1.0896 -0.0272
10635TIP3    H253397   5.935   5.831  15.108 -1.3361  1.3493 -1.5595
10636TIP3   OH253398   1.486   4.729  16.692 -0.2247 -0.1243 -0.2759
10636TIP3    H153399   1.505   4.663  16.759  1.8284 -1.6259 -2.1995
10636TIP3    H253400   1.400   4.704  16.658  0.4171 -1.7015 -0.8079
10637TIP3   OH253401   0.546   5.452   6.208 -0.2177  0.1119 -0.1519
10637TIP3    H153402   0.483   5.483   6.144 -0.8695 -1.2127 -0.1832
10637TIP3    H253403   0.528   5.358   6.216  0.1424  0.1606  1.6246
10638TIP3   OH253404   3.420   3.028  13.642  0.2134 -0.7403 -0.1673
10638TIP3    H153405   3.477   2.957  13.670  0.2351 -0.0142  1.8080
10638TIP3    H253406   3.453   3.054  13.556  1.8980 -1.3285  0.2802
10639TIP3   OH253407   2.621   3.410   2.976  0.5776 -0.1347 -0.0780
10639TIP3    H153408   2.547   3.368   3.021 -0.5849  1.0626 -0.7960
10639TIP3    H253409   2.614   3.380   2.885  0.7970  0.2170 -0.2113
10640TIP3   OH253410   5.620   1.763   4.316 -0.2054 -0.3708 -0.0037
10640TIP3    H153411   5.611   1.683   4.368  2.0142  0.3686  1.6577
10640TIP3    H253412   5.564   1.827   4.358  0.1576 -0.2916  0.3625
10641TIP3   OH253413   6.404   6.075  13.159 -0.3739 -0.0616  0.4091
10641TIP3    H153414   6.480   6.019  13.172 -0.8098 -1.0168 -0.9679
10641TIP3    H253415   6.376   6.058  13.069 -2.1546  0.3375  0.8428
10642TIP3   OH253416   5.643   6.852  14.567  0.0058 -0.2178  0.2599
10642TIP3    H153417   5.669   6.821  14.480  1.5133 -2.8967  1.5400
10642TIP3    H253418   5.682   6.940  14.574  2.0511 -0.9747 -0.8570
10643TIP3   OH253419   6.626   2.177   4.380 -0.3307 -0.2830  0.4019
10643TIP3    H153420   6.587   2.256   4.416 -0.6878  0.6519 -1.8649
10643TIP3    H253421   6.558   2.141   4.322  0.9267 -0.4964 -1.0071
10644TIP3   OH253422   1.339   2.270   2.948  0.2954 -0.1095  0.4189
10644TIP3    H153423   1.391   2.346   2.975 -0.7732  1.3501 -1.4553
10644TIP3    H253424   1.291   2.299   2.871 -2.6123 -1.6681  1.4723
10645TIP3   OH253425   5.615   0.610  13.855  0.0590 -0.6557 -0.5010
10645TIP3    H153426   5.588   0.701  13.840  0.3053  0.4803  4.2178
10645TIP3    H253427   5.534   0.560  13.856 -0.5270  0.2724  0.5293
10646TIP3   OH253428   0.328   6.378   4.533 -0.4669 -0.5200 -0.0382
10646TIP3    H153429   0.361   6.448   4.478  1.5322 -1.4424 -0.0972
10646TIP3    H253430   0.400   6.315   4.538 -1.5578 -1.7370  1.4389
10647TIP3   OH253431   1.996   5.135   2.624  0.2515  0.3701  0.7279
10647TIP3    H153432   1.943   5.194   2.571  1.1731  0.4501 -0.1436
10647TIP3    H253433   1.956   5.138   2.711 -0.7573  0.9243  0.2635
10648TIP3   OH253434   5.396   4.966  14.496 -0.5877  0.1711 -0.2781
10648TIP3    H153435   5.409   5.044  14.549 -0.5583  0.4343 -0.6670
10648TIP3    H253436   5.380   4.896  14.559  1.9493 -0.0352  0.2561
10649TIP3   OH253437   0.087   0.437   6.449  0.7197 -0.3389  0.3227
10649TIP3    H153438   0.059   0.430   6.540  1.1636  1.7471  0.6880
10649TIP3    H253439   0.013   0.406   6.398 -0.8055  1.3713  1.3487
10650TIP3   OH253440   1.671   2.519  11.505 -0.1350  0.3373  0.2352
10650TIP3    H153441   1.747   2.552  11.458 -0.7094 -0.9505 -1.6886
10650TIP3    H253442   1.702   2.506  11.595  2.1163 -0.8480 -0.6430
10651TIP3   OH253443   6.345   1.313   0.873 -0.7910  0.1578 -0.0479
10651TIP3    H153444   6.425   1.366   0.882 -0.3088 -0.7564  1.3777
10651TIP3    H253445   6.274   1.373   0.899 -0.8167  1.4541 -2.7720
10652TIP3   OH253446   5.585   3.043   5.199 -0.1984 -0.1871  0.1316
10652TIP3    H153447   5.572   3.110   5.266  0.2090 -0.9533  1.0015
10652TIP3    H253448   5.507   3.049   5.144 -1.8690 -1.2859  2.2179
10653TIP3   OH253449   0.962   1.665   4.843 -0.1577 -0.2674 -0.0920
10653TIP3    H153450   0.935   1.749   4.881  1.0263 -0.0600  0.3103
10653TIP3    H253451   0.948   1.602   4.914  1.0373 -0.0497  0.3518
10654TIP3   OH253452   5.644   6.221   0.220 -0.4828 -0.2886  0.2579
10654TIP3    H153453   5.551   6.202   0.215 -0.2169 -1.9006  0.9993
10654TIP3    H253454   5.688   6.140   0.195  0.7402  0.4712 -0.2026
10655TIP3   OH253455   6.771   6.513   1.230 -0.2170 -0.2081 -0.3623
10655TIP3    H153456   6.845   6.477   1.279 -0.1330 -0.5795 -0.7503
10655TIP3    H253457   6.734   6.437   1.186  0.2434  0.2473 -1.5698
10656TIP3   OH253458   4.209   2.874   4.158 -0.0622  0.4110 -0.0978
10656TIP3    H153459   4.237   2.865   4.249 -1.6175  1.1731  0.5064
10656TIP3    H253460   4.190   2.967   4.148  0.9631  0.4942 -1.5031
10657TIP3   OH253461   2.497   1.136  16.980  0.2566 -0.2254  0.4212
10657TIP3    H153462   2.583   1.096  16.969  0.4769  0.5764 -1.0070
10657TIP3    H253463   2.483   1.186  16.899 -2.0557 -1.3122  0.0490
10658TIP3   OH253464   0.747   3.109  16.972 -0.0057 -0.1689 -0.3474
10658TIP3    H153465   0.840   3.090  16.983  0.1450  0.3507 -0.6937
10658TIP3    H253466   0.707   3.084  17.055  0.6135  0.6510  0.2077
10659TIP3   OH253467   0.065   6.270  12.479  0.7424  0.5964  0.2632
10659TIP3    H153468   0.118   6.280  12.557  0.3002  2.9908  0.3317
10659TIP3    H253469   0.126   6.284  12.406  1.1517 -1.6188  0.1182
10660TIP3   OH253470   4.112   4.457  10.158  0.3454  0.4631 -0.3725
10660TIP3    H153471   4.168   4.534  10.167 -0.5151  0.8283  2.8513
10660TIP3    H253472   4.023   4.492  10.165 -0.0499 -0.8336  2.5761
10661TIP3   OH253473   2.803   2.055   0.522  0.0223 -0.2487 -0.2897
10661TIP3    H153474   2.853   2.136   0.533 -1.5926  0.6344  0.9262
10661TIP3    H253475   2.806   2.012   0.607 -2.2815  0.4635  0.2235
10662TIP3   OH253476   0.316   0.617  15.218  0.2889 -0.3799  0.0101
10662TIP3    H153477   0.373   0.594  15.291  0.1709 -2.0991 -0.4135
10662TIP3    H253478   0.367   0.596  15.140  0.1387  0.7659 -0.4215
10663TIP3   OH253479   6.802   4.668  14.444 -0.3338 -0.2155 -0.3264
10663TIP3    H153480   6.865   4.714  14.388 -1.4552  1.1240 -0.5258
10663TIP3    H253481   6.851   4.648  14.524  0.4464  0.4824 -0.6156
10664TIP3   OH253482   5.484   2.063   2.342  0.6575  0.2158  0.6060
10664TIP3    H153483   5.523   1.992   2.291 -0.8366  0.3002 -0.7248
10664TIP3    H253484   5.469   2.024   2.429  0.2648 -0.9898  0.0292
10665TIP3   OH253485   6.046   5.476  10.768 -0.0461  0.6596 -0.2327
10665TIP3    H153486   6.007   5.503  10.851 -0.4227  0.1568 -0.2408
10665TIP3    H253487   6.140   5.490  10.779  0.0205 -0.3593  0.6518
10666TIP3   OH253488   5.676   3.896   0.597  0.1501 -0.3788 -0.3400
10666TIP3    H153489   5.669   3.943   0.680  0.7835  0.6654 -0.8657
10666TIP3    H253490   5.586   3.897   0.562  0.1956  0.6834 -0.4641
10667TIP3   OH253491   5.109   0.188   3.346 -0.3597  0.4491 -0.0369
10667TIP3    H153492   5.108   0.170   3.252 -0.9875  1.4386 -0.2389
10667TIP3    H253493   5.145   0.109   3.386 -0.9107 -0.3291 -1.0415
10668TIP3   OH253494   5.557   5.586   2.906  0.0005  0.0546  0.1387
10668TIP3    H153495   5.514   5.501   2.893  0.9020 -0.3427 -0.3038
10668TIP3    H253496   5.584   5.585   2.998 -1.8269  0.7422  0.7285
10669TIP3   OH253497   1.732   3.711   5.255 -0.0584  0.1247 -0.0627
10669TIP3    H153498   1.698   3.666   5.332 -0.3686  2.0171  0.9736
10669TIP3    H253499   1.719   3.804   5.274  0.5604  0.6784 -2.0849
10670TIP3   OH253500   2.506   5.472   1.903  0.1631  0.2440 -0.3764
10670TIP3    H153501   2.570   5.493   1.971  0.4012 -1.1690 -0.1437
10670TIP3    H253502   2.450   5.550   1.899  0.7862  0.7736  0.6904
10671TIP3   OH253503   3.090   6.797   2.594 -0.4601 -0.2628 -0.1917
10671TIP3    H153504   3.028   6.725   2.607  0.7795 -1.4668 -0.7142
10671TIP3    H253505   3.044   6.874   2.627 -1.5370 -1.4160  1.1355
10672TIP3   OH253506   0.098   2.497   0.200 -0.2635  0.8661 -0.9840
10672TIP3    H153507   0.072   2.575   0.249 -2.1791  0.3508 -1.1264
10672TIP3    H253508   0.037   2.492   0.127 -0.8748 -1.3206 -0.3943
10673TIP3   OH253509   4.679   6.249   1.194  0.5651  0.3091  0.1369
10673TIP3    H153510   4.695   6.342   1.211  0.4219  0.3487  0.0612
10673TIP3    H253511   4.616   6.249   1.122 -2.4987  0.2720  2.6076
10674TIP3   OH253512   2.936   1.683  15.713 -0.1844  0.0612  0.3478
10674TIP3    H153513   2.954   1.589  15.717 -3.4590 -0.6302  2.6390
10674TIP3    H253514   2.963   1.716  15.799 -0.9986  0.7811  0.3357
10675TIP3   OH253515   6.103   1.487   6.627  0.1522 -0.1076 -0.3444
10675TIP3    H153516   6.169   1.430   6.667  1.3739  1.5338  0.1144
10675TIP3    H253517   6.151   1.534   6.559  0.3721  3.2966  1.9041
10676TIP3   OH253518   2.468   3.748  16.158 -0.1937  0.9547  0.0738
10676TIP3    H153519   2.402   3.802  16.202 -0.7539 -0.2880  0.8286
10676TIP3    H253520   2.547   3.758  16.211 -0.7434 -0.1869  1.1858
10677TIP3   OH253521   0.340   4.867   0.894 -0.5045 -0.4621  0.4813
10677TIP3    H153522   0.360   4.960   0.890 -1.2898 -0.2682  0.8431
10677TIP3    H253523   0.247   4.864   0.915 -1.0986 -1.3056 -1.9702
10678TIP3   OH253524   6.035   1.967   5.670 -0.4110  0.1311 -0.6864
10678TIP3    H153525   5.970   2.017   5.720 -0.5051  0.2125 -0.8868
10678TIP3    H253526   6.073   1.906   5.733 -0.1941  0.5548 -0.4094
10679TIP3   OH253527   4.650   4.733  10.672  0.8864  0.2237  0.4343
10679TIP3    H153528   4.698   4.809  10.705  0.6745  0.9611 -0.9059
10679TIP3    H253529   4.718   4.670  10.648  1.2956  1.4125 -1.8250
10680TIP3   OH253530   0.396   6.655   5.096  0.4805  1.0288  0.0520
10680TIP3    H153531   0.378   6.624   5.007  3.4453  3.0631 -1.4214
10680TIP3    H253532   0.491   6.646   5.105  0.4262  2.2002  2.4819
10681TIP3   OH253533   5.966   3.508   1.617 -0.4137 -0.2885 -0.2926
10681TIP3    H153534   5.951   3.427   1.568 -2.4199 -0.5612  0.6920
10681TIP3    H253535   5.888   3.561   1.600  0.3948  1.0148 -0.0612
10682TIP3   OH253536   4.608   4.728   3.537  0.1685  0.2429 -0.1628
10682TIP3    H153537   4.675   4.698   3.598  0.6377 -0.8981 -1.2138
10682TIP3    H253538   4.525   4.712   3.583  0.4344 -2.0316 -0.3791
10683TIP3   OH253539   1.419   6.623  12.634  0.1205 -0.2090 -0.7193
10683TIP3    H153540   1.469   6.645  12.555  0.3109 -0.3307 -0.6346
10683TIP3    H253541   1.474   6.560  12.681  0.0487 -0.0727 -0.4464
10684TIP3   OH253542   4.519   2.238   4.885  0.3152  0.1542  0.1212
10684TIP3    H153543   4.593   2.263   4.941 -0.0442 -0.4463  0.8908
10684TIP3    H253544   4.556   2.177   4.822  0.1053 -1.9274  1.8853
10685TIP3   OH253545   1.048   0.145  16.103  0.0653  0.0099  0.4658
10685TIP3    H153546   1.089   0.088  16.168 -1.0376  0.7176  1.8332
10685TIP3    H253547   1.111   0.217  16.091  0.3693 -0.2371  0.5686
10686TIP3   OH253548   0.452   2.942   0.336  0.2656  0.0972  0.2753
10686TIP3    H153549   0.460   3.029   0.296  0.5663 -1.3939 -3.3551
10686TIP3    H253550   0.540   2.921   0.365  0.5627  0.3688 -0.4048
10687TIP3   OH253551   3.493   2.651  12.597 -0.1730  0.1932 -0.5021
10687TIP3    H153552   3.493   2.586  12.667 -0.3349  0.7416  0.0108
10687TIP3    H253553   3.408   2.695  12.605  0.9979  2.3255  0.8871
10688TIP3   OH253554   3.530   6.535   3.438 -0.7188  0.2567 -0.3253
10688TIP3    H153555   3.445   6.559   3.475 -0.1507 -0.0498  1.2467
10688TIP3    H253556   3.520   6.442   3.416 -0.9172  0.3241 -0.5251
10689TIP3   OH253557   2.292   3.775   5.148  0.2097  0.3687  0.0160
10689TIP3    H153558   2.384   3.757   5.132  0.5680  1.8644  0.2553
10689TIP3    H253559   2.260   3.697   5.194  1.2975 -0.2461 -0.2367
10690TIP3   OH253560   2.224   6.444  11.680  0.0152 -0.5652 -0.4521
10690TIP3    H153561   2.266   6.372  11.728 -1.4854 -1.6289 -0.6458
10690TIP3    H253562   2.192   6.503  11.748 -0.0908 -0.8878 -0.2166
10691TIP3   OH253563   6.343   3.152  11.122 -0.5073  0.1635 -0.1144
10691TIP3    H153564   6.254   3.119  11.109 -0.7357  1.0350 -0.8770
10691TIP3    H253565   6.378   3.098  11.193 -1.4193 -0.6154 -0.2258
10692TIP3   OH253566   4.813   2.198  15.114 -0.1712 -0.2173 -0.5012
10692TIP3    H153567   4.851   2.111  15.129 -0.7273 -0.4867 -0.6025
10692TIP3    H253568   4.741   2.182  15.053 -1.5654 -0.0180  1.0003
10693TIP3   OH253569   4.043   0.824  13.035  0.3555 -0.4201  0.8551
10693TIP3    H153570   3.972   0.767  13.065 -1.4250  1.4118  0.3878
10693TIP3    H253571   4.091   0.846  13.115 -1.6291  0.8521  1.7873
10694TIP3   OH253572   0.167   3.831  15.712 -0.1782  0.1327  0.4116
10694TIP3    H153573   0.102   3.798  15.650  1.6591 -0.2387 -1.4133
10694TIP3    H253574   0.185   3.921  15.683  0.9306 -0.1529  0.1729
10695TIP3   OH253575   1.751   5.212   5.629  0.2333  0.8108 -0.0115
10695TIP3    H153576   1.757   5.153   5.555  0.4053  0.2040  0.4802
10695TIP3    H253577   1.804   5.171   5.698  0.6642  1.7178  0.2174
10696TIP3   OH253578   4.208   4.732   5.039 -0.3675  0.0543  0.0209
10696TIP3    H153579   4.124   4.734   5.086 -2.1302 -0.1394 -2.8765
10696TIP3    H253580   4.226   4.823   5.017 -0.2787 -0.0054 -0.1508
10697TIP3   OH253581   4.905   0.646  12.075  0.0443  0.1291  0.0787
10697TIP3    H153582   4.876   0.719  12.021  0.3374  0.8343  0.8648
10697TIP3    H253583   4.973   0.682  12.130  0.6426 -0.8980  0.0364
10698TIP3   OH253584   1.872   3.688  13.103 -0.1990 -0.1653 -0.0476
10698TIP3    H153585   1.941   3.685  13.170 -0.3895  0.7827  0.1991
10698TIP3    H253586   1.901   3.624  13.037  0.4718 -0.4170  0.4721
10699TIP3   OH253587   3.461   0.439  12.100  0.1620  0.0091 -0.5294
10699TIP3    H153588   3.498   0.524  12.077  1.6333 -0.6176 -0.6164
10699TIP3    H253589   3.449   0.394  12.016  2.0511 -0.8881 -0.3795
10700TIP3   OH253590   2.859   4.120   3.514  0.0834  0.9257 -0.1757
10700TIP3    H153591   2.909   4.039   3.506 -0.6584  0.5863 -1.6421
10700TIP3    H253592   2.886   4.156   3.599  0.2617 -0.9543  0.6208
10701TIP3   OH253593   1.316   0.916  12.588  0.1987  0.1275  0.8082
10701TIP3    H153594   1.275   0.922  12.502  0.2971  1.0912  0.8229
10701TIP3    H253595   1.390   0.977  12.585  0.2507  0.1165  1.5501
10702TIP3   OH253596   0.090   5.316  16.275  0.2199  0.4823  0.4221
10702TIP3    H153597   0.056   5.355  16.356  1.0010  0.3928  0.8108
10702TIP3    H253598   0.040   5.236  16.264  0.5502  0.1588  1.1888
10703TIP3   OH253599   2.365   5.097  14.440  0.0547 -0.0450 -0.0275
10703TIP3    H153600   2.444   5.136  14.403  0.4368 -0.0213  0.8129
10703TIP3    H253601   2.305   5.171  14.451  1.3925  0.6922  3.2132
10704TIP3   OH253602   6.478   3.338   1.292 -0.5518  0.6296 -0.0827
10704TIP3    H153603   6.389   3.366   1.268 -1.0868  0.7374  1.8764
10704TIP3    H253604   6.467   3.294   1.376  1.1341 -0.2502 -0.2945
10705TIP3   OH253605   1.028   6.358   3.675 -0.2216  0.1462 -0.1203
10705TIP3    H153606   1.111   6.386   3.637  0.5691 -0.4122  1.1201
10705TIP3    H253607   1.038   6.264   3.688 -1.0691  0.0625 -0.0111
10706TIP3   OH253608   2.463   5.334  12.186  0.3502 -0.3728  0.4593
10706TIP3    H153609   2.500   5.418  12.161  1.1368 -1.0332 -0.6910
10706TIP3    H253610   2.384   5.325  12.132 -0.1520 -0.0637  1.1208
10707TIP3   OH253611   2.960   0.304   4.658 -0.0984 -1.1174  0.6043
10707TIP3    H153612   2.865   0.316   4.649  0.1197  1.0190  0.4950
10707TIP3    H253613   2.996   0.331   4.573  0.7643  1.3877  1.6576
10708TIP3   OH253614   2.624   1.334   4.912 -0.7207 -0.1717  0.0917
10708TIP3    H153615   2.586   1.266   4.856 -0.5717  0.3372 -0.6416
10708TIP3    H253616   2.718   1.320   4.905 -0.6959  0.0000  0.0724
10709TIP3   OH253617   3.468   4.043   2.038 -0.5971 -0.3044 -0.5324
10709TIP3    H153618   3.514   3.959   2.047 -1.8954 -1.1559 -1.5139
10709TIP3    H253619   3.538   4.107   2.029  0.4244 -1.3355 -0.1727
10710TIP3   OH253620   3.628   2.912  17.036 -0.9717 -0.0264  0.5013
10710TIP3    H153621   3.532   2.919  17.038 -1.2350 -2.5363 -0.0523
10710TIP3    H253622   3.651   2.878  17.123 -0.4333  1.6239  1.0308
10711TIP3   OH253623   1.173   1.925   5.321 -0.5641 -0.1231 -0.0250
10711TIP3    H153624   1.255   1.964   5.354  0.0392  0.5835 -2.2037
10711TIP3    H253625   1.185   1.831   5.333  0.6364 -0.0389 -0.4066
10712TIP3   OH253626   2.935   5.710   2.540 -0.1399  0.0986 -0.0366
10712TIP3    H153627   2.845   5.723   2.569 -1.5086 -2.7746 -2.4337
10712TIP3    H253628   2.970   5.643   2.599 -0.2189 -0.0868 -0.1980
10713TIP3   OH253629   6.732   4.713   1.503 -0.2754  0.1754 -0.0774
10713TIP3    H153630   6.783   4.794   1.493 -0.5288  0.4544  0.7961
10713TIP3    H253631   6.798   4.644   1.509 -0.0624  0.2401 -1.2796
10714TIP3   OH253632   1.507   4.472  17.093 -0.0581 -0.2409  0.0422
10714TIP3    H153633   1.463   4.447  17.174  0.5103 -0.6097  0.2392
10714TIP3    H253634   1.545   4.558  17.111 -0.8183  0.1501 -0.1791
10715TIP3   OH253635   2.125   4.692  13.240  0.0626 -0.2905 -0.2099
10715TIP3    H153636   2.212   4.732  13.248  0.9336 -2.2510  0.8472
10715TIP3    H253637   2.137   4.620  13.178 -0.9346 -0.2536 -0.4514
10716TIP3   OH253638   5.062   3.405  16.943  0.1828 -0.0167 -0.4726
10716TIP3    H153639   4.982   3.444  16.907  0.8908  1.6932 -0.2642
10716TIP3    H253640   5.053   3.312  16.924 -1.0126  0.3847 -2.1017
10717TIP3   OH253641   1.702   0.904   3.374 -0.1305  0.2765 -0.2887
10717TIP3    H153642   1.692   0.858   3.290 -0.5525 -0.9725  0.4205
10717TIP3    H253643   1.669   0.842   3.439  1.6803  0.5511  0.9867
10718TIP3   OH253644   1.009   1.116   4.655  0.2964 -0.1788 -0.1222
10718TIP3    H153645   0.914   1.101   4.652 -0.0809  1.8109  0.1076
10718TIP3    H253646   1.027   1.137   4.746  0.9392 -0.3913 -0.1976
10719TIP3   OH253647   1.875   3.522  16.008 -1.0820  0.4977 -0.2290
10719TIP3    H153648   1.796   3.470  15.993 -0.3398 -0.3598 -1.3589
10719TIP3    H253649   1.929   3.505  15.931  0.9031 -0.2165  1.2392
10720TIP3   OH253650   5.993   3.629   2.257  0.4811 -0.1903  0.3071
10720TIP3    H153651   6.032   3.546   2.227 -0.5794 -0.9487  0.9398
10720TIP3    H253652   5.900   3.608   2.269  0.1940  1.1126  0.4574
10721TIP3   OH253653   1.326   5.697   0.801 -0.3547 -0.3171  0.4735
10721TIP3    H153654   1.302   5.625   0.859 -0.0348  0.1908  1.2607
10721TIP3    H253655   1.415   5.720   0.829  0.2293 -0.7508 -0.9328
10722TIP3   OH253656   0.750   1.269   0.673  0.2393  0.4249 -0.6422
10722TIP3    H153657   0.840   1.274   0.707 -0.2213  0.2170  0.6625
10722TIP3    H253658   0.758   1.217   0.593  1.0031 -1.4777  0.5967
10723TIP3   OH253659   4.735   1.588   4.399 -0.2454  0.6487 -0.0446
10723TIP3    H153660   4.737   1.682   4.383 -0.8463  0.9055  1.2281
10723TIP3    H253661   4.822   1.557   4.374  0.3045  1.7160  0.4652
10724TIP3   OH253662   5.366   5.394  12.459  0.1683  0.2044  0.0731
10724TIP3    H153663   5.307   5.416  12.387 -0.9356 -0.8921  0.6164
10724TIP3    H253664   5.389   5.478  12.497 -0.5636  0.6890 -0.5188
10725TIP3   OH253665   5.068   6.766  14.996  0.3069 -0.0285  0.8061
10725TIP3    H153666   4.980   6.799  15.013  0.6773  0.3411  2.1179
10725TIP3    H253667   5.058   6.707  14.921 -1.1504 -0.4043  1.2626
10726TIP3   OH253668   6.317   5.921  12.932  0.1433 -0.2643  0.3246
10726TIP3    H153669   6.373   5.844  12.944  0.3404 -0.1073  0.4163
10726TIP3    H253670   6.251   5.893  12.868  0.6906 -0.2497 -0.2488
10727TIP3   OH253671   1.115   6.347  14.689  0.0254  0.3650 -0.2325
10727TIP3    H153672   1.099   6.395  14.608 -1.5036 -1.3186 -1.0047
10727TIP3    H253673   1.089   6.257  14.669 -1.9711  0.1966  2.5663
10728TIP3   OH253674   6.592   1.377  12.944 -0.2029 -0.5136 -0.3655
10728TIP3    H153675   6.619   1.435  12.873  0.3966  2.3864  2.0365
10728TIP3    H253676   6.496   1.375  12.939 -0.1910  0.1380 -0.9277
10729TIP3   OH253677   2.491   2.672   1.096  0.1571 -0.5543  0.2896
10729TIP3    H153678   2.562   2.736   1.103 -1.6345  1.4265  1.6229
10729TIP3    H253679   2.497   2.640   1.006  1.5556  0.9809 -0.2221
10730TIP3   OH253680   2.751   3.953  15.771 -0.8306  0.6462 -0.1307
10730TIP3    H153681   2.702   3.992  15.699 -2.6299 -1.0965  0.0623
10730TIP3    H253682   2.740   4.015  15.844 -0.8992  1.3256 -0.7065
10731TIP3   OH253683   5.036   3.161   5.624  0.8329 -0.1426  0.5053
10731TIP3    H153684   5.076   3.145   5.538 -0.1625  0.3913 -0.0829
10731TIP3    H253685   5.016   3.074   5.657  0.1798 -0.3260 -0.3291
10732TIP3   OH253686   1.209   1.049  15.445 -0.2889 -0.7096 -0.1439
10732TIP3    H153687   1.135   0.996  15.475 -1.3893  0.6268 -0.4140
10732TIP3    H253688   1.231   1.013  15.359 -0.2301 -1.4831  0.1861
10733TIP3   OH253689   2.564   4.299   1.603  0.1458  0.0195 -0.2614
10733TIP3    H153690   2.522   4.344   1.676  2.7942 -0.3949  1.6869
10733TIP3    H253691   2.497   4.296   1.535 -2.2955  0.9626  1.9074
10734TIP3   OH253692   6.267   0.704  12.559 -0.3347  0.2152 -0.1806
10734TIP3    H153693   6.237   0.778  12.611 -0.1838  0.1685 -0.0240
10734TIP3    H253694   6.259   0.629  12.619  0.8633  0.3212  0.1460
10735TIP3   OH253695   6.685   0.281  14.795  0.3002 -0.1513 -0.3471
10735TIP3    H153696   6.608   0.270  14.740 -0.1233 -2.0615  0.5190
10735TIP3    H253697   6.670   0.363  14.842 -0.5484  0.1735 -1.1671
10736TIP3   OH253698   6.593   6.438  16.133 -0.5264  0.4245 -0.5561
10736TIP3    H153699   6.525   6.431  16.066 -0.9528  0.1126 -0.0945
10736TIP3    H253700   6.550   6.412  16.214  0.1565  0.1863 -0.2606
10737TIP3   OH253701   5.929   0.997  12.601 -0.4326  0.7652  0.4948
10737TIP3    H153702   5.902   0.924  12.546 -1.0456  1.0953  0.3504
10737TIP3    H253703   5.873   0.992  12.678  1.3799 -0.5640  1.8357
10738TIP3   OH253704   5.464   0.080  16.816  0.5792 -0.0552 -0.2849
10738TIP3    H153705   5.439   0.088  16.908 -0.3816  0.1216 -0.5548
10738TIP3    H253706   5.459   0.170  16.782  1.5015 -0.0212 -0.3836
10739TIP3   OH253707   5.633   0.623  16.650  0.1658  0.0941  0.5233
10739TIP3    H153708   5.546   0.639  16.687  0.1571 -0.1740  0.6242
10739TIP3    H253709   5.616   0.595  16.560  0.2490  2.1423 -0.1851
10740TIP3   OH253710   5.842   2.539  13.087 -0.4883  0.5736 -0.1168
10740TIP3    H153711   5.838   2.546  12.992 -0.1730  2.2842 -0.0412
10740TIP3    H253712   5.856   2.446  13.104 -0.3620  0.2690 -1.7397
10741TIP3   OH253713   5.055   0.149   2.947  0.1044 -0.3483  0.0009
10741TIP3    H153714   5.102   0.203   3.010 -1.9442  0.2335  1.0992
10741TIP3    H253715   4.994   0.097   2.999  1.4847 -3.3254 -1.0734
10742TIP3   OH253716   5.830   3.360   2.265 -0.7178 -0.2649 -0.3231
10742TIP3    H153717   5.776   3.414   2.322 -1.5655  0.0116 -1.3716
10742TIP3    H253718   5.825   3.272   2.303 -0.9412 -0.0015  0.2568
10743TIP3   OH253719   1.041   4.247   1.332 -0.5588  0.0387  0.2911
10743TIP3    H153720   1.078   4.160   1.319 -1.0408 -0.0054 -0.9482
10743TIP3    H253721   0.947   4.232   1.343 -0.8301  0.4772 -1.2251
10744TIP3   OH253722   3.633   5.182   0.631  1.1697  0.4770  0.1345
10744TIP3    H153723   3.586   5.127   0.569 -0.7887  1.1700  0.8982
10744TIP3    H253724   3.632   5.132   0.713  2.6118  0.1101 -0.0557
10745TIP3   OH253725   5.437   5.766  17.029 -0.0178  0.0664  0.4932
10745TIP3    H153726   5.425   5.683  16.984  1.7677  0.3389 -0.5970
10745TIP3    H253727   5.391   5.756  17.112 -0.9388 -1.5150 -0.1674
10746TIP3   OH253728   0.186   2.564   3.441 -0.5237  0.2819 -0.2596
10746TIP3    H153729   0.215   2.474   3.459  0.7838  0.7252 -0.1112
10746TIP3    H253730   0.207   2.578   3.349  0.7310  0.9629  0.1143
10747TIP3   OH253731   1.158   6.030   3.463 -0.0082 -0.5631  0.6547
10747TIP3    H153732   1.223   6.039   3.533  1.9965 -2.2267 -0.8831
10747TIP3    H253733   1.078   6.001   3.508  0.6270  0.3619  2.4561
10748TIP3   OH253734   3.959   6.050   3.381 -0.2831  0.5938 -0.5861
10748TIP3    H153735   3.904   6.120   3.417  0.3414  0.9542 -0.3311
10748TIP3    H253736   3.898   5.976   3.368 -0.6830  0.7400  0.4043
10749TIP3   OH253737   5.039   6.586   3.423  0.3108  0.2876  0.2542
10749TIP3    H153738   4.948   6.585   3.391  0.6752  0.5584 -0.8344
10749TIP3    H253739   5.035   6.635   3.505 -0.2612  1.9265 -0.6881
10750TIP3   OH253740   4.990   1.653   5.469  0.0005  0.1124  0.7512
10750TIP3    H153741   5.032   1.673   5.385 -2.8804 -1.0341 -1.0872
10750TIP3    H253742   4.927   1.724   5.482 -0.4778 -0.4033  1.2873
10751TIP3   OH253743   6.434   5.080  13.749 -0.2475  0.0684  0.1828
10751TIP3    H153744   6.369   5.141  13.786 -2.3691 -1.2747 -1.1530
10751TIP3    H253745   6.399   4.993  13.769 -0.2748 -0.7097 -2.8448
10752TIP3   OH253746   4.598   1.452  16.324 -0.2177  0.1102 -0.1742
10752TIP3    H153747   4.669   1.454  16.259 -0.7389 -0.1678 -0.7664
10752TIP3    H253748   4.520   1.429  16.273 -0.3690 -1.7128  0.7731
10753TIP3   OH253749   1.785   0.732  15.759 -0.2621  0.8658 -0.2358
10753TIP3    H153750   1.822   0.728  15.670 -0.8979  0.1901 -0.4800
10753TIP3    H253751   1.695   0.700  15.749 -0.1461  0.1882  0.7584
10754TIP3   OH253752   4.611   0.996  11.956  0.6375  0.2460  0.0355
10754TIP3    H153753   4.546   1.044  12.006  0.6434 -0.1539  0.4279
10754TIP3    H253754   4.560   0.934  11.904  0.6638  0.3446 -0.1083
10755TIP3   OH253755   2.727   5.192  10.962 -0.4509  0.0143  0.0958
10755TIP3    H153756   2.694   5.182  10.873  1.1738  0.9801 -0.6457
10755TIP3    H253757   2.805   5.137  10.965 -0.1611  0.4547  0.7406
10756TIP3   OH253758   2.136   4.430   6.228 -0.4175 -0.8738 -0.4018
10756TIP3    H153759   2.194   4.504   6.248  1.4096 -1.6694 -2.3401
10756TIP3    H253760   2.144   4.373   6.304  1.0464 -0.7425 -0.4271
10757TIP3   OH253761   3.396   2.336  12.455  0.5380 -0.3656 -0.5629
10757TIP3    H153762   3.428   2.366  12.369  2.5104 -1.6622 -0.3562
10757TIP3    H253763   3.451   2.383  12.518  2.0343 -2.4791 -0.1806
10758TIP3   OH253764   1.679   6.110   3.612  0.2196  0.3684 -0.4581
10758TIP3    H153765   1.748   6.090   3.675 -0.6940  2.2217  1.2401
10758TIP3    H253766   1.620   6.035   3.615  2.3718 -1.5432 -2.4076
10759TIP3   OH253767   1.703   5.870   6.150  0.3609  0.6242  0.2950
10759TIP3    H153768   1.693   5.814   6.227  0.4452 -0.8385 -0.7153
10759TIP3    H253769   1.789   5.911   6.161  1.5524 -1.5713 -0.2097
10760TIP3   OH253770   6.090   5.239   3.262  0.2336  0.0808 -0.3384
10760TIP3    H153771   6.083   5.160   3.208  1.1143 -0.1126 -0.1929
10760TIP3    H253772   6.178   5.273   3.243  1.0432 -0.6378  1.8394
10761TIP3   OH253773   1.273   1.192  11.853  0.2115  0.4679 -0.0457
10761TIP3    H153774   1.178   1.187  11.846  0.1677 -1.0554  1.3324
10761TIP3    H253775   1.305   1.126  11.792  0.4066  0.8737 -0.3929
10762TIP3   OH253776   4.475   3.434  11.899  0.1045  0.8849 -0.1381
10762TIP3    H153777   4.383   3.446  11.877 -0.6583 -2.3745  0.6616
10762TIP3    H253778   4.501   3.355  11.851  1.9250  0.6914  1.0445
10763TIP3   OH253779   2.377   5.956   1.674 -0.2235 -0.4249  0.2391
10763TIP3    H153780   2.443   5.978   1.608  0.5422  0.5131  1.3008
10763TIP3    H253781   2.342   6.040   1.702 -0.1649 -0.7770  1.4199
10764TIP3   OH253782   2.307   2.785  15.926  0.2585  0.2921 -0.2113
10764TIP3    H153783   2.235   2.845  15.945 -1.5084 -0.7872 -2.9034
10764TIP3    H253784   2.353   2.825  15.853  1.9634  0.5540  0.9532
10765TIP3   OH253785   2.960   4.239   3.115  0.1521  0.2539 -0.1959
10765TIP3    H153786   2.888   4.251   3.177 -0.0416  0.3971 -0.4489
10765TIP3    H253787   3.019   4.176   3.159  0.8292  1.5550  0.8244
10766TIP3   OH253788   6.362   1.756  14.222  0.4829  0.0983 -0.6292
10766TIP3    H153789   6.303   1.705  14.165  1.5291 -1.3491 -0.4612
10766TIP3    H253790   6.321   1.752  14.308  0.1112  0.2921 -0.7932
10767TIP3   OH253791   1.341   0.806  14.028  0.1957  0.3451 -0.7353
10767TIP3    H153792   1.392   0.870  13.977 -0.3058  0.9434 -0.5031
10767TIP3    H253793   1.274   0.776  13.966  0.9589 -0.6286 -1.1197
10768TIP3   OH253794   3.750   0.388  11.727 -0.3268 -0.3735  0.2063
10768TIP3    H153795   3.678   0.445  11.703 -0.7595  0.7767  3.6950
10768TIP3    H253796   3.715   0.299  11.717 -0.7366 -0.0018 -2.1473
10769TIP3   OH253797   0.141   3.245   0.270  0.3743  0.0986  0.2110
10769TIP3    H153798   0.185   3.292   0.199 -3.0204  0.7370 -1.6592
10769TIP3    H253799   0.147   3.153   0.244 -1.3712  0.3731 -1.3351
10770TIP3   OH253800   3.395   0.639  13.024  0.0508  0.3402 -0.1507
10770TIP3    H153801   3.462   0.572  13.037 -1.5475 -1.0697  1.3166
10770TIP3    H253802   3.382   0.677  13.111 -0.1688  1.4848 -0.6715
10771TIP3   OH253803   0.164   4.400   0.614 -0.2843 -0.1654 -0.2442
10771TIP3    H153804   0.203   4.482   0.644 -0.7179 -0.3375  0.8342
10771TIP3    H253805   0.072   4.422   0.598  0.1031  0.1244 -2.3115
10772TIP3   OH253806   6.785   1.438  13.421  0.2986  0.0748  0.0846
10772TIP3    H153807   6.700   1.482  13.418  1.1957  2.1255  1.8766
10772TIP3    H253808   6.823   1.453  13.335 -0.6103  0.3340 -0.2793
10773TIP3   OH253809   6.165   5.027  16.642 -0.1120  0.1069 -0.6277
10773TIP3    H153810   6.238   5.080  16.674  0.9434 -1.3218 -0.5694
10773TIP3    H253811   6.193   4.937  16.655 -1.1614 -0.5041 -2.2154
10774TIP3   OH253812   2.511   2.393   4.076 -0.1310 -0.2163 -0.0515
10774TIP3    H153813   2.511   2.454   4.002 -0.2633  1.3715  1.1960
10774TIP3    H253814   2.419   2.375   4.092 -0.0785 -2.9960 -2.0887
10775TIP3   OH253815   1.109   6.731   3.218  0.6894  0.1167 -0.0438
10775TIP3    H153816   1.042   6.790   3.251  1.3924 -0.3414  2.3924
10775TIP3    H253817   1.068   6.688   3.143 -0.6120  2.0368 -0.5102
10776TIP3   OH253818   6.442   0.146   1.555 -0.6596 -0.4126 -1.0143
10776TIP3    H153819   6.475   0.057   1.568  0.8197  0.1766 -0.4747
10776TIP3    H253820   6.448   0.160   1.461  0.3484 -0.4438 -0.9644
10777TIP3   OH253821   1.162   2.183  12.417 -0.1006  0.6303  0.2077
10777TIP3    H153822   1.136   2.096  12.386  0.2636  0.5109  0.2284
10777TIP3    H253823   1.140   2.183  12.510 -1.2771  1.0201 -0.0516
10778TIP3   OH253824   6.718   1.450  14.610 -0.1446  0.2397 -0.3271
10778TIP3    H153825   6.657   1.501  14.557 -0.4056  0.9872  0.6775
10778TIP3    H253826   6.670   1.429  14.689  0.0633 -1.3391 -0.5892
10779TIP3   OH253827   3.106   5.221   1.322  0.5617  0.1388 -0.5991
10779TIP3    H153828   3.084   5.244   1.231  0.2363 -0.3899 -0.6610
10779TIP3    H253829   3.180   5.161   1.314 -0.2356 -0.8759 -0.5965
10780TIP3   OH253830   6.515   1.162  11.361  0.2182  0.4455 -0.3886
10780TIP3    H153831   6.519   1.201  11.274 -2.4056 -0.9147 -1.2493
10780TIP3    H253832   6.425   1.129  11.368  0.8155 -0.9140  2.2098
10781TIP3   OH253833   3.394   3.219  12.615 -0.2116  0.3999  1.0028
10781TIP3    H153834   3.310   3.222  12.662 -1.5649  0.7335 -1.2917
10781TIP3    H253835   3.398   3.302  12.567  0.0322 -0.7544 -1.1139
10782TIP3   OH253836   4.015   1.882  15.368  0.2995  0.4309  0.0488
10782TIP3    H153837   4.036   1.845  15.282 -0.8721  0.4315 -0.2612
10782TIP3    H253838   4.043   1.973  15.362  0.0179  0.4911 -0.4295
10783TIP3   OH253839   4.092   4.252   1.727 -0.4913 -0.1046  0.4668
10783TIP3    H153840   4.076   4.163   1.760  1.2211 -0.7501 -0.3191
10783TIP3    H253841   4.067   4.248   1.635  2.0721 -0.6112 -0.2942
10784TIP3   OH253842   3.241   2.114   5.303 -0.5280 -0.3750  0.1499
10784TIP3    H153843   3.250   2.023   5.275 -0.9746 -0.2563 -0.3939
10784TIP3    H253844   3.329   2.151   5.291 -0.7186 -0.3056 -1.2040
10785TIP3   OH253845   0.986   3.516   0.127 -0.1326  0.5101 -0.1130
10785TIP3    H153846   0.913   3.468   0.085  1.1617 -1.3814 -0.3493
10785TIP3    H253847   1.032   3.557   0.054 -0.2195  0.6346 -0.0983
10786TIP3   OH253848   3.521   1.132   1.120  0.1060  0.2014 -0.2557
10786TIP3    H153849   3.479   1.197   1.063  0.7626  0.0408 -0.9467
10786TIP3    H253850   3.551   1.183   1.196 -0.7281  0.4305 -0.0754
10787TIP3   OH253851   4.315   0.268   1.074  0.0670 -0.4071  0.4006
10787TIP3    H153852   4.223   0.276   1.098 -0.1704  1.5312 -0.9468
10787TIP3    H253853   4.319   0.303   0.985  2.0922 -0.5405  0.4086
10788TIP3   OH253854   5.142   0.917  14.653  0.2399  0.5669  0.3326
10788TIP3    H153855   5.106   0.939  14.739  3.3704  1.3918  1.5760
10788TIP3    H253856   5.159   0.822  14.657  0.3784  0.6046  0.6386
10789TIP3   OH253857   0.883   4.579  10.499 -0.6644 -0.3146 -0.2119
10789TIP3    H153858   0.855   4.656  10.449  0.2288 -1.2124 -2.2094
10789TIP3    H253859   0.853   4.504  10.447 -2.4019 -1.4056  2.1879
10790TIP3   OH253860   2.827   6.313  11.019 -0.4400  0.3496 -0.0341
10790TIP3    H153861   2.841   6.373  10.945 -0.1989 -0.5224 -0.7099
10790TIP3    H253862   2.789   6.369  11.087  2.3465  1.9098  0.3969
10791TIP3   OH253863   0.719   3.792  13.519  0.5154  0.1053  0.0520
10791TIP3    H153864   0.701   3.881  13.547  1.8458  0.8422 -1.2757
10791TIP3    H253865   0.801   3.768  13.563  0.2918 -0.3765  0.2159
10792TIP3   OH253866   3.415   2.836   4.097 -0.0933  0.3069  0.2783
10792TIP3    H153867   3.376   2.802   4.177 -0.4242  0.2874  0.1123
10792TIP3    H253868   3.364   2.795   4.026 -0.2952  0.9008  0.0728
10793TIP3   OH253869   4.247   2.469  15.360  0.1362 -0.2689  0.5375
10793TIP3    H153870   4.200   2.435  15.436  1.6346 -0.0174  1.6222
10793TIP3    H253871   4.298   2.394  15.328 -0.6007 -0.4148 -0.3336
10794TIP3   OH253872   4.075   6.376   5.718 -0.4989  0.0840 -0.5816
10794TIP3    H153873   4.118   6.347   5.798 -2.4428 -1.2409  0.0640
10794TIP3    H253874   3.988   6.337   5.722 -0.9311  0.6169 -2.9794
10795TIP3   OH253875   4.661   3.896   6.505 -0.1081 -0.3118 -0.0451
10795TIP3    H153876   4.747   3.937   6.496  0.7837 -2.2268 -0.7668
10795TIP3    H253877   4.599   3.968   6.495  1.3870  1.1262  0.5360
10796TIP3   OH253878   3.806   2.345  14.903 -0.2939 -0.1583  0.1742
10796TIP3    H153879   3.791   2.438  14.884 -2.1049 -0.1765  1.3312
10796TIP3    H253880   3.776   2.299  14.825  0.3481  0.2029 -0.2916
10797TIP3   OH253881   6.071   1.843   1.707  0.0470  0.4203 -0.0793
10797TIP3    H153882   6.163   1.821   1.703 -0.1065 -0.0670 -1.0523
10797TIP3    H253883   6.045   1.823   1.797  0.8422  0.4129  0.1502
10798TIP3   OH253884   6.059   1.803  16.873  0.0714  0.2204  0.0394
10798TIP3    H153885   5.975   1.765  16.846  0.4548 -1.1724  0.7347
10798TIP3    H253886   6.125   1.739  16.845  0.8772  1.0841 -0.1035
10799TIP3   OH253887   4.462   5.669   2.156 -0.2352  0.0182  0.1507
10799TIP3    H153888   4.465   5.664   2.252  1.2895  1.2008  0.1992
10799TIP3    H253889   4.375   5.706   2.138 -1.0403 -1.3620  0.9770
10800TIP3   OH253890   1.009   4.921   3.282  0.1682  0.3075  0.4473
10800TIP3    H153891   0.999   4.832   3.313 -1.6624  0.3247  0.0381
10800TIP3    H253892   0.924   4.942   3.242  1.2289  1.5047 -1.3199
10801TIP3   OH253893   2.932   2.808   6.256 -0.3117 -0.1328  0.0340
10801TIP3    H153894   2.895   2.723   6.235  1.6547 -0.9464 -0.3522
10801TIP3    H253895   2.949   2.805   6.350  1.9893 -1.1837 -0.3371
10802TIP3   OH253896   5.045   1.165   2.363 -0.4300  0.1636 -0.1702
10802TIP3    H153897   4.985   1.093   2.382 -1.2521  0.2553 -2.2083
10802TIP3    H253898   5.097   1.134   2.289  0.0793  1.1925 -0.2546
10803TIP3   OH253899   5.533   6.181   0.874 -1.4759 -0.0981  0.0240
10803TIP3    H153900   5.600   6.116   0.851  0.3016  1.6627 -0.0915
10803TIP3    H253901   5.461   6.163   0.813 -0.9513 -1.7772 -0.1644
10804TIP3   OH253902   5.730   4.305   0.395 -0.0120  0.0495 -0.0587
10804TIP3    H153903   5.671   4.278   0.324 -0.1110 -1.5723  0.5946
10804TIP3    H253904   5.687   4.382   0.434  0.0699  0.9947 -1.7420
10805TIP3   OH253905   4.069   6.617   1.632  0.7974  0.5602 -0.3096
10805TIP3    H153906   4.138   6.647   1.692  1.3818  1.6707 -1.4819
10805TIP3    H253907   3.999   6.586   1.690  1.8138  0.4717  0.9265
10806TIP3   OH253908   5.429   3.921  16.228  0.2635  0.1235  0.3153
10806TIP3    H153909   5.358   3.983  16.216 -0.9409 -1.5757 -2.2811
10806TIP3    H253910   5.386   3.842  16.262  1.5479  0.1599  2.2254
10807TIP3   OH253911   3.613   6.660   5.032  0.7243  0.7056  0.0277
10807TIP3    H153912   3.612   6.660   4.937 -1.6537 -1.2766 -0.0403
10807TIP3    H253913   3.699   6.624   5.055  0.3184 -1.4601 -1.4956
10808TIP3   OH253914   0.825   1.201   1.702 -0.0942  0.3336  0.2141
10808TIP3    H153915   0.732   1.177   1.702  0.1948 -0.9891  1.6854
10808TIP3    H253916   0.853   1.184   1.792  1.3612  1.6258  0.0310
10809TIP3   OH253917   3.896   5.651   4.880  0.2184 -0.0041 -0.6028
10809TIP3    H153918   3.823   5.712   4.874  1.2045  1.3047  0.0155
10809TIP3    H253919   3.855   5.566   4.893 -1.2233  0.3854 -2.2426
10810TIP3   OH253920   3.836   5.140  11.182 -0.1575  0.4538 -0.6460
10810TIP3    H153921   3.819   5.216  11.126 -0.1033  0.2763 -0.9018
10810TIP3    H253922   3.786   5.158  11.261  0.4645  1.1354 -0.3852
10811TIP3   OH253923   4.996   2.809  14.086  0.3120  0.4692 -0.0956
10811TIP3    H153924   4.978   2.840  14.175 -1.0636 -0.2362 -0.1043
10811TIP3    H253925   4.963   2.879  14.029 -0.6513  0.0471 -0.0729
10812TIP3   OH253926   4.828   3.212   5.075  0.0290  0.0286 -0.0697
10812TIP3    H153927   4.768   3.274   5.117 -0.9458 -1.0880  0.2566
10812TIP3    H253928   4.830   3.239   4.983  1.2757  1.7908  0.4328
10813TIP3   OH253929   5.177   0.243  12.431  0.0829  0.2248 -0.1567
10813TIP3    H153930   5.241   0.187  12.475  0.2430  0.4326 -0.1202
10813TIP3    H253931   5.231   0.301  12.377 -0.0720  0.4385 -0.0822
10814TIP3   OH253932   0.769   5.122   5.850  0.6341  0.0569 -0.4076
10814TIP3    H153933   0.798   5.054   5.911 -0.2570  1.6046  1.8759
10814TIP3    H253934   0.802   5.204   5.888 -2.5866  1.4032 -0.2197
10815TIP3   OH253935   2.158   3.397  16.652  0.6473  0.1656  0.7977
10815TIP3    H153936   2.218   3.438  16.714  0.2965  0.8316  0.7051
10815TIP3    H253937   2.080   3.377  16.705  1.6801 -2.6188  1.4292
10816TIP3   OH253938   2.815   6.198  14.390  0.5643  0.7178 -0.5774
10816TIP3    H153939   2.853   6.251  14.320  2.8251  1.6709  1.2366
10816TIP3    H253940   2.848   6.237  14.470 -1.9397 -0.3205  1.0856
10817TIP3   OH253941   6.792   0.368  11.302  0.1658  0.1400 -0.1359
10817TIP3    H153942   6.747   0.315  11.367 -1.3734  1.5040 -0.0060
10817TIP3    H253943   6.762   0.334  11.218 -3.4284  2.6295 -0.1042
10818TIP3   OH253944   4.567   6.747  13.777  0.0643 -0.0915 -0.1007
10818TIP3    H153945   4.550   6.739  13.683  1.0751  0.5683 -0.3526
10818TIP3    H253946   4.511   6.820  13.806  0.2348  0.1268 -0.3220
10819TIP3   OH253947   5.757   2.671   1.284 -0.2523  0.3105  0.0490
10819TIP3    H153948   5.693   2.637   1.347  0.0441 -1.0237 -0.3477
10819TIP3    H253949   5.764   2.764   1.306 -1.0703  0.1311  1.1864
10820TIP3   OH253950   0.344   4.327  13.745  0.7790  0.1672 -0.3839
10820TIP3    H153951   0.301   4.286  13.821  0.2873  1.6284  0.1654
10820TIP3    H253952   0.273   4.374  13.701  1.5015  1.1974 -0.4546
10821TIP3   OH253953   1.865   5.934  11.162  0.1603  0.0202 -0.3358
10821TIP3    H153954   1.769   5.939  11.164  0.2132  1.1211  0.6349
10821TIP3    H253955   1.885   5.886  11.081 -1.2228 -0.8889 -0.1685
10822TIP3   OH253956   1.462   6.116  12.884 -0.3587  0.3352 -0.4282
10822TIP3    H153957   1.403   6.173  12.836 -1.9201 -1.2747 -0.5416
10822TIP3    H253958   1.440   6.027  12.854 -1.5599 -0.8193  3.2467
10823TIP3   OH253959   0.391   2.289   5.898 -0.7956 -0.3515 -0.1116
10823TIP3    H153960   0.412   2.374   5.861 -1.4392  0.4942  1.3927
10823TIP3    H253961   0.307   2.265   5.858  0.3868 -1.3262 -2.1621
10824TIP3   OH253962   5.034   1.182   6.676  0.7158 -0.2787  0.6204
10824TIP3    H153963   4.979   1.243   6.724 -0.6338 -0.3629 -0.7456
10824TIP3    H253964   5.077   1.236   6.609 -0.0382 -0.6971 -0.2212
10825TIP3   OH253965   6.855   0.277   1.501  0.2780  0.3877 -0.1933
10825TIP3    H153966   6.833   0.209   1.437 -0.1991  0.5499 -0.2052
10825TIP3    H253967   6.794   0.262   1.573  0.8693  0.1531  0.2661
10826TIP3   OH253968   1.557   6.788   3.437 -0.2691 -0.3564  0.0608
10826TIP3    H153969   1.630   6.850   3.438 -2.5450  2.6044 -1.3126
10826TIP3    H253970   1.510   6.805   3.519 -0.6580 -0.6224 -0.1066
10827TIP3   OH253971   4.026   6.560  15.942  0.2508  0.0566 -0.1879
10827TIP3    H153972   4.111   6.601  15.955 -0.0987  0.7240  0.0319
10827TIP3    H253973   3.976   6.623  15.890  0.0357 -0.5211 -0.6967
10828TIP3   OH253974   5.065   4.609  13.085  0.2583  0.5159 -0.1874
10828TIP3    H153975   5.054   4.656  13.002 -1.9114  0.3573 -0.0617
10828TIP3    H253976   5.150   4.567  13.078 -0.7253 -1.2641 -3.3053
10829TIP3   OH253977   2.316   5.585  11.685 -0.8405  0.2144 -0.0130
10829TIP3    H153978   2.336   5.590  11.778 -1.7704 -1.0002  0.2682
10829TIP3    H253979   2.329   5.675  11.653 -1.2570  0.8125  1.4290
10830TIP3   OH253980   4.767   5.121   0.622 -0.3250 -0.6806 -0.3335
10830TIP3    H153981   4.837   5.094   0.562 -1.1499  0.2061 -1.7749
10830TIP3    H253982   4.809   5.179   0.684  0.6378 -1.9328  0.2208
10831TIP3   OH253983   3.930   5.499   2.092 -0.1936  0.0938 -0.3208
10831TIP3    H153984   3.963   5.567   2.032 -1.9750  0.7070 -0.6646
10831TIP3    H253985   3.978   5.514   2.173  0.3660  0.9640 -0.7933
10832TIP3   OH253986   6.732   6.653  15.378 -0.2097 -0.3006  0.3027
10832TIP3    H153987   6.651   6.689  15.343  0.9944  1.6121 -0.7101
10832TIP3    H253988   6.747   6.573  15.326 -0.0302  0.8561 -1.5068
10833TIP3   OH253989   2.375   3.595   4.374 -0.9398  0.3227  0.8128
10833TIP3    H153990   2.414   3.653   4.440 -1.2302  1.1280  0.2965
10833TIP3    H253991   2.414   3.624   4.292 -0.4642 -0.7826  0.6406
10834TIP3   OH253992   2.924   3.557   0.854  0.2857  0.2403 -0.0447
10834TIP3    H153993   2.945   3.644   0.889 -0.9417  0.1319  1.0273
10834TIP3    H253994   2.946   3.497   0.924  0.4745 -0.2545 -0.5246
10835TIP3   OH253995   4.224   6.269   3.299  0.2784 -0.1234  0.4878
10835TIP3    H153996   4.170   6.342   3.330  2.5696  2.6364 -1.5227
10835TIP3    H253997   4.281   6.249   3.374  1.6021  2.2712  0.2318
10836TIP3   OH253998   0.636   6.342  17.035 -0.2858  0.5760 -0.4181
10836TIP3    H153999   0.564   6.366  17.093  1.2774  3.0175  0.6339
10836TIP3    H254000   0.635   6.408  16.966  1.7301  1.5053  0.3650
10837TIP3   OH254001   2.710   2.547  10.243  0.5367  0.4754 -0.5998
10837TIP3    H154002   2.654   2.622  10.263  0.7639  0.3933  0.4074
10837TIP3    H254003   2.649   2.476  10.223  0.1098 -0.2490  2.6733
10838TIP3   OH254004   0.232   1.971   2.832  0.0922  0.8011  0.1624
10838TIP3    H154005   0.262   1.896   2.781 -0.8605  0.5736 -0.0763
10838TIP3    H254006   0.306   1.991   2.890  1.0770  0.8630 -1.0537
10839TIP3   OH254007   6.511   6.496   0.635 -0.5166 -0.1546  0.4150
10839TIP3    H154008   6.577   6.468   0.698  3.3876  0.3996 -2.9428
10839TIP3    H254009   6.490   6.586   0.660 -0.4232 -0.5171  1.8581
10840TIP3   OH254010   5.901   1.964   1.217 -0.5495  0.0444 -0.1987
10840TIP3    H154011   5.944   1.901   1.275 -0.1637  1.1514  0.7587
10840TIP3    H254012   5.973   2.012   1.176 -0.7151  2.4495  2.0073
10841TIP3   OH254013   5.784   1.434   5.419 -0.3353  0.5765 -0.2352
10841TIP3    H154014   5.875   1.406   5.418 -0.4149  0.2665 -1.7314
10841TIP3    H254015   5.743   1.385   5.490  0.4539  0.0075 -0.1718
10842TIP3   OH254016   3.116   4.170   4.659 -0.2670 -0.1463  0.3147
10842TIP3    H154017   3.130   4.263   4.640  2.0607  0.3663  3.6409
10842TIP3    H254018   3.190   4.125   4.617 -0.8817 -0.4150 -0.5074
10843TIP3   OH254019   2.325   0.473   3.549 -0.4661 -0.1942 -0.2533
10843TIP3    H154020   2.373   0.514   3.621 -1.6445 -3.1094  2.4114
10843TIP3    H254021   2.238   0.511   3.553 -0.6189 -0.5736  0.0820
10844TIP3   OH254022   3.163   5.269  11.768 -0.2372 -0.2595 -0.8115
10844TIP3    H154023   3.179   5.179  11.796  0.3878 -0.4904 -1.8418
10844TIP3    H254024   3.088   5.297  11.820  0.7648 -0.6993  0.9456
10845TIP3   OH254025   5.806   2.798  15.349  0.1310  0.5184 -0.9148
10845TIP3    H154026   5.872   2.731  15.337 -0.6495 -0.3148 -0.6475
10845TIP3    H254027   5.854   2.873  15.384  1.3208  0.7462 -2.8812
10846TIP3   OH254028   3.022   5.216  12.955 -0.3926 -0.1746  0.3150
10846TIP3    H154029   3.077   5.245  13.028  1.8582  0.1539 -1.4044
10846TIP3    H254030   2.962   5.152  12.994  0.3850  0.3564  2.5243
10847TIP3   OH254031   1.418   0.787   3.471 -0.2640 -0.0486  0.5810
10847TIP3    H154032   1.339   0.767   3.520  0.1388 -0.7601  0.9472
10847TIP3    H254033   1.428   0.715   3.409 -0.5776  0.6638 -0.3354
10848TIP3   OH254034   0.303   2.493   1.923  0.1101 -0.2886 -0.0569
10848TIP3    H154035   0.390   2.531   1.908 -0.5949  1.3255 -0.2949
10848TIP3    H254036   0.243   2.566   1.909 -1.1766 -0.8527  2.0537
10849TIP3   OH254037   6.809   0.655  12.705  0.0672  0.3060  0.3287
10849TIP3    H154038   6.735   0.634  12.761 -2.0309  0.5623 -2.1835
10849TIP3    H254039   6.788   0.615  12.620  3.0253  0.0228 -0.3790
10850TIP3   OH254040   5.129   0.487   0.960 -0.0580  0.1255 -0.5893
10850TIP3    H154041   5.178   0.532   1.029 -1.8537 -1.9029  2.2567
10850TIP3    H254042   5.061   0.550   0.934 -0.2143  0.4483  0.5480
10851TIP3   OH254043   6.213   5.714  14.400 -0.1503 -0.1528 -0.2195
10851TIP3    H154044   6.209   5.627  14.360 -0.1418  0.8394 -2.5063
10851TIP3    H254045   6.185   5.699  14.491  0.3537 -2.6018 -0.3858
10852TIP3   OH254046   0.257   4.824   3.976 -0.6505 -0.4088 -1.0295
10852TIP3    H154047   0.202   4.808   4.052  0.3212 -2.9275 -0.7650
10852TIP3    H254048   0.264   4.739   3.933 -0.1231  0.6650 -3.2442
10853TIP3   OH254049   4.408   1.186  13.105 -0.2223 -0.0361 -0.3330
10853TIP3    H154050   4.429   1.168  13.014 -0.4708 -3.8141  0.1999
10853TIP3    H254051   4.313   1.191  13.108 -0.1838  1.0922 -0.3637
10854TIP3   OH254052   2.380   0.494  10.751 -1.1863 -0.3738 -0.1504
10854TIP3    H154053   2.447   0.469  10.688 -0.1517  0.4100  0.6027
10854TIP3    H254054   2.372   0.419  10.810 -0.1239 -0.0606  0.4265
10855TIP3   OH254055   5.156   2.786   0.438 -0.1376  0.7866 -0.4212
10855TIP3    H154056   5.074   2.821   0.405 -0.0272  0.6704 -0.8170
10855TIP3    H254057   5.217   2.793   0.365  0.0636  0.3746 -0.2978
10856TIP3   OH254058   4.175   5.958   2.419  0.2464 -0.3743  0.2315
10856TIP3    H154059   4.168   5.866   2.396  0.2781 -0.1332 -0.7902
10856TIP3    H254060   4.218   5.959   2.505  0.2370 -1.3004  0.2479
10857TIP3   OH254061   1.592   2.870  11.176 -0.1088 -0.1638  0.2556
10857TIP3    H154062   1.640   2.914  11.106 -0.4348  0.9200  0.6927
10857TIP3    H254063   1.501   2.892  11.160 -0.3946 -1.4383 -0.0211
10858TIP3   OH254064   3.978   2.002  16.602 -0.5955  0.0676 -0.2650
10858TIP3    H154065   4.034   1.976  16.529 -0.9126  0.3487 -0.6151
10858TIP3    H254066   3.894   1.958  16.584 -0.8420  0.5701 -0.3628
10859TIP3   OH254067   4.828   6.805  13.907 -0.1162  0.2339 -0.4273
10859TIP3    H154068   4.737   6.812  13.878 -0.2244  0.1682 -0.1103
10859TIP3    H254069   4.880   6.829  13.830 -0.3187 -2.3560 -1.4568
10860TIP3   OH254070   1.295   5.576   2.112  0.1133 -0.0040 -0.2562
10860TIP3    H154071   1.278   5.494   2.158 -0.3186  0.4352  0.3788
10860TIP3    H254072   1.291   5.552   2.019  0.1249 -0.7245 -0.0800
10861TIP3   OH254073   0.595   4.658  13.815  0.0054 -0.3066  0.1130
10861TIP3    H154074   0.656   4.662  13.742 -0.4869 -0.0868 -0.2927
10861TIP3    H254075   0.615   4.576  13.859 -0.5056 -1.0436 -0.9988
10862TIP3   OH254076   4.676   4.304   1.766  0.3785 -0.2527 -0.0219
10862TIP3    H154077   4.670   4.289   1.861  1.1139  2.9217  0.6458
10862TIP3    H254078   4.590   4.335   1.741  0.1481 -1.2145 -0.4499
10863TIP3   OH254079   5.756   3.767  14.383 -0.0333  0.1090  0.0819
10863TIP3    H154080   5.831   3.718  14.416  1.1758  2.3185  0.8638
10863TIP3    H254081   5.681   3.731  14.430  0.8261 -0.8266  0.7776
10864TIP3   OH254082   3.821   2.520  13.772 -0.4497 -0.3432  0.5310
10864TIP3    H154083   3.775   2.437  13.759 -1.2098 -0.6616  4.2039
10864TIP3    H254084   3.753   2.580  13.801  0.3078  1.3060 -0.9451
10865TIP3   OH254085   5.819   2.893   5.250  0.1752  0.1893  0.8393
10865TIP3    H154086   5.872   2.899   5.171  0.3162  0.5500  0.9581
10865TIP3    H254087   5.749   2.958   5.237 -0.0205 -0.0216  0.8433
10866TIP3   OH254088   2.251   4.357   2.377  0.2027  0.4298  0.0967
10866TIP3    H154089   2.217   4.407   2.303  1.4029 -1.3332 -1.7485
10866TIP3    H254090   2.326   4.409   2.409  0.2736  0.7355 -0.5505
10867TIP3   OH254091   1.318   2.746   4.484  0.5383  0.4903  0.2340
10867TIP3    H154092   1.404   2.737   4.524  0.4996 -0.6578  0.0825
10867TIP3    H254093   1.331   2.807   4.411  1.8244 -1.7088 -1.4635
10868TIP3   OH254094   5.744   4.692  11.254  0.4947  0.0345 -0.0248
10868TIP3    H154095   5.802   4.648  11.192 -0.0478 -0.3485 -0.2657
10868TIP3    H254096   5.778   4.781  11.258 -0.4151  0.5488 -2.1347
10869TIP3   OH254097   2.192   2.550  16.827  0.5750 -0.2273 -0.1214
10869TIP3    H154098   2.126   2.509  16.772 -0.0383  1.7761 -0.9675
10869TIP3    H254099   2.184   2.643  16.808  2.9050  0.1730  0.6006
10870TIP3   OH254100   4.234   3.197  15.511 -0.0186  0.3578 -0.3232
10870TIP3    H154101   4.269   3.200  15.422 -0.8682  2.2830 -0.6450
10870TIP3    H254102   4.147   3.158  15.501 -0.1800  0.7251 -0.3759
10871TIP3   OH254103   0.706   0.421   0.624  0.0197  0.4431 -0.1324
10871TIP3    H154104   0.614   0.397   0.634  0.3232 -0.9184 -0.3798
10871TIP3    H254105   0.705   0.515   0.609 -1.3617  0.3820 -0.5338
10872TIP3   OH254106   4.539   1.649   3.272 -0.0051  0.0793 -0.3964
10872TIP3    H154107   4.571   1.625   3.185 -0.7642 -0.6987 -0.4718
10872TIP3    H254108   4.593   1.597   3.332  0.5339  0.6332 -0.3899
10873TIP3   OH254109   5.238   2.779  11.909  0.4320 -0.4175 -0.0212
10873TIP3    H154110   5.260   2.859  11.861 -0.1984  0.6939  1.4435
10873TIP3    H254111   5.300   2.777  11.982  1.4127 -2.0973 -0.8648
10874TIP3   OH254112   4.636   0.654  11.199 -0.2463 -0.3908 -0.1775
10874TIP3    H154113   4.696   0.648  11.273  1.1566 -0.5407 -1.2917
10874TIP3    H254114   4.675   0.720  11.142 -1.4773 -0.0500 -0.6470
10875TIP3   OH254115   3.863   5.071  15.570 -0.4787 -0.2892  0.1601
10875TIP3    H154116   3.933   5.075  15.506 -0.6452 -0.3757 -0.0278
10875TIP3    H254117   3.878   5.147  15.627 -3.0360  2.7286 -2.7813
10876TIP3   OH254118   1.802   2.324   4.170 -0.2085  0.3718  0.1047
10876TIP3    H154119   1.729   2.273   4.135 -0.3551 -0.7804  1.9483
10876TIP3    H254120   1.875   2.262   4.171  0.3126  0.9712  0.0162
10877TIP3   OH254121   4.857   4.416  13.366  0.0513  0.5677 -0.1260
10877TIP3    H154122   4.891   4.337  13.408  1.5223  2.1176  1.7426
10877TIP3    H254123   4.781   4.441  13.419  0.9082  1.5935  0.6580
10878TIP3   OH254124   5.395   1.133  12.755  0.1168 -0.4689 -0.3498
10878TIP3    H154125   5.358   1.160  12.671 -1.0708 -0.2059  0.2415
10878TIP3    H254126   5.387   1.038  12.755  1.5987 -0.6235 -1.1912
10879TIP3   OH254127   4.743   0.525  13.413 -0.1354  0.2691 -0.2078
10879TIP3    H154128   4.685   0.527  13.337 -0.0494  1.0898 -0.2615
10879TIP3    H254129   4.725   0.608  13.459  2.1052  1.3153 -1.0759
10880TIP3   OH254130   5.388   2.277   5.103 -0.1838 -0.1311  0.1782
10880TIP3    H154131   5.471   2.269   5.148 -0.5943  0.3632  1.0264
10880TIP3    H254132   5.341   2.346   5.149 -2.1331 -2.1392  1.4314
10881TIP3   OH254133   3.295   5.865   1.267  0.3259  0.0656  0.3430
10881TIP3    H154134   3.294   5.786   1.322  0.9932 -0.6975 -0.6970
10881TIP3    H254135   3.256   5.838   1.184 -0.3667  1.1161  0.2997
10882TIP3   OH254136   5.457   6.333   3.450 -0.2671  0.6547  0.5007
10882TIP3    H154137   5.499   6.293   3.374 -0.8612  0.5461  0.2247
10882TIP3    H254138   5.363   6.327   3.432 -0.3828  2.8324  0.1062
10883TIP3   OH254139   6.855   5.661   2.838  0.0774 -0.6637 -0.2064
10883TIP3    H154140   6.834   5.569   2.858  0.1848 -0.6671 -0.1096
10883TIP3    H254141   6.769   5.704   2.833 -0.0140 -0.9456 -1.1221
10884TIP3   OH254142   0.408   1.990  11.080 -0.0603 -0.2842 -0.2359
10884TIP3    H154143   0.500   1.986  11.052  0.2578  0.2636  0.6684
10884TIP3    H254144   0.374   2.069  11.038  0.5044  0.7149  1.1117
10885TIP3   OH254145   6.259   1.779   0.752 -0.0548  1.0208 -0.1252
10885TIP3    H154146   6.327   1.832   0.710 -1.4944  1.8133 -1.5614
10885TIP3    H254147   6.276   1.788   0.845  1.7003  1.3300 -0.4423
10886TIP3   OH254148   3.989   2.207  12.833  0.5493 -0.1102  0.3125
10886TIP3    H154149   3.900   2.237  12.813  1.0809  0.9750 -0.4990
10886TIP3    H254150   4.032   2.283  12.872  1.1138 -0.6529  0.7638
10887TIP3   OH254151   0.909   6.021  10.529 -0.2222  0.4745 -0.0699
10887TIP3    H154152   0.818   5.997  10.541 -0.1585  0.0336 -0.4532
10887TIP3    H254153   0.910   6.070  10.446  0.0130 -0.2151 -0.4795
10888TIP3   OH254154   2.832   6.638  16.763  0.5292  0.0023 -0.3738
10888TIP3    H154155   2.742   6.670  16.760  0.5827  0.1668 -0.2760
10888TIP3    H254156   2.880   6.696  16.704  0.9697  1.2455  1.1333
10889TIP3   OH254157   4.717   5.382   1.463  0.2143  0.0211 -0.1814
10889TIP3    H154158   4.713   5.292   1.493  3.4239  0.0770  0.7548
10889TIP3    H254159   4.724   5.375   1.368 -3.3075 -0.4318 -0.5468
10890TIP3   OH254160   4.549   6.544   1.430 -0.0620  0.7115  0.0656
10890TIP3    H154161   4.577   6.455   1.449  2.1763  1.4328  0.3824
10890TIP3    H254162   4.579   6.561   1.341 -1.6244  0.7539 -0.4878
10891TIP3   OH254163   4.788   3.027  11.949  0.2559  0.1725 -0.0880
10891TIP3    H154164   4.695   3.037  11.972 -0.4234  1.5446 -3.0021
10891TIP3    H254165   4.793   2.942  11.905  0.4944 -0.1020  0.4603
10892TIP3   OH254166   2.524   1.840  12.966 -0.0491  0.6327  0.3522
10892TIP3    H154167   2.563   1.756  12.940 -0.7944  0.7523 -1.2484
10892TIP3    H254168   2.543   1.847  13.060  1.9557 -0.2701  0.0637
10893TIP3   OH254169   4.215   0.989   3.650 -0.2584 -0.0585  0.3025
10893TIP3    H154170   4.220   0.894   3.636  1.4508  0.0606 -0.1297
10893TIP3    H254171   4.297   1.023   3.612 -1.3190  1.7156 -0.5072
10894TIP3   OH254172   1.820   2.111  12.293  0.0020 -0.0012 -0.5410
10894TIP3    H154173   1.785   2.062  12.218  0.8582 -1.1237 -0.2348
10894TIP3    H254174   1.884   2.052  12.333 -0.5109  0.5132  1.1472
10895TIP3   OH254175   4.110   3.620  10.977 -0.2138  0.5777 -0.3916
10895TIP3    H154176   4.093   3.714  10.972 -0.1600  0.5908 -0.3367
10895TIP3    H254177   4.185   3.605  10.919  1.5472  1.0176  1.6235
10896TIP3   OH254178   0.339   2.548  11.699 -0.1058  0.2293 -0.1129
10896TIP3    H154179   0.424   2.548  11.742 -1.1792  0.6665  2.1688
10896TIP3    H254180   0.349   2.608  11.625  1.0905  1.6763  1.1515
10897TIP3   OH254181   0.456   2.207  14.632  0.4757  0.1954 -0.5193
10897TIP3    H154182   0.388   2.267  14.603  2.4592  2.7850 -0.1505
10897TIP3    H254183   0.534   2.232  14.582  1.7538 -1.1579  0.6699
10898TIP3   OH254184   1.975   4.562   0.338  0.4067  0.0416  0.3329
10898TIP3    H154185   1.965   4.502   0.412  0.3550 -0.4498 -0.0696
10898TIP3    H254186   1.975   4.505   0.261  2.1183  0.3829  0.0382
10899TIP3   OH254187   2.306   6.245  13.745  0.0879 -0.1904  0.0073
10899TIP3    H154188   2.243   6.299  13.793 -0.1068 -2.0202  1.9672
10899TIP3    H254189   2.389   6.259  13.790  0.2935 -0.5850 -0.2390
10900TIP3   OH254190   0.656   2.672   4.115 -0.1987  0.7912  0.0580
10900TIP3    H154191   0.721   2.627   4.170 -0.1352 -0.5212 -1.0467
10900TIP3    H254192   0.594   2.710   4.178 -0.4921 -1.2132  1.0719
10901TIP3   OH254193   5.307   1.836  10.731 -0.2236  0.1533  0.1764
10901TIP3    H154194   5.370   1.774  10.694  0.8278  0.8987  0.6602
10901TIP3    H254195   5.360   1.913  10.754 -1.6222  1.6133 -1.2633
10902TIP3   OH254196   2.445   6.829  13.901 -0.3915 -0.2967 -0.0464
10902TIP3    H154197   2.449   6.736  13.880  0.8289 -0.4557  0.8382
10902TIP3    H254198   2.530   6.850  13.938 -0.5488  1.2477 -0.4754
10903TIP3   OH254199   5.618   5.433  12.689 -0.1367  0.5021  0.4834
10903TIP3    H154200   5.612   5.525  12.663  0.7621  0.7924  1.2825
10903TIP3    H254201   5.638   5.386  12.607  1.2289  1.2380  0.3658
10904TIP3   OH254202   4.524   5.831  14.350 -0.4106  0.0779 -0.5306
10904TIP3    H154203   4.439   5.790  14.331 -0.8146  0.4315  0.4572
10904TIP3    H254204   4.565   5.841  14.264 -0.8609 -1.1790 -0.9135
10905TIP3   OH254205   5.068   6.489  13.471 -0.4184 -0.3765  0.8080
10905TIP3    H154206   5.152   6.453  13.441 -0.6912  0.0462 -0.5610
10905TIP3    H254207   5.037   6.428  13.537 -0.1825 -1.8795 -0.4307
10906TIP3   OH254208   4.041   2.855  11.858  0.0029  0.1465 -0.1855
10906TIP3    H154209   4.066   2.851  11.766 -1.9040  1.0676 -0.8050
10906TIP3    H254210   3.945   2.859  11.857 -0.0704  0.2507  1.8408
10907TIP3   OH254211   5.412   5.697  12.853 -0.3782 -0.5397 -0.2843
10907TIP3    H154212   5.386   5.606  12.862 -1.0698 -0.1585  2.2367
10907TIP3    H254213   5.379   5.723  12.767 -2.5587 -1.9166  0.0652
10908TIP3   OH254214   4.241   2.713   2.785  0.2441  0.2948  0.2395
10908TIP3    H154215   4.322   2.717   2.836 -0.4851 -0.8972  1.5632
10908TIP3    H254216   4.262   2.654   2.712  0.6523  0.2219  0.4120
10909TIP3   OH254217   0.473   3.083  14.826 -0.3072  0.4068 -0.4640
10909TIP3    H154218   0.406   3.134  14.872  0.8360  0.7469  0.8889
10909TIP3    H254219   0.555   3.130  14.844  0.9808 -2.4147  1.7787
10910TIP3   OH254220   6.754   2.120   0.679 -0.3917  0.3102 -0.0793
10910TIP3    H154221   6.826   2.178   0.651 -0.0073  0.0450  0.3503
10910TIP3    H254222   6.796   2.056   0.736 -0.9674  0.1278  0.1421
10911TIP3   OH254223   3.827   1.795  12.465  0.4745 -0.0312  0.3573
10911TIP3    H154224   3.764   1.818  12.397  0.2127 -1.7947 -0.0247
10911TIP3    H254225   3.840   1.877  12.513 -1.1686  0.6715 -0.3044
10912TIP3   OH254226   2.817   5.815   4.278  0.1748 -0.0233  0.6742
10912TIP3    H154227   2.810   5.755   4.352 -2.9859 -2.4487 -1.3598
10912TIP3    H254228   2.873   5.769   4.216  0.0493  0.4483  0.2082
10913TIP3   OH254229   0.171   2.833   2.554 -0.2126  0.3827  0.7269
10913TIP3    H154230   0.079   2.811   2.541  0.0855 -1.4593  1.4154
10913TIP3    H254231   0.206   2.840   2.465 -0.9858  1.0700  0.4588
10914TIP3   OH254232   2.172   1.131   4.969  0.3054 -0.2350 -0.4544
10914TIP3    H154233   2.103   1.195   4.947  0.9884  1.1712  1.2459
10914TIP3    H254234   2.252   1.183   4.976  1.3143 -1.6401 -1.1074
10915TIP3   OH254235   1.749   6.139   0.867 -0.4021  0.6628 -0.1739
10915TIP3    H154236   1.693   6.077   0.820 -0.4923  1.0769 -0.6143
10915TIP3    H254237   1.693   6.175   0.936  0.2353 -1.3119  1.4967
10916TIP3   OH254238   3.251   1.669  10.248 -0.2350  0.3166 -0.1623
10916TIP3    H154239   3.266   1.619  10.328 -2.5319 -0.7926 -0.3340
10916TIP3    H254240   3.164   1.708  10.260  0.3279  2.0093 -1.2073
10917TIP3   OH254241   4.457   6.328  16.892  0.0619  0.0324  0.5664
10917TIP3    H154242   4.540   6.375  16.886  0.0078 -0.0156 -0.7869
10917TIP3    H254243   4.474   6.244  16.849 -0.9358  0.3860 -0.5519
10918TIP3   OH254244   2.086   2.983   0.220  0.0755  0.2270 -0.0461
10918TIP3    H154245   2.079   2.888   0.227  1.0021  0.2523  3.0445
10918TIP3    H254246   2.167   2.999   0.173  0.3509 -0.5483  0.1576
10919TIP3   OH254247   1.743   3.124  16.004  0.1692  0.0463 -0.0714
10919TIP3    H154248   1.717   3.198  15.949 -0.5736 -0.5487 -0.5228
10919TIP3    H254249   1.702   3.142  16.089  1.3341  0.9731  0.3352
10920TIP3   OH254250   4.561   0.414   5.141  0.2608 -0.1309 -0.9673
10920TIP3    H154251   4.523   0.330   5.116 -2.6810  0.7635  0.1380
10920TIP3    H254252   4.591   0.401   5.231  2.6967 -0.7974 -1.7941
10921TIP3   OH254253   4.921   5.191  12.205  0.1622 -0.1354  0.1299
10921TIP3    H154254   4.896   5.275  12.166  0.2762 -0.6178 -1.0128
10921TIP3    H254255   4.953   5.139  12.132  0.9927 -0.8507  0.9690
10922TIP3   OH254256   3.456   2.332  14.778 -0.3675  0.2184 -0.2215
10922TIP3    H154257   3.523   2.277  14.737  0.5850  0.3114  1.1158
10922TIP3    H254258   3.381   2.273  14.790 -1.3533  0.6123 -3.5172
10923TIP3   OH254259   3.467   1.503   1.861 -0.1160  0.0280  0.1140
10923TIP3    H154260   3.449   1.417   1.899 -0.6532 -0.1572 -0.5418
10923TIP3    H254261   3.399   1.514   1.794 -0.1805  1.0559  0.3458
10924TIP3   OH254262   5.768   2.798   3.285  0.3691  0.1278  0.1545
10924TIP3    H154263   5.843   2.761   3.332 -0.2631  0.0996  1.1782
10924TIP3    H254264   5.696   2.792   3.347 -0.4096  0.4665 -0.6941
10925TIP3   OH254265   2.904   4.802  12.297 -0.0911  0.7560 -0.1515
10925TIP3    H154266   2.847   4.734  12.333 -0.4110  0.9144 -0.3489
10925TIP3    H254267   2.959   4.756  12.234 -0.1197  0.6296 -0.0841
10926TIP3   OH254268   0.038   4.835   2.657 -0.4619 -0.5237 -0.6026
10926TIP3    H154269   0.089   4.783   2.594 -0.3512 -0.2770 -0.7176
10926TIP3    H254270   0.104   4.881   2.709 -0.4664 -2.3051  1.0919
10927TIP3   OH254271   4.783   2.472   3.497  0.4874  0.1277  0.2450
10927TIP3    H154272   4.853   2.417   3.531 -0.1981  0.3696  2.2044
10927TIP3    H254273   4.721   2.410   3.459  1.1887 -0.1830 -0.4073
10928TIP3   OH254274   6.823   2.858  15.026 -0.1984 -0.0897 -0.0506
10928TIP3    H154275   6.895   2.813  15.070 -1.0030 -0.5637  0.8228
10928TIP3    H254276   6.785   2.915  15.094 -0.5607  0.2595 -0.5372
10929TIP3   OH254277   3.983   1.783   2.206  0.2753  0.0842 -0.1110
10929TIP3    H154278   3.964   1.870   2.170 -0.5269 -0.0662 -0.0657
10929TIP3    H254279   3.989   1.726   2.129 -2.3109 -0.4070 -0.0204
10930TIP3   OH254280   6.532   3.062  16.687  0.2337 -0.0555 -0.3293
10930TIP3    H154281   6.491   3.145  16.664  0.8859  0.4251  0.2031
10930TIP3    H254282   6.624   3.085  16.704  0.2930 -0.7880  0.3747
10931TIP3   OH254283   3.040   0.397   5.605  0.1376  0.1038 -0.1607
10931TIP3    H154284   3.066   0.381   5.696 -0.5613 -0.2916 -0.0255
10931TIP3    H254285   2.982   0.473   5.610 -2.0582 -1.5123  0.0943
10932TIP3   OH254286   0.519   5.790  11.049  0.4919  0.4123 -0.1288
10932TIP3    H154287   0.444   5.847  11.033  0.4132  0.3453 -0.0029
10932TIP3    H254288   0.486   5.701  11.035  0.2516  0.3093  0.9898
10933TIP3   OH254289   1.846   4.730  16.668  0.5150  0.2832  0.0997
10933TIP3    H154290   1.899   4.664  16.713  1.4303  1.3863  0.6950
10933TIP3    H254291   1.795   4.771  16.738  0.2780  0.5171 -0.2076
10934TIP3   OH254292   2.710   2.634   3.731 -0.1824  0.0515 -0.0822
10934TIP3    H154293   2.758   2.630   3.813  0.5131  1.1210 -0.4174
10934TIP3    H254294   2.673   2.722   3.729 -0.7854 -0.2059 -0.5956
10935TIP3   OH254295   3.842   2.885   0.365  0.0978  0.2898  0.3715
10935TIP3    H154296   3.792   2.964   0.383 -1.3185  0.2637 -2.7848
10935TIP3    H254297   3.933   2.915   0.358 -0.1098  1.2037  1.4485
10936TIP3   OH254298   0.832   1.639  14.417  0.4263  0.0042 -0.1357
10936TIP3    H154299   0.777   1.594  14.481 -0.3935  0.9342 -0.1623
10936TIP3    H254300   0.785   1.629  14.334  0.6443  0.2110 -0.2854
10937TIP3   OH254301   2.370   0.712  13.448 -0.2274 -0.2183 -0.0540
10937TIP3    H154302   2.336   0.646  13.388 -1.6180  0.3523  0.0481
10937TIP3    H254303   2.307   0.785  13.441  1.8717  1.6044 -1.0377
10938TIP3   OH254304   5.055   4.861   3.104  0.3966 -0.1391 -0.0363
10938TIP3    H154305   5.124   4.805   3.068 -0.5647  0.2593 -2.7518
10938TIP3    H254306   4.975   4.810   3.093 -0.2289  0.9440 -0.7051
10939TIP3   OH254307   3.404   6.317  17.082 -0.2008 -0.5948  0.3578
10939TIP3    H154308   3.416   6.242  17.140  0.1317 -0.4698  0.4527
10939TIP3    H254309   3.312   6.339  17.091 -0.1414 -0.5449  0.8814
10940TIP3   OH254310   6.494   4.426   1.014 -0.2948 -0.1370 -0.6518
10940TIP3    H154311   6.447   4.418   1.097 -1.0454  0.0362 -1.0512
10940TIP3    H254312   6.558   4.495   1.029 -0.0471 -0.4875 -0.0517
10941TIP3   OH254313   6.192   3.468  15.072  0.9087 -0.3659  0.1664
10941TIP3    H154314   6.143   3.512  15.143  1.4405 -0.0432  0.3398
10941TIP3    H254315   6.167   3.516  14.993  1.1061 -0.0696  0.2841
10942TIP3   OH254316   5.167   3.902  15.695 -0.5977  0.2277 -0.0290
10942TIP3    H154317   5.126   3.941  15.619 -0.0336  1.3518  0.2280
10942TIP3    H254318   5.097   3.851  15.737 -0.9330 -0.3168 -1.2149
10943TIP3   OH254319   0.011   3.694  12.909  0.4951 -0.1281 -0.2063
10943TIP3    H154320   0.005   3.785  12.878  1.8699 -0.3353 -1.1827
10943TIP3    H254321  -0.076   3.658  12.892  0.7222  0.2253 -2.5469
10944TIP3   OH254322   6.151   1.205  12.269  0.4355 -0.2912  0.0770
10944TIP3    H154323   6.188   1.272  12.327  1.1512 -0.5074 -0.1230
10944TIP3    H254324   6.084   1.251  12.219 -0.4612 -0.1807  1.3279
10945TIP3   OH254325   1.196   5.576   3.320  0.1019  0.4723  0.4277
10945TIP3    H154326   1.192   5.649   3.258  1.6967 -0.3889 -0.7522
10945TIP3    H254327   1.129   5.596   3.385  1.3407  3.6583  0.8805
10946TIP3   OH254328   4.639   3.514   0.751 -0.3677  0.2178 -0.1129
10946TIP3    H154329   4.648   3.606   0.776  0.3268  0.4141 -1.0383
10946TIP3    H254330   4.579   3.515   0.677  0.5250  0.0500 -0.8465
10947TIP3   OH254331   4.026   4.827   5.783  0.2009 -0.1802  0.2631
10947TIP3    H154332   4.082   4.900   5.758  0.3618 -0.4721 -0.2569
10947TIP3    H254333   4.028   4.769   5.706 -1.2356  0.0528  0.0336
10948TIP3   OH254334   4.721   4.335   4.448 -0.8227  0.3099  0.0127
10948TIP3    H154335   4.722   4.392   4.371 -0.4357  0.2097 -0.0587
10948TIP3    H254336   4.721   4.246   4.412  2.9580  0.1082  0.0132
10949TIP3   OH254337   6.166   5.357   4.183 -0.3991 -0.2665 -0.3549
10949TIP3    H154338   6.200   5.439   4.147 -0.7300  0.0695  0.0871
10949TIP3    H254339   6.075   5.354   4.154 -0.9516  0.4798  1.2161
10950TIP3   OH254340   6.462   1.933  14.756  0.3811  0.0836 -0.0610
10950TIP3    H154341   6.533   1.919  14.694  0.2001  1.6324 -0.6656
10950TIP3    H254342   6.451   2.028  14.760 -3.0977 -0.0865 -1.6907
10951TIP3   OH254343   6.240   5.576  15.147 -0.4168 -0.7435 -0.0772
10951TIP3    H154344   6.177   5.582  15.219 -0.1674  1.8626  0.0094
10951TIP3    H254345   6.321   5.544  15.188 -1.0215 -1.8920  0.2464
10952TIP3   OH254346   4.193   4.098  10.423  0.0397  0.0552 -0.5714
10952TIP3    H154347   4.286   4.099  10.399 -0.0857  2.7414 -1.2228
10952TIP3    H254348   4.147   4.120  10.341 -1.0072  0.9671  0.2350
10953TIP3   OH254349   3.480   1.654  11.966  0.0497  0.5518 -1.1035
10953TIP3    H154350   3.499   1.726  12.026 -1.3768  1.4055 -1.6002
10953TIP3    H254351   3.565   1.625  11.933  1.1180 -1.3550  2.8079
10954TIP3   OH254352   6.692   4.237  13.429 -0.1961 -0.6640 -0.5809
10954TIP3    H154353   6.742   4.291  13.368  0.3234 -0.8332 -0.3176
10954TIP3    H254354   6.732   4.254  13.514 -0.0600 -1.4061 -0.4834
10955TIP3   OH254355   4.726   0.766  13.978 -0.3075  0.2710  0.1278
10955TIP3    H154356   4.710   0.703  14.049 -0.1477 -0.6916 -0.6713
10955TIP3    H254357   4.652   0.827  13.983 -0.0725  0.4820  1.3871
10956TIP3   OH254358   4.014   3.815   5.370  0.1982 -0.2767 -0.0740
10956TIP3    H154359   4.093   3.846   5.415 -0.1336 -0.6818  0.8198
10956TIP3    H254360   3.965   3.894   5.348  0.7527 -0.0323 -0.4639
10957TIP3   OH254361   6.152   6.465   5.815  0.0946 -0.1995 -0.1663
10957TIP3    H154362   6.070   6.445   5.770  1.5154 -2.0131 -2.1185
10957TIP3    H254363   6.146   6.417   5.898 -0.5970 -0.7819 -0.5447
10958TIP3   OH254364   5.469   5.018   5.721  0.3456  0.3595 -0.5333
10958TIP3    H154365   5.490   4.964   5.797  0.4809  0.3075 -0.6069
10958TIP3    H254366   5.554   5.048   5.689  0.3568 -0.3291 -1.1806
10959TIP3   OH254367   0.300   2.568  12.316  0.4126 -0.0142  0.2366
10959TIP3    H154368   0.237   2.631  12.282  1.9165  1.1461 -0.5483
10959TIP3    H254369   0.263   2.482  12.295 -0.8745  0.6310 -0.2118
10960TIP3   OH254370   3.787   4.559   0.221 -0.0858  0.1859  0.3232
10960TIP3    H154371   3.804   4.544   0.314  1.5842 -0.2571 -0.0124
10960TIP3    H254372   3.699   4.524   0.206 -0.9870  1.5692  2.0047
10961TIP3   OH254373   2.013   2.693  15.848 -0.5739  0.2570  0.5286
10961TIP3    H154374   2.088   2.633  15.858 -0.9987 -0.2269  0.8533
10961TIP3    H254375   2.027   2.760  15.914 -0.0010  0.6242  0.0474
10962TIP3   OH254376   5.898   5.717   4.740  0.0063  0.0154  0.6939
10962TIP3    H154377   5.960   5.670   4.684 -0.0266 -1.3197  1.7299
10962TIP3    H254378   5.937   5.804   4.750  0.0235  0.3032 -1.3337
10963TIP3   OH254379   2.528   4.951   0.375  0.4863 -0.2425  0.1826
10963TIP3    H154380   2.453   4.995   0.335  0.7990  0.5031  0.4111
10963TIP3    H254381   2.603   5.005   0.353  0.6987  0.0746  1.5818
10964TIP3   OH254382   3.921   1.641   1.950 -0.2746  0.3457 -0.8468
10964TIP3    H154383   3.905   1.665   1.859 -0.6802  2.2579 -0.3105
10964TIP3    H254384   3.836   1.650   1.992 -0.0905 -0.5367 -0.2702
10965TIP3   OH254385   5.329   2.385  10.678  0.4250 -0.2484  0.2368
10965TIP3    H154386   5.392   2.439  10.630  0.0285 -0.4073 -0.4734
10965TIP3    H254387   5.299   2.321  10.614 -0.9051  0.1889  0.3901
10966TIP3   OH254388   2.600   4.683   1.626 -0.5216  0.0248 -0.3976
10966TIP3    H154389   2.657   4.757   1.647 -1.5376  0.8349 -0.4589
10966TIP3    H254390   2.646   4.638   1.555 -0.1457  0.9019 -0.7241
10967TIP3   OH254391   1.493   3.548  15.314 -0.1364  0.0700 -0.4951
10967TIP3    H154392   1.442   3.477  15.274 -0.2774 -0.1402  0.0446
10967TIP3    H254393   1.476   3.624  15.259 -3.1805  0.7014  1.1210
10968TIP3   OH254394   3.513   1.234  16.942 -1.3793  0.3050  0.0167
10968TIP3    H154395   3.576   1.288  16.990 -0.4297 -0.2788 -0.5416
10968TIP3    H254396   3.493   1.162  17.001 -1.4840  0.4611  0.1734
10969TIP3   OH254397   6.718   4.062   2.696 -0.4500  0.1468 -0.0900
10969TIP3    H154398   6.724   4.147   2.654 -1.0474  0.2645  0.0451
10969TIP3    H254399   6.774   4.005   2.644  1.4028  1.0062  0.8369
10970TIP3   OH254400   5.516   3.599  16.553  0.5931 -0.3180 -0.2144
10970TIP3    H154401   5.590   3.639  16.600  0.1428 -0.1055  0.3230
10970TIP3    H254402   5.470   3.549  16.621  0.1074 -0.2517 -0.4934
10971TIP3   OH254403   0.256   5.333  11.408  0.1317 -0.3290 -0.7993
10971TIP3    H154404   0.205   5.397  11.457 -2.3900 -1.3275 -1.9874
10971TIP3    H254405   0.312   5.292  11.474  2.0091  3.1062 -0.0213
10972TIP3   OH254406   5.362   4.926  15.048  0.6666  0.1509  0.0907
10972TIP3    H154407   5.300   4.941  15.119 -0.3913 -2.3785 -0.2019
10972TIP3    H254408   5.419   5.003  15.049 -2.7854  2.9844 -0.0036
10973TIP3   OH254409   6.849   6.719   4.734 -0.1537 -0.0611  0.0348
10973TIP3    H154410   6.936   6.681   4.719 -0.5818 -0.4941 -1.4845
10973TIP3    H254411   6.809   6.662   4.800 -0.2131 -1.4113 -1.1057
10974TIP3   OH254412   0.750   4.477  10.178 -0.2152 -0.0136 -0.4501
10974TIP3    H154413   0.767   4.567  10.203 -1.4842 -0.6706  3.5061
10974TIP3    H254414   0.665   4.480  10.132  0.4794  0.9018 -1.7320
10975TIP3   OH254415   1.068   4.652  12.955  0.3876  0.1421  0.4225
10975TIP3    H154416   1.092   4.567  12.991 -0.1608 -0.0196  0.4040
10975TIP3    H254417   0.973   4.652  12.954  0.3047  1.7725  2.8314
10976TIP3   OH254418   1.571   3.157  11.635  0.1679 -0.4282 -0.7539
10976TIP3    H154419   1.511   3.090  11.602 -0.8667 -0.3837  0.9217
10976TIP3    H254420   1.516   3.212  11.691  1.2330  1.1849 -1.2514
10977TIP3   OH254421   6.620   5.723   5.864  0.1732  0.1039  0.2641
10977TIP3    H154422   6.635   5.806   5.819 -1.2383 -0.0675 -0.5954
10977TIP3    H254423   6.707   5.689   5.883  0.7863  1.0004 -0.8555
10978TIP3   OH254424   4.022   2.970   4.781 -0.0244 -0.2547  0.3050
10978TIP3    H154425   4.010   2.975   4.876 -1.3833 -0.6015  0.1759
10978TIP3    H254426   3.933   2.969   4.746  0.4575  0.5592 -1.0200
10979TIP3   OH254427   1.611   6.719   3.171 -0.2131  0.4211 -0.4480
10979TIP3    H154428   1.665   6.798   3.178  3.4259 -1.9043  0.7017
10979TIP3    H254429   1.586   6.699   3.261 -1.1583  0.2736 -0.7350
10980TIP3   OH254430   0.642   5.915  14.231 -0.0525 -0.2989 -0.4129
10980TIP3    H154431   0.554   5.888  14.204 -0.6389  0.9791  0.1350
10980TIP3    H254432   0.628   5.970  14.307  1.1341  0.7988 -0.9489
10981TIP3   OH254433   5.028   1.715  11.197 -0.4324  0.1643 -0.1273
10981TIP3    H154434   4.997   1.663  11.271  0.8049  1.3387  1.2807
10981TIP3    H254435   5.123   1.710  11.203 -0.3084 -0.0421 -1.9085
10982TIP3   OH254436   5.709   1.476   2.351  0.3231 -0.4999 -0.3094
10982TIP3    H154437   5.798   1.484   2.384  0.1323 -1.5307  0.5425
10982TIP3    H254438   5.718   1.469   2.256  1.1707 -0.7644 -0.2131
10983TIP3   OH254439   4.670   2.196   3.637  0.9299  0.3687 -0.3634
10983TIP3    H154440   4.750   2.236   3.603  1.6545 -0.5094  0.2538
10983TIP3    H254441   4.665   2.111   3.592  0.1559  0.5575 -0.6476
10984TIP3   OH254442   4.002   4.610   0.076 -0.2080 -0.2825  0.5538
10984TIP3    H154443   3.910   4.600   0.104 -0.1082 -0.6976  0.7403
10984TIP3    H254444   4.041   4.668   0.142 -0.3311 -0.1126  0.4795
10985TIP3   OH254445   3.720   0.291  15.360 -0.0914  0.0697 -0.3499
10985TIP3    H154446   3.767   0.232  15.301  0.6950  0.1375  0.2059
10985TIP3    H254447   3.694   0.364  15.305 -0.5101 -0.4842 -0.9027
10986TIP3   OH254448   3.420   6.303   0.852 -0.4317  0.0598 -0.0490
10986TIP3    H154449   3.457   6.331   0.936  0.1218  0.1105 -0.3023
10986TIP3    H254450   3.456   6.215   0.839 -2.0643 -0.7523  0.6911
10987TIP3   OH254451   4.030   0.623  13.524  0.1710 -0.8622  0.2167
10987TIP3    H154452   4.013   0.702  13.575 -0.6267 -0.4111 -0.7299
10987TIP3    H254453   4.113   0.589  13.559 -0.7246 -1.0104  2.3417
10988TIP3   OH254454   6.067   0.194  12.027  0.6931  0.1817  0.7668
10988TIP3    H154455   6.156   0.219  12.051  0.6670  0.1279  0.9207
10988TIP3    H254456   6.012   0.233  12.095  0.5729  0.4489  0.5217
10989TIP3   OH254457   0.619   6.661  14.788 -0.0279  0.4210  0.0906
10989TIP3    H154458   0.573   6.679  14.706  0.0442  1.2678  0.2315
10989TIP3    H254459   0.627   6.746  14.831  0.2187  0.0360  0.8338
10990TIP3   OH254460   4.558   2.433   2.065  0.0917 -0.5434  0.2795
10990TIP3    H154461   4.503   2.355   2.072 -1.5684  0.3619 -1.6968
10990TIP3    H254462   4.631   2.406   2.009  0.5361 -1.1577  1.1342
10991TIP3   OH254463   5.889   5.185   1.167  0.6043  0.2572  0.4633
10991TIP3    H154464   5.822   5.253   1.177  0.8740  0.6914 -0.5546
10991TIP3    H254465   5.962   5.215   1.222 -0.1214 -0.3715  1.8218
10992TIP3   OH254466   1.922   0.699   5.195  0.0785 -0.2999  0.5592
10992TIP3    H154467   2.016   0.711   5.201  0.1228 -0.2323 -0.2164
10992TIP3    H254468   1.907   0.610   5.227  0.6109 -0.9511 -0.9015
10993TIP3   OH254469   5.657   1.804   5.997  0.1260  0.2959 -0.2372
10993TIP3    H154470   5.573   1.759   6.000  0.1022  0.3590  0.0594
10993TIP3    H254471   5.721   1.735   6.013 -0.0154  0.6958  2.6820
10994TIP3   OH254472   1.884   5.832  15.879  0.0622  0.0762 -0.0131
10994TIP3    H154473   1.860   5.873  15.962  1.4077 -0.2304  0.5424
10994TIP3    H254474   1.909   5.742  15.903  1.9395  0.4255 -0.5083
10995TIP3   OH254475   5.712   4.424  14.896  0.3316  0.5820 -0.1459
10995TIP3    H154476   5.696   4.475  14.817 -3.1248 -1.3042 -0.8762
10995TIP3    H254477   5.754   4.344  14.865 -1.0929 -0.1908 -0.1388
10996TIP3   OH254478   6.096   1.093  16.533  0.2853  0.0363  0.2944
10996TIP3    H154479   6.050   1.136  16.605 -1.3649  3.2717 -2.4154
10996TIP3    H254480   6.180   1.138  16.528 -0.3958  1.2477 -0.9196
10997TIP3   OH254481   2.840   0.160  16.062  0.4899 -0.0717  0.3411
10997TIP3    H154482   2.774   0.142  15.995 -1.7704 -0.7876  2.5902
10997TIP3    H254483   2.908   0.094  16.047  0.6830  0.5308 -1.8912
10998TIP3   OH254484   1.361   5.471   0.325  0.2043  0.1376 -0.0980
10998TIP3    H154485   1.415   5.514   0.391 -0.4663 -1.0849  1.3072
10998TIP3    H254486   1.420   5.459   0.250  0.8675  1.9119  0.0824
10999TIP3   OH254487   0.682   2.364  11.108 -0.0701  0.2576 -0.1452
10999TIP3    H154488   0.652   2.453  11.087  0.4117  0.2512 -0.8802
10999TIP3    H254489   0.724   2.333  11.028 -0.4809 -0.7458  0.0107
11000TIP3   OH254490   5.348   6.846   5.160  0.2837  0.0931  0.1830
11000TIP3    H154491   5.306   6.928   5.132 -0.3527 -0.3409 -0.1468
11000TIP3    H254492   5.282   6.779   5.147  0.4094 -0.3212  1.5284
11001TIP3   OH254493   3.720   4.526   0.511  1.0889  0.0434 -0.5961
11001TIP3    H154494   3.670   4.597   0.550 -0.3969 -0.4258 -1.5651
11001TIP3    H254495   3.796   4.515   0.569 -0.9068 -0.5549  2.0895
11002TIP3   OH254496   6.284   4.327  14.614  0.1697 -0.2189  0.7608
11002TIP3    H154497   6.362   4.377  14.588  0.5464  0.2808  2.7142
11002TIP3    H254498   6.212   4.390  14.606  0.4563  0.2855  1.9890
11003TIP3   OH254499   5.739   2.382  15.634 -0.4356  0.1253  0.5818
11003TIP3    H154500   5.647   2.404  15.650 -1.7362 -1.5259 -3.4381
11003TIP3    H254501   5.777   2.462  15.598 -1.0166  0.0992 -0.1077
11004TIP3   OH254502   0.260   2.641   3.203  0.2805  0.1246 -0.4847
11004TIP3    H154503   0.287   2.613   3.115 -0.5916 -0.6134 -0.5219
11004TIP3    H254504   0.227   2.730   3.190 -0.8287 -0.3613 -1.1047
11005TIP3   OH254505   2.722   0.130   1.414 -0.2040 -0.3946 -0.2978
11005TIP3    H154506   2.676   0.048   1.398  0.9383 -0.7108 -2.2353
11005TIP3    H254507   2.814   0.109   1.403  0.1451  1.0201 -0.2576
11006TIP3   OH254508   3.810   5.133   0.268 -1.0616 -0.2001  0.5782
11006TIP3    H154509   3.824   5.202   0.333  0.8828 -0.4958  0.5531
11006TIP3    H254510   3.896   5.123   0.225 -1.2841 -2.5762  0.5455
11007TIP3   OH254511   3.075   3.146   4.488  0.6206 -0.4658  0.2212
11007TIP3    H154512   3.087   3.057   4.455 -0.4515 -0.9933  1.1760
11007TIP3    H254513   2.985   3.147   4.521  0.8611  0.7527  0.8964
11008TIP3   OH254514   2.449   2.444  11.293  0.2576  0.2133  0.6312
11008TIP3    H154515   2.508   2.421  11.221  0.1475 -1.3071  0.9908
11008TIP3    H254516   2.387   2.506  11.254  1.0410  0.4976 -0.2042
11009TIP3   OH254517   6.409   0.354   1.744 -0.2598  0.1291  0.3321
11009TIP3    H154518   6.398   0.293   1.670  1.4506  0.5517 -0.3262
11009TIP3    H254519   6.450   0.301   1.813 -1.6382 -0.2060  0.9208
11010TIP3   OH254520   1.675   0.621  12.513 -0.3729  0.3115  0.0662
11010TIP3    H154521   1.723   0.597  12.434 -1.4226  0.1725 -0.5401
11010TIP3    H254522   1.737   0.606  12.584  1.1458  1.9894 -0.8241
11011TIP3   OH254523   3.843   3.097  13.475 -0.5645  0.0883 -0.4833
11011TIP3    H154524   3.818   3.171  13.530 -0.2232  1.2020 -1.7834
11011TIP3    H254525   3.880   3.033  13.536 -0.7732  1.0206  0.6516
11012TIP3   OH254526   1.536   2.153  15.169 -0.0083  0.0482 -0.2689
11012TIP3    H154527   1.466   2.089  15.176  0.4602 -0.3900  0.4944
11012TIP3    H254528   1.583   2.148  15.252  1.0175  0.2326 -0.8140
11013TIP3   OH254529   2.420   1.827  15.077  0.1188 -0.2571 -0.0264
11013TIP3    H154530   2.512   1.813  15.054 -0.0703 -0.7425 -0.5123
11013TIP3    H254531   2.422   1.860  15.167  0.8341  0.8958 -0.4477
11014TIP3   OH254532   5.402   5.325  15.247 -0.1555 -0.1475  0.3459
11014TIP3    H154533   5.327   5.283  15.206  1.6519 -1.4729 -1.8032
11014TIP3    H254534   5.385   5.318  15.341 -1.3670 -3.0788  0.0055
11015TIP3   OH254535   3.293   1.409   4.877 -0.0974  0.3415  0.4039
11015TIP3    H154536   3.363   1.355   4.916  0.5620  1.2915  0.5658
11015TIP3    H254537   3.227   1.416   4.946  0.4351  0.8596  0.8694
11016TIP3   OH254538   1.600   0.190  15.597  0.0513 -0.0729 -0.0160
11016TIP3    H154539   1.679   0.239  15.575  0.5016  0.3678  2.3041
11016TIP3    H254540   1.557   0.242  15.665 -1.7126 -0.8247 -0.4782
11017TIP3   OH254541   6.030   2.910  13.710  0.0364 -0.7742 -0.0877
11017TIP3    H154542   6.021   2.984  13.651  2.0010 -0.9535 -0.6817
11017TIP3    H254543   6.012   2.833  13.655 -0.2163 -0.8362  0.0794
11018TIP3   OH254544   3.010   3.868   3.182  0.4232  0.0680 -0.0158
11018TIP3    H154545   2.996   3.851   3.088  1.3673 -2.6816  0.2309
11018TIP3    H254546   2.929   3.907   3.212 -1.6705 -2.9924 -1.1962
11019TIP3   OH254547   4.411   6.606  11.103  0.3348 -0.0485  0.2962
11019TIP3    H154548   4.453   6.661  11.037 -1.4130  0.2014 -0.6794
11019TIP3    H254549   4.403   6.662  11.180  1.6282 -0.0726  0.4738
11020TIP3   OH254550   0.882   6.839  11.659 -0.0475  0.3785 -0.4020
11020TIP3    H154551   0.870   6.875  11.571  1.0192  3.2804  0.5225
11020TIP3    H254552   0.857   6.911  11.717  2.8047 -0.1139  1.6252
11021TIP3   OH254553   6.243   2.743  16.353 -0.3933  0.0708  0.1011
11021TIP3    H154554   6.154   2.720  16.327  0.0529 -0.8267 -0.7314
11021TIP3    H254555   6.256   2.699  16.437  0.4171 -2.8916 -1.4233
11022TIP3   OH254556   2.403   6.295  10.473  0.5840  0.1912  0.1529
11022TIP3    H154557   2.360   6.284  10.558 -3.4570 -3.1691 -1.9323
11022TIP3    H254558   2.480   6.239  10.478 -0.1687 -0.8155  1.3441
11023TIP3   OH254559   0.389   4.479  13.125 -0.3698 -0.1733 -0.1963
11023TIP3    H154560   0.322   4.545  13.143  0.0453 -0.2309  1.7822
11023TIP3    H254561   0.340   4.406  13.086 -0.8021  1.3032 -2.6545
11024TIP3   OH254562   6.043   5.958   4.736 -0.2304  0.0188 -0.6627
11024TIP3    H154563   6.052   6.052   4.717 -0.5914  0.2000  0.0003
11024TIP3    H254564   6.131   5.923   4.727  0.4949  0.9626  1.7706
11025TIP3   OH254565   6.575   2.332   2.896  1.1391  0.3128 -0.3542
11025TIP3    H154566   6.484   2.312   2.873  1.4034 -3.2647  1.0343
11025TIP3    H254567   6.569   2.375   2.982  0.7472  0.1981 -0.3223
11026TIP3   OH254568   3.803   0.187  13.698 -0.2793  1.1477  0.0149
11026TIP3    H154569   3.745   0.146  13.763 -0.0474  1.4182  0.3908
11026TIP3    H254570   3.775   0.149  13.614 -0.2230  0.3908  0.3303
11027TIP3   OH254571   0.831   2.233   5.254 -0.9263  0.1342  0.4484
11027TIP3    H154572   0.869   2.148   5.277 -0.9553  0.4809  1.8642
11027TIP3    H254573   0.738   2.214   5.241 -0.6485 -0.3584 -1.0862
11028TIP3   OH254574   1.121   3.376   3.454  0.2638 -0.9825  0.0614
11028TIP3    H154575   1.114   3.387   3.359 -1.3570  0.2775  0.2912
11028TIP3    H254576   1.137   3.465   3.487  1.5541 -1.5092  0.9363
11029TIP3   OH254577   6.039   0.575  15.430  0.2067 -0.1209 -0.1345
11029TIP3    H154578   5.991   0.516  15.371 -0.9119  1.4633 -0.8896
11029TIP3    H254579   6.130   0.545  15.426 -0.5418 -2.8073  0.8142
11030TIP3   OH254580   2.946   3.917   2.899 -0.2579  0.3394 -0.0417
11030TIP3    H154581   3.016   3.977   2.874  0.4637 -0.1028  0.8230
11030TIP3    H254582   2.906   3.891   2.816  0.9761  0.1782 -0.6147
11031TIP3   OH254583   2.338   6.631  11.517 -0.0350  0.8248 -0.5673
11031TIP3    H154584   2.330   6.687  11.595  1.1707 -0.8084  0.8173
11031TIP3    H254585   2.306   6.546  11.546  2.7436 -0.4741 -1.0501
11032TIP3   OH254586   0.536   4.290   0.219  0.2433  0.4122 -0.1858
11032TIP3    H154587   0.554   4.302   0.312 -1.8807 -3.1809  0.8652
11032TIP3    H254588   0.508   4.377   0.188  0.2055  1.5227  2.6774
11033TIP3   OH254589   2.734   4.125   2.035 -0.1844 -0.2965  0.3240
11033TIP3    H154590   2.784   4.135   1.954 -2.0264  0.5225 -0.7740
11033TIP3    H254591   2.664   4.063   2.013 -1.1395  0.4838  1.0594
11034TIP3   OH254592   3.874   0.162  14.068  0.2028 -0.2177  0.5687
11034TIP3    H154593   3.969   0.151  14.074  0.0802 -2.2166 -0.2327
11034TIP3    H254594   3.839   0.114  14.143 -0.2173 -0.8646 -0.0293
11035TIP3   OH254595   1.513   5.102  16.122 -0.0724 -0.3815 -0.1987
11035TIP3    H154596   1.566   5.181  16.117 -0.4518 -0.0874  0.3058
11035TIP3    H254597   1.525   5.059  16.038 -0.2266  0.4498 -0.6493
11036TIP3   OH254598   4.535   3.214   2.531 -0.4996  0.3304 -0.3042
11036TIP3    H154599   4.630   3.200   2.534 -0.3829  1.2406  1.0318
11036TIP3    H254600   4.499   3.128   2.510  0.5007 -0.6374  1.6517
11037TIP3   OH254601   4.415   5.539   1.844 -0.0826  0.6556  0.4709
11037TIP3    H154602   4.400   5.445   1.855  1.4280  0.2724 -0.5229
11037TIP3    H254603   4.330   5.579   1.865 -0.8907 -0.9582  0.4210
11038TIP3   OH254604   1.189   2.352   0.368 -0.1204  0.0084 -0.1478
11038TIP3    H154605   1.222   2.386   0.285 -1.4394 -1.3573 -1.2813
11038TIP3    H254606   1.221   2.262   0.371 -0.5575 -0.1291  0.5495
11039TIP3   OH254607   3.669   1.373   4.544  0.2542 -0.2633  0.2227
11039TIP3    H154608   3.678   1.277   4.538 -1.8064 -0.5683  1.1754
11039TIP3    H254609   3.708   1.395   4.628  0.6174 -0.2620  0.0584
11040TIP3   OH254610   1.059   4.288  11.212 -0.2401  0.3988 -0.3002
11040TIP3    H154611   1.134   4.347  11.203 -0.3807  0.7158  0.4736
11040TIP3    H254612   0.988   4.344  11.245  0.4371 -0.6648  3.4565
11041TIP3   OH254613   5.641   1.862   2.251 -0.6868  0.3682  0.1789
11041TIP3    H154614   5.730   1.892   2.232 -0.1950 -0.9029  0.3925
11041TIP3    H254615   5.631   1.781   2.201 -2.0479  0.9321 -0.5345
11042TIP3   OH254616   1.452   3.351   4.321  0.0275  0.6246 -0.0883
11042TIP3    H154617   1.397   3.422   4.288  0.7759  0.4346 -1.9029
11042TIP3    H254618   1.541   3.379   4.301  0.4998  0.2187  1.3623
11043TIP3   OH254619   4.140   0.976  16.005 -0.1488  0.3715 -0.3287
11043TIP3    H154620   4.187   1.041  15.953 -0.7797  1.2957  0.2342
11043TIP3    H254621   4.208   0.912  16.028  0.7351  1.3890  0.0124
11044TIP3   OH254622   4.018   4.678   2.865 -0.5211  0.4870  0.2866
11044TIP3    H154623   4.084   4.678   2.796 -0.9202  2.2141 -0.1300
11044TIP3    H254624   3.937   4.704   2.821 -0.8798  1.1781  1.3203
11045TIP3   OH254625   0.243   0.558  10.778  0.5784  0.7364 -0.5284
11045TIP3    H154626   0.153   0.554  10.746  0.8731  0.8209 -1.3899
11045TIP3    H254627   0.278   0.640  10.743  0.7765  1.0659  0.4001
11046TIP3   OH254628   3.641   1.204   3.943 -0.0976 -0.1184 -0.0985
11046TIP3    H154629   3.641   1.141   4.015  1.4633 -1.0992 -0.9017
11046TIP3    H254630   3.561   1.255   3.956 -0.4109 -0.9746  1.6954
11047TIP3   OH254631   0.471   3.427  14.803  0.2072 -0.4752  0.0936
11047TIP3    H154632   0.470   3.474  14.886 -0.7585 -1.1698  0.4924
11047TIP3    H254633   0.550   3.373  14.807  1.6331  1.4441 -0.6010
11048TIP3   OH254634   0.157   6.270  11.833  0.3253  0.6235  0.1747
11048TIP3    H154635   0.210   6.197  11.799  1.3175 -0.0886  2.9593
11048TIP3    H254636   0.077   6.267  11.781  1.1841 -1.1369 -1.1847
11049TIP3   OH254637   6.857   6.843   0.513  0.3789  0.0739 -0.1558
11049TIP3    H154638   6.865   6.929   0.555 -1.4276  0.3480 -0.2719
11049TIP3    H254639   6.810   6.790   0.577  1.2721 -0.7850 -0.1834
11050TIP3   OH254640   6.529   4.426   1.605  0.3729  0.5642 -0.1765
11050TIP3    H154641   6.500   4.335   1.594  0.7018  0.3550  0.5779
11050TIP3    H254642   6.609   4.419   1.657 -0.1135  1.3452  0.7062
11051TIP3   OH254643   6.157   6.495   3.094  0.6461 -0.5585  0.4646
11051TIP3    H154644   6.250   6.504   3.072 -0.0093  2.7649 -1.7092
11051TIP3    H254645   6.148   6.534   3.181  1.4236 -2.1973  1.3194
11052TIP3   OH254646   6.477   3.071  12.118  0.5839 -0.3918  0.3441
11052TIP3    H154647   6.410   3.096  12.181  0.5104 -1.2911  0.6413
11052TIP3    H254648   6.430   3.064  12.035 -0.3119 -3.5494  0.9944
11053TIP3   OH254649   1.159   5.666   5.636 -0.1301 -0.1020 -0.1453
11053TIP3    H154650   1.179   5.572   5.634  1.2706  0.1936 -0.4943
11053TIP3    H254651   1.214   5.700   5.706 -0.3370  0.5303 -0.2905
11054TIP3   OH254652   5.534   0.106   3.105 -0.2026 -0.8117 -0.3458
11054TIP3    H154653   5.454   0.062   3.075 -1.6583  0.1120  1.9477
11054TIP3    H254654   5.519   0.198   3.086  0.0868 -0.5708  0.5532
11055TIP3   OH254655   4.737   2.692   3.652 -0.2956  0.0106  0.5018
11055TIP3    H154656   4.764   2.687   3.744 -1.3017  0.8877  0.8662
11055TIP3    H254657   4.785   2.620   3.610  1.2933  0.4717  1.4070
11056TIP3   OH254658   0.385   5.993  12.369  0.2972  0.0290  0.3518
11056TIP3    H154659   0.306   6.025  12.412  1.0361  1.6848  0.5797
11056TIP3    H254660   0.415   5.921  12.425 -0.6587 -0.1595  0.6418
11057TIP3   OH254661   5.757   0.639  11.219  1.0563 -0.2258 -0.3672
11057TIP3    H154662   5.670   0.637  11.259  1.6662  0.2141  1.0366
11057TIP3    H254663   5.741   0.618  11.127 -0.8075  1.9434 -0.6229
11058TIP3   OH254664   3.799   3.808  14.062 -0.3222  0.4125 -0.1844
11058TIP3    H154665   3.884   3.764  14.056  0.0848  1.0620  0.5911
11058TIP3    H254666   3.816   3.897  14.032 -0.0235  1.4086  2.6344
11059TIP3   OH254667   5.262   3.337  16.649  0.1075  0.0093  0.7958
11059TIP3    H154668   5.190   3.325  16.711 -0.1811 -0.3294  0.4031
11059TIP3    H254669   5.311   3.411  16.684 -1.4207  1.3927  0.1770
11060TIP3   OH254670   1.495   3.165  14.303  0.0270  0.5624 -0.4155
11060TIP3    H154671   1.579   3.198  14.271 -0.1972 -0.2317 -1.9232
11060TIP3    H254672   1.431   3.232  14.278  0.2835  1.6230  1.5670
11061TIP3   OH254673   6.410   4.355  12.795  0.0444  0.3508 -0.1710
11061TIP3    H154674   6.481   4.350  12.731 -0.3138 -1.7536 -0.4755
11061TIP3    H254675   6.354   4.425  12.763  1.0512  0.8423 -0.9140
11062TIP3   OH254676   6.561   1.131  16.671  0.6775  0.3297 -0.2352
11062TIP3    H154677   6.564   1.080  16.752 -0.5993  0.9385  0.2246
11062TIP3    H254678   6.603   1.214  16.694  1.4702  0.0349 -0.5794
11063TIP3   OH254679   3.318   0.879   0.961  0.3379  0.6553 -0.2251
11063TIP3    H154680   3.261   0.868   0.885  1.7752  0.4661 -1.3204
11063TIP3    H254681   3.260   0.871   1.037 -0.9152 -0.4546 -1.2678
11064TIP3   OH254682   6.744   1.924   5.014  1.0373  0.5404  0.5052
11064TIP3    H154683   6.792   1.842   5.012 -2.4399 -1.6650 -1.0532
11064TIP3    H254684   6.674   1.910   5.077  2.2838  3.7155  2.8907
11065TIP3   OH254685   0.443   2.346   4.304  0.0335 -0.2076  0.2853
11065TIP3    H154686   0.405   2.418   4.254 -0.5281  0.4652  1.6313
11065TIP3    H254687   0.483   2.289   4.238 -0.0579  1.0054 -0.8491
11066TIP3   OH254688   2.200   4.609  13.872  0.0603  0.2502  0.1430
11066TIP3    H154689   2.157   4.560  13.801  0.5749 -1.8610  1.1975
11066TIP3    H254690   2.133   4.614  13.941  0.7979 -1.3450  1.0399
11067TIP3   OH254691   4.406   3.447  14.312  0.2513  0.5594  0.6367
11067TIP3    H154692   4.462   3.523  14.295 -0.9204  1.4019  0.4562
11067TIP3    H254693   4.320   3.473  14.281  0.1379 -1.4458 -0.8965
11068TIP3   OH254694   4.194   4.020   3.006 -0.3801 -0.6272  0.0227
11068TIP3    H154695   4.151   4.105   3.010 -1.0835 -0.9757  0.0465
11068TIP3    H254696   4.225   4.004   3.095  1.5826  0.5042 -0.3937
11069TIP3   OH254697   6.035   1.394   2.118  0.0370 -0.5911  0.3817
11069TIP3    H154698   6.000   1.355   2.199  1.0840 -0.3548  0.9634
11069TIP3    H254699   6.119   1.351   2.106  0.8185  0.8576  0.5492
11070TIP3   OH254700   4.102   5.712   1.973 -0.3080  0.0435  0.0406
11070TIP3    H154701   4.106   5.671   1.886 -2.1385 -1.4000  0.5676
11070TIP3    H254702   4.066   5.799   1.956 -2.1738 -0.7782 -0.5693
11071TIP3   OH254703   5.532   5.416  12.975  0.6244  0.2355  0.1498
11071TIP3    H154704   5.552   5.404  12.882 -0.3783  0.4732 -0.1038
11071TIP3    H254705   5.441   5.390  12.984  0.1397  1.9798  0.7066
11072TIP3   OH254706   4.216   6.273  11.923 -0.2296  0.2257  0.4342
11072TIP3    H154707   4.194   6.209  11.855 -2.2704  1.0410  0.2614
11072TIP3    H254708   4.265   6.341  11.877 -1.5439  0.7438 -0.2523
11073TIP3   OH254709   0.838   0.404  12.344  0.5017 -0.3704 -0.3178
11073TIP3    H154710   0.834   0.496  12.319 -0.7765 -0.4792 -0.6047
11073TIP3    H254711   0.754   0.368  12.316 -0.1516 -1.0047  2.1619
11074TIP3   OH254712   2.674   2.878   3.608  0.0681  0.1295 -0.3298
11074TIP3    H154713   2.723   2.949   3.565  0.3645 -0.2782 -0.6734
11074TIP3    H254714   2.582   2.897   3.588  0.2163 -0.2337 -1.4362
11075TIP3   OH254715   2.549   4.647  10.184  0.2417  0.2387  0.1815
11075TIP3    H154716   2.514   4.587  10.250  0.8984  1.4247  1.6532
11075TIP3    H254717   2.487   4.721  10.184 -0.2815 -0.1665 -1.2462
11076TIP3   OH254718   2.249   4.015   3.404  0.6760 -0.1530  0.4134
11076TIP3    H154719   2.263   4.017   3.499  0.2544  0.9868  0.4648
11076TIP3    H254720   2.282   3.929   3.377 -0.1828 -0.9293  1.7334
11077TIP3   OH254721   4.989   3.150  16.062 -0.7519 -0.4629  0.8886
11077TIP3    H154722   4.980   3.238  16.098 -0.3695 -0.4291  0.9093
11077TIP3    H254723   5.077   3.149  16.023 -1.8236  0.1057 -1.7304
11078TIP3   OH254724   6.053   5.478   6.287 -0.0914  0.0382  0.2154
11078TIP3    H154725   5.991   5.552   6.285  1.4770  1.3898 -1.0466
11078TIP3    H254726   6.139   5.519   6.278  0.9696 -1.8379  1.3177
11079TIP3   OH254727   5.493   5.827  13.979  0.1011 -0.5463  0.0236
11079TIP3    H154728   5.575   5.877  13.972 -2.0678  3.3975  0.1685
11079TIP3    H254729   5.495   5.792  14.068  0.9209  0.9982  0.6712
11080TIP3   OH254730   0.685   0.047   2.867 -0.0914 -0.0592 -0.6943
11080TIP3    H154731   0.631   0.125   2.855 -0.0748 -0.0329 -0.5994
11080TIP3    H254732   0.660  -0.011   2.795 -0.9637 -0.4566 -0.0916
11081TIP3   OH254733   6.373   6.769  13.339 -0.0781 -0.0363  0.0128
11081TIP3    H154734   6.344   6.832  13.273 -1.2996 -1.6062 -1.0374
11081TIP3    H254735   6.456   6.736  13.306 -1.1627 -1.5539 -1.3515
11082TIP3   OH254736   0.468   1.652   3.702  0.2082  0.5509  0.1040
11082TIP3    H154737   0.544   1.682   3.651  0.2382  0.8166  0.3029
11082TIP3    H254738   0.467   1.709   3.779  1.6446 -1.3947  1.7023
11083TIP3   OH254739   1.825   3.510   5.622  0.1428 -0.4351 -0.1603
11083TIP3    H154740   1.842   3.535   5.713 -0.1199  0.4306 -0.3390
11083TIP3    H254741   1.742   3.553   5.600  0.1770 -0.6817 -0.7929
11084TIP3   OH254742   4.857   6.717   4.556 -0.2078 -0.6144 -0.1849
11084TIP3    H154743   4.947   6.687   4.568  0.0986  0.3535  0.0553
11084TIP3    H254744   4.810   6.641   4.522  0.5677 -1.2955  0.2455
11085TIP3   OH254745   1.911   1.372  12.071  0.3665  0.0491 -0.1458
11085TIP3    H154746   1.874   1.417  11.996 -2.5647  0.2460  1.2745
11085TIP3    H254747   1.895   1.430  12.145  2.2215 -0.5907  0.8358
11086TIP3   OH254748   4.832   2.329   5.802 -0.6549 -0.6706  0.3474
11086TIP3    H154749   4.820   2.319   5.707 -0.6171 -1.4832  0.4156
11086TIP3    H254750   4.868   2.416   5.813  0.3989 -0.9732 -0.4856
11087TIP3   OH254751   3.143   3.879   0.880 -0.0384 -0.2207 -0.1371
11087TIP3    H154752   3.077   3.835   0.934 -0.2344 -0.6780 -0.7400
11087TIP3    H254753   3.093   3.925   0.814  0.2326 -0.2487 -0.3637
11088TIP3   OH254754   3.701   3.760  17.102  0.2673  0.2170  0.2804
11088TIP3    H154755   3.670   3.739  17.190 -0.3831 -1.4279 -0.3052
11088TIP3    H254756   3.788   3.720  17.098 -0.1476 -0.6590 -0.1696
11089TIP3   OH254757   4.910   0.042   0.472  0.2739 -0.0169 -0.0254
11089TIP3    H154758   4.949   0.061   0.386 -2.2752  1.2982 -0.9980
11089TIP3    H254759   4.895  -0.052   0.471  0.3513 -0.0322 -1.0254
11090TIP3   OH254760   0.171   4.714   0.349 -0.8378  0.3568  0.2176
11090TIP3    H154761   0.123   4.758   0.419  1.5013  1.5585  1.1790
11090TIP3    H254762   0.184   4.781   0.282 -1.0215 -0.1156 -0.2952
11091TIP3   OH254763   3.897   4.802   3.353 -0.3117 -0.3523  0.3871
11091TIP3    H154764   3.899   4.820   3.259 -0.1022 -1.4918  0.1583
11091TIP3    H254765   3.915   4.887   3.394 -1.0363  0.3004 -0.5734
11092TIP3   OH254766   2.917   3.468   2.710  0.7094 -0.1806  0.2607
11092TIP3    H154767   2.985   3.405   2.731  1.3371  0.4937  0.2838
11092TIP3    H254768   2.961   3.534   2.657  0.4641  1.0942  1.5704
11093TIP3   OH254769   6.002   5.502   5.989 -0.2185  0.2915 -0.2610
11093TIP3    H154770   5.988   5.519   6.082 -0.3701 -1.3445  0.0434
11093TIP3    H254771   6.090   5.465   5.984  0.3247  1.6240 -0.9604
11094TIP3   OH254772   2.918   6.293   4.666  0.1382  0.5745 -0.4409
11094TIP3    H154773   2.930   6.348   4.744 -0.2535 -1.2046  0.9537
11094TIP3    H254774   2.848   6.232   4.691  3.2512 -3.3537 -0.1998
11095TIP3   OH254775   2.032   5.751   4.695  0.1436 -0.0766 -0.0284
11095TIP3    H154776   1.961   5.811   4.718  1.0740  1.5770 -1.2402
11095TIP3    H254777   2.098   5.764   4.764  0.5591  0.6989 -0.5608
11096TIP3   OH254778   0.905   1.141  11.422 -0.1234 -0.0005 -0.0438
11096TIP3    H154779   0.923   1.100  11.337 -1.9477 -0.3009 -0.3192
11096TIP3    H254780   0.902   1.235  11.403 -0.6252 -0.0727 -0.3362
11097TIP3   OH254781   6.324   5.965   2.647  0.0219 -0.0468 -0.4004
11097TIP3    H154782   6.361   5.975   2.735 -0.3200  1.3710 -0.3899
11097TIP3    H254783   6.354   5.879   2.618  2.4098  0.5543  0.0336
11098TIP3   OH254784   6.659   5.840   1.808  0.2249  0.3516  0.1315
11098TIP3    H154785   6.750   5.814   1.824  0.0536 -0.7013 -0.5304
11098TIP3    H254786   6.613   5.816   1.888  0.1063 -1.3064 -0.3897
11099TIP3   OH254787   5.495   4.560  12.447  0.2757  0.2221 -0.4115
11099TIP3    H154788   5.556   4.486  12.454 -0.8552 -0.5823  1.8919
11099TIP3    H254789   5.526   4.609  12.371  0.6824 -2.9558 -2.5082
11100TIP3   OH254790   5.539   1.172  14.064 -0.6695  0.0998 -0.4405
11100TIP3    H154791   5.567   1.164  13.973  0.5039  0.4507 -0.1380
11100TIP3    H254792   5.560   1.262  14.088  0.2253 -0.3267  0.5223
11101TIP3   OH254793   1.292   4.035   3.061 -0.4018 -0.3925 -0.8243
11101TIP3    H154794   1.375   4.007   3.023  0.0625 -0.5671  0.2866
11101TIP3    H254795   1.266   3.963   3.118 -1.4387 -0.4312 -1.3123
11102TIP3   OH254796   0.161   4.500   2.602 -0.4104 -0.2685 -0.1171
11102TIP3    H154797   0.245   4.541   2.626 -0.4147  0.2851 -1.0123
11102TIP3    H254798   0.127   4.555   2.531 -2.0819  0.2061  0.9764
11103TIP3   OH254799   5.889   4.803  15.492  0.1310  0.3513  0.3774
11103TIP3    H154800   5.822   4.817  15.426  0.8735  0.3040 -0.3980
11103TIP3    H254801   5.858   4.854  15.568 -0.4027  0.9409 -0.2204
11104TIP3   OH254802   4.297   3.478   2.756  0.7118  0.0679 -0.3673
11104TIP3    H154803   4.387   3.466   2.787  1.7476  3.2335 -1.6868
11104TIP3    H254804   4.296   3.440   2.668  0.4335 -0.8590  0.0270
11105TIP3   OH254805   0.387   3.059   4.695  0.1166  0.1615  0.0227
11105TIP3    H154806   0.313   3.054   4.756  0.3160  1.9424  0.4643
11105TIP3    H254807   0.452   3.000   4.733 -0.5431 -0.3577  0.3854
11106TIP3   OH254808   6.741   2.464  17.014  0.0130  0.2152 -0.1941
11106TIP3    H154809   6.706   2.552  16.998 -0.2718  0.2572  0.6008
11106TIP3    H254810   6.668   2.416  17.054 -0.2697 -0.8115 -1.8572
11107TIP3   OH254811   2.669   6.799   5.511 -0.4456  0.0336 -0.2651
11107TIP3    H154812   2.611   6.762   5.444 -1.5079  2.1332 -0.5892
11107TIP3    H254813   2.756   6.796   5.471 -0.5013 -1.9001 -0.3255
11108TIP3   OH254814   4.934   2.672  16.188  0.3979 -0.2376 -0.4411
11108TIP3    H154815   4.906   2.647  16.276 -0.7104  0.3380 -0.6171
11108TIP3    H254816   4.869   2.633  16.130  0.8438 -0.2016 -0.9724
11109TIP3   OH254817   4.329   3.917   3.246 -0.1110 -0.2387 -0.7037
11109TIP3    H154818   4.248   3.957   3.280  1.0077 -0.1533  2.1552
11109TIP3    H254819   4.392   3.988   3.245  1.0231 -1.1340  1.2883
11110TIP3   OH254820   3.293   2.563  14.727 -0.0901 -0.0993  0.1403
11110TIP3    H154821   3.283   2.499  14.797  0.0289 -0.6675 -0.3483
11110TIP3    H254822   3.388   2.571  14.715 -0.1132 -0.1108 -0.0505
11111TIP3   OH254823   4.699   5.348   4.387  0.1617 -0.3013  0.0196
11111TIP3    H154824   4.686   5.382   4.476  2.7344 -2.3965  1.3450
11111TIP3    H254825   4.754   5.414   4.345 -1.8909  1.2079 -0.4942
11112TIP3   OH254826   6.646   2.868  14.815 -0.5042  1.4107  0.2555
11112TIP3    H154827   6.737   2.853  14.841 -0.9260 -0.7427  0.6677
11112TIP3    H254828   6.651   2.886  14.721  0.2180 -0.9044 -0.2083
11113TIP3   OH254829   2.372   5.956  14.862  0.4693 -0.2332 -0.6133
11113TIP3    H154830   2.358   5.998  14.777  0.2406 -1.5006 -1.2371
11113TIP3    H254831   2.374   5.862  14.842 -3.6553 -0.9469  1.2349
11114TIP3   OH254832   4.874   6.506  15.244  0.7564 -0.1010 -0.4721
11114TIP3    H154833   4.856   6.450  15.169  0.8734 -2.0705  0.8784
11114TIP3    H254834   4.810   6.577  15.237  0.0938 -0.7976 -1.8616
11115TIP3   OH254835   6.711   1.047  15.608  0.1604  0.3644 -0.3557
11115TIP3    H154836   6.758   1.017  15.531 -0.0312  0.3179 -0.4555
11115TIP3    H254837   6.745   0.993  15.679 -0.9059 -0.8202 -0.7077
11116TIP3   OH254838   3.899   1.074   1.543 -0.7067  0.2612  0.7760
11116TIP3    H154839   3.909   1.169   1.545  1.7392  0.0796  0.6846
11116TIP3    H254840   3.931   1.045   1.629  0.3016 -0.5551  0.1514
11117TIP3   OH254841   4.513   6.577   4.588  0.3641 -0.2109  0.2200
11117TIP3    H154842   4.468   6.493   4.581  1.0799 -0.5200 -0.8578
11117TIP3    H254843   4.605   6.556   4.574  0.4597  0.8656 -0.9440
11118TIP3   OH254844   5.262   6.357  12.070 -0.3642  0.9233 -0.2527
11118TIP3    H154845   5.180   6.308  12.073  0.4079 -0.4067  0.3317
11118TIP3    H254846   5.239   6.445  12.099 -1.8209  0.9626 -1.4384
11119TIP3   OH254847   1.340   4.777  10.873  0.2948  0.2017  0.2963
11119TIP3    H154848   1.343   4.684  10.898  0.6349  0.1436  0.0356
11119TIP3    H254849   1.270   4.782  10.808  0.7681  0.0016 -0.2288
11120TIP3   OH254850   6.379   3.770   3.434  0.0685  0.3013  0.2177
11120TIP3    H154851   6.434   3.734   3.364 -0.3684  1.5782 -0.8114
11120TIP3    H254852   6.433   3.761   3.513  0.6017 -1.0763 -0.2605
11121TIP3   OH254853   4.034   5.442   2.353 -0.2578 -0.3489  0.3389
11121TIP3    H154854   3.940   5.423   2.366 -0.1248 -2.3580 -1.1409
11121TIP3    H254855   4.078   5.379   2.409  0.1890 -1.6965 -1.4400
11122TIP3   OH254856   2.464   4.709  11.388 -0.0121 -0.5529 -0.9992
11122TIP3    H154857   2.428   4.711  11.299  1.8143  0.2130 -1.7706
11122TIP3    H254858   2.447   4.620  11.419 -1.3851 -0.5967 -1.7798
11123TIP3   OH254859   1.074   1.854   0.030  0.3832 -0.3016  0.2799
11123TIP3    H154860   1.125   1.778   0.002  0.4722  0.1411 -0.8344
11123TIP3    H254861   0.985   1.836   0.001  0.0285 -0.7442  1.5719
11124TIP3   OH254862   1.354   6.685  12.963  0.3265 -0.0118 -0.2617
11124TIP3    H154863   1.339   6.695  12.869 -1.0711  1.0678  0.0475
11124TIP3    H254864   1.316   6.599  12.983 -2.1882  1.0252 -0.1995
11125TIP3   OH254865   4.816   5.811   6.007 -0.1220  0.0578 -0.1638
11125TIP3    H154866   4.789   5.724   5.977 -0.3889  0.7940 -2.2269
11125TIP3    H254867   4.771   5.822   6.091  0.1166 -1.8673  0.2764
11126TIP3   OH254868   4.547   0.748   2.183 -0.0080 -0.6518  0.1824
11126TIP3    H154869   4.454   0.769   2.184 -0.1251 -1.1554  1.5448
11126TIP3    H254870   4.578   0.779   2.098 -1.2692  0.1430 -0.0035
11127TIP3   OH254871   3.186   3.599   5.806  0.0790 -0.5029  0.0073
11127TIP3    H154872   3.239   3.628   5.731 -0.0343  1.6137  0.6859
11127TIP3    H254873   3.245   3.607   5.881 -0.7998  0.7035  0.5979
11128TIP3   OH254874   6.000   5.046   5.861  0.4239  0.5521  0.1841
11128TIP3    H154875   6.088   5.050   5.822  0.4745  0.8234  0.3204
11128TIP3    H254876   5.944   5.090   5.797  0.1972 -0.5482 -0.3986
11129TIP3   OH254877   1.056   3.957  14.955 -0.4875  0.6756 -0.2494
11129TIP3    H154878   0.965   3.931  14.943 -0.1501 -0.2780 -0.9150
11129TIP3    H254879   1.052   4.043  14.998 -1.6893  0.6795 -0.3472
11130TIP3   OH254880   0.416   1.636   2.070 -0.2058 -0.4770 -0.6297
11130TIP3    H154881   0.442   1.557   2.024  2.7633 -0.4074  0.6521
11130TIP3    H254882   0.478   1.642   2.143 -2.0294  1.6144  0.8837
11131TIP3   OH254883   5.484   2.320  11.395  0.1418 -0.0245  0.1325
11131TIP3    H154884   5.436   2.245  11.428 -0.8493  0.2701 -0.5985
11131TIP3    H254885   5.448   2.335  11.307 -0.2931  1.8234  0.5942
11132TIP3   OH254886   4.735   4.683  15.241 -0.7165  0.3079  0.4075
11132TIP3    H154887   4.707   4.754  15.183 -2.7175 -0.9082 -0.2047
11132TIP3    H254888   4.779   4.620  15.184  0.0246  0.4999  0.7523
11133TIP3   OH254889   1.052   3.407  15.691 -0.0470  0.1230 -0.0557
11133TIP3    H154890   0.961   3.429  15.672  0.1401  0.3860 -0.6603
11133TIP3    H254891   1.088   3.487  15.729  0.5299  0.7866 -1.8980
11134TIP3   OH254892   4.773   3.467   5.278  0.1108 -0.6749  0.0562
11134TIP3    H154893   4.792   3.516   5.197  0.5074 -0.4383  0.2909
11134TIP3    H254894   4.766   3.535   5.345 -0.4746 -0.8503  0.1793
11135TIP3   OH254895   6.282   2.881  13.473  0.1925  0.4150  0.3754
11135TIP3    H154896   6.215   2.906  13.410 -0.3381 -0.3300  0.6370
11135TIP3    H254897   6.241   2.814  13.528  0.9967  0.2768  0.8334
11136TIP3   OH254898   5.862   0.781   1.969  0.2412  0.1795 -0.5006
11136TIP3    H154899   5.925   0.773   1.897  2.0975  2.2881  0.7506
11136TIP3    H254900   5.859   0.694   2.009 -0.3931 -0.8674 -2.7055
11137TIP3   OH254901   1.615   6.246  11.124  0.0250 -0.4540  0.0391
11137TIP3    H154902   1.639   6.291  11.205  0.5357 -1.2562  0.3387
11137TIP3    H254903   1.557   6.176  11.152 -2.7963  1.4437 -0.6645
11138TIP3   OH254904   3.705   5.297  16.175 -0.3193 -0.4273  0.6271
11138TIP3    H154905   3.794   5.264  16.185  0.4312  1.4129  0.3337
11138TIP3    H254906   3.665   5.240  16.110  1.1835 -0.2747 -0.4766
11139TIP3   OH254907   2.369   0.503  11.704  0.0466  0.6448  0.1211
11139TIP3    H154908   2.285   0.547  11.689  0.9374  1.6341 -2.3791
11139TIP3    H254909   2.353   0.412  11.680 -0.9186  0.2188  2.1275
11140TIP3   OH254910   0.868   1.467   5.039  0.0533  0.2579 -0.3621
11140TIP3    H154911   0.894   1.394   4.984 -1.1930 -0.1043 -0.4977
11140TIP3    H254912   0.869   1.432   5.128  0.2966  0.3346 -0.3320
11141TIP3   OH254913   6.795   3.481   3.013  0.6533 -0.5660  0.3233
11141TIP3    H154914   6.784   3.413   3.079 -0.3065 -0.9624 -0.2188
11141TIP3    H254915   6.766   3.440   2.932 -1.2365  0.8882  0.2128
11142TIP3   OH254916   1.249   0.684   0.871  0.2547  0.2976 -0.6937
11142TIP3    H154917   1.326   0.695   0.815 -0.4907 -1.3584 -2.1235
11142TIP3    H254918   1.254   0.593   0.900 -1.0064  0.2546 -0.5664
11143TIP3   OH254919   5.384   0.268  13.212  0.4016  0.4598  0.3988
11143TIP3    H154920   5.324   0.222  13.270  0.7862 -1.0927 -0.4002
11143TIP3    H254921   5.471   0.251  13.247  0.8340 -2.2011 -1.6435
11144TIP3   OH254922   2.625   2.349  12.849 -0.9927  0.3429 -0.3225
11144TIP3    H154923   2.602   2.268  12.804  0.2713  1.0128 -2.3451
11144TIP3    H254924   2.640   2.412  12.778 -0.7146  2.0063  1.1294
11145TIP3   OH254925   5.505   1.180  13.781  0.3064 -0.5133  0.0167
11145TIP3    H154926   5.419   1.150  13.753  0.2843 -1.0310  0.6061
11145TIP3    H254927   5.547   1.212  13.701 -1.2507  1.8756  0.0493
11146TIP3   OH254928   2.561   1.339  16.287  0.8195 -0.1391 -0.3606
11146TIP3    H154929   2.525   1.258  16.324  2.5855 -0.0012  1.8681
11146TIP3    H254930   2.552   1.403  16.358  1.6269  0.9958 -1.2494
11147TIP3   OH254931   2.559   5.693   1.369 -0.0483  0.6104  0.0008
11147TIP3    H154932   2.466   5.714   1.360  0.0075  1.3077  0.8659
11147TIP3    H254933   2.563   5.632   1.443  0.2280  1.0626  0.3699
11148TIP3   OH254934   6.212   0.477  11.088 -0.3022  0.0397 -0.0205
11148TIP3    H154935   6.194   0.511  11.001  0.1195  0.0764 -0.0970
11148TIP3    H254936   6.152   0.403  11.098  0.9509 -1.1818 -1.0967
11149TIP3   OH254937   3.160   1.294   3.778 -0.7387 -0.0642  0.0113
11149TIP3    H154938   3.223   1.337   3.835  2.4056 -1.2963 -2.2137
11149TIP3    H254939   3.116   1.366   3.732  0.6306  0.8565  0.0775
11150TIP3   OH254940   1.299   6.181  15.061 -0.2780 -0.1972 -0.2984
11150TIP3    H154941   1.323   6.202  14.971  1.1070  0.0291  0.0996
11150TIP3    H254942   1.211   6.145  15.055 -0.2576 -0.0417 -1.7238
11151TIP3   OH254943   4.892   3.236   0.461 -0.2421 -0.2255  1.1336
11151TIP3    H154944   4.936   3.167   0.510  2.9684  0.3535 -0.6146
11151TIP3    H254945   4.931   3.317   0.493  1.3421  0.2177 -1.5641
11152TIP3   OH254946   4.779   4.792   5.500 -0.0955  0.3418  0.1098
11152TIP3    H154947   4.705   4.783   5.559 -0.6047  0.3007 -0.5248
11152TIP3    H254948   4.821   4.874   5.525 -2.1773  2.0213 -1.5133
11153TIP3   OH254949   6.167   1.533  12.074  0.3211  0.0954 -0.2280
11153TIP3    H154950   6.205   1.603  12.127  1.8983 -2.2347  1.9418
11153TIP3    H254951   6.239   1.504  12.018 -0.1714 -0.1250 -0.7588
11154TIP3   OH254952   4.623   5.764   4.967  0.3159  0.0860 -0.5084
11154TIP3    H154953   4.582   5.829   5.023  0.3615 -1.5816  1.5796
11154TIP3    H254954   4.563   5.755   4.893 -1.6415 -0.1551  1.0071
11155TIP3   OH254955   0.085   1.695  13.627  0.3562  0.4658 -0.8344
11155TIP3    H154956   0.005   1.686  13.679  0.8355  1.1016  0.0377
11155TIP3    H254957   0.145   1.631  13.664  0.6885  0.9022 -0.6045
11156TIP3   OH254958   5.272   2.830  11.156 -0.3880 -0.0786  0.1436
11156TIP3    H154959   5.190   2.821  11.204 -1.8798  2.9275 -1.5021
11156TIP3    H254960   5.304   2.917  11.180  3.4721 -1.8219  2.1834
11157TIP3   OH254961   4.721   0.149   2.457  0.1017  0.0211 -0.0884
11157TIP3    H154962   4.787   0.204   2.499  1.6103 -1.9022  0.2564
11157TIP3    H254963   4.745   0.148   2.364 -0.4815  0.6637 -0.2502
11158TIP3   OH254964   2.206   1.382   2.029 -0.2406  0.3686 -0.3243
11158TIP3    H154965   2.294   1.348   2.046 -0.2337  0.7996  0.5215
11158TIP3    H254966   2.164   1.313   1.978  0.5950  0.1720 -0.7682
11159TIP3   OH254967   0.008   2.774  13.488 -0.3615  0.1838 -0.0626
11159TIP3    H154968   0.018   2.773  13.393 -0.8257  0.1922 -0.1177
11159TIP3    H254969  -0.021   2.863  13.509  0.5008  0.4137  0.1781
11160TIP3   OH254970   3.028   0.221   5.188 -0.4640 -0.9128 -0.3039
11160TIP3    H154971   3.108   0.173   5.168  0.4197  1.0007 -1.7713
11160TIP3    H254972   2.962   0.185   5.128  0.1920 -0.3436 -1.4084
11161TIP3   OH254973   2.624   0.396  10.906 -0.6663  0.0560 -0.4102
11161TIP3    H154974   2.656   0.320  10.857  1.3569  0.9857 -0.6171
11161TIP3    H254975   2.614   0.465  10.840  0.8435  0.9393  0.2287
11162TIP3   OH254976   0.198   6.602  12.253  0.2577  0.1212  0.4540
11162TIP3    H154977   0.134   6.544  12.211  0.4322 -0.7455  1.3185
11162TIP3    H254978   0.242   6.646  12.181  0.3529 -1.0941 -0.2728
11163TIP3   OH254979   0.572   5.920  12.829  0.0580  0.3452 -0.1472
11163TIP3    H154980   0.624   5.845  12.857 -1.5442 -1.0957 -0.8468
11163TIP3    H254981   0.544   5.961  12.911  1.8871  0.9114  0.2390
11164TIP3   OH254982   4.980   6.563  10.682  0.4799 -0.0518 -0.0280
11164TIP3    H154983   5.008   6.486  10.731  1.8744  0.3861 -0.0808
11164TIP3    H254984   4.954   6.626  10.748  0.9910  0.0284  0.1052
11165TIP3   OH254985   1.914   0.394  12.215 -0.3714 -0.2402 -0.4411
11165TIP3    H154986   1.837   0.443  12.185 -1.1005 -2.5606 -2.7219
11165TIP3    H254987   1.983   0.461  12.223 -2.2665  1.7291  0.5706
11166TIP3   OH254988   4.810   0.580   3.949  0.1389  0.4051 -0.2485
11166TIP3    H154989   4.824   0.657   3.893  2.5240  0.5347  0.4136
11166TIP3    H254990   4.857   0.600   4.029 -0.5809 -1.1019  0.5902
11167TIP3   OH254991   6.440   0.025   4.022 -0.4329  0.5537  0.7952
11167TIP3    H154992   6.425   0.087   4.093  0.8669  1.6316  0.1698
11167TIP3    H254993   6.398  -0.056   4.052 -2.7991  1.8842  1.3321
11168TIP3   OH254994   3.341   5.466   3.260 -0.0437 -0.2468  0.0103
11168TIP3    H154995   3.318   5.405   3.329 -2.0522 -0.7932 -1.0807
11168TIP3    H254996   3.397   5.415   3.201  0.1351 -0.3466  0.2666
11169TIP3   OH254997   0.844   3.874   2.244  0.2997  0.1924  0.2285
11169TIP3    H154998   0.784   3.935   2.286 -0.0674  0.6013 -0.8762
11169TIP3    H254999   0.805   3.788   2.258  0.1256  0.3353  0.6307
11170TIP3   OH255000   0.688   6.489  12.150 -0.1714  0.0610  0.1859
11170TIP3    H155001   0.774   6.521  12.125 -0.8032  1.2765 -0.5574
11170TIP3    H255002   0.630   6.565  12.140 -1.0260 -0.2198  2.4280
11171TIP3   OH255003   2.425   1.480   0.441 -0.1256 -0.2979  0.5967
11171TIP3    H155004   2.495   1.533   0.404 -1.1964  0.0314 -1.0882
11171TIP3    H255005   2.347   1.536   0.436 -0.6890 -0.9674  1.5847
11172TIP3   OH255006   6.425   0.864  13.413  0.1005 -0.4904  0.6870
11172TIP3    H155007   6.499   0.804  13.408  1.0810  0.6132  1.3652
11172TIP3    H255008   6.380   0.854  13.329  1.3355 -0.7770  0.0393
11173TIP3   OH255009   3.610   2.472   4.037  0.2999  0.6006  0.1437
11173TIP3    H155010   3.648   2.437   3.957  0.2281  2.1532 -0.5898
11173TIP3    H255011   3.553   2.543   4.008  0.5431  1.4215  1.5915
11174TIP3   OH255012   0.710   0.359   2.782 -0.2378 -0.1386  0.3210
11174TIP3    H155013   0.743   0.390   2.698  0.0490 -0.6293  0.2444
11174TIP3    H255014   0.617   0.343   2.767 -0.1988 -0.1734  0.1122
11175TIP3   OH255015   6.709   6.666   4.268 -0.9479  0.5617 -0.8713
11175TIP3    H155016   6.640   6.619   4.313  0.4400 -0.1094  0.6546
11175TIP3    H255017   6.767   6.697   4.338  1.6362 -1.0486 -2.1508
11176TIP3   OH255018   4.288   0.569   3.880 -0.3071 -0.3546 -0.0830
11176TIP3    H155019   4.290   0.608   3.792 -0.8235 -0.6916 -0.2484
11176TIP3    H255020   4.205   0.599   3.917  0.4255  0.7325  0.7397
11177TIP3   OH255021   4.733   4.751  12.734 -0.0357  0.5046  0.4660
11177TIP3    H155022   4.769   4.815  12.795 -0.7853  0.9119  0.4924
11177TIP3    H255023   4.801   4.740  12.668  0.4023  0.7603  0.8729
11178TIP3   OH255024   5.824   6.472  14.679 -0.0486  0.4611  0.0019
11178TIP3    H155025   5.899   6.421  14.648  1.3605  2.5336 -0.2513
11178TIP3    H255026   5.759   6.464  14.610  0.2659 -0.6728 -0.1867
11179TIP3   OH255027   3.491   3.376   4.741 -0.1880  0.7764  0.5661
11179TIP3    H155028   3.538   3.324   4.675 -4.0611 -1.1704 -0.9933
11179TIP3    H255029   3.502   3.327   4.822 -0.5402 -0.3986 -0.0633
11180TIP3   OH255030   4.610   1.098  11.020  0.7640  0.4817  0.0441
11180TIP3    H155031   4.533   1.113  11.074 -0.0097 -2.0713 -0.2385
11180TIP3    H255032   4.575   1.083  10.932  1.3530 -2.1770  0.1765
11181TIP3   OH255033   2.393   3.395  11.472  0.0635  0.1802 -0.4960
11181TIP3    H155034   2.417   3.303  11.458 -0.5663 -0.0615 -0.0341
11181TIP3    H255035   2.315   3.391  11.526  0.6581  1.0206  0.4550
11182TIP3   OH255036   5.144   5.709  16.670 -0.3052  0.5122  0.3665
11182TIP3    H155037   5.169   5.795  16.637  1.5407  0.2817  1.0625
11182TIP3    H255038   5.141   5.721  16.765 -0.8338 -0.0149  0.4217
11183TIP3   OH255039   4.385   0.919   4.883  0.0780 -0.7744  0.0460
11183TIP3    H155040   4.455   0.984   4.880  0.8532 -1.5246  0.9987
11183TIP3    H255041   4.319   0.951   4.822  0.3666  0.9730  0.5945
11184TIP3   OH255042   1.015   2.498  12.851  0.1312 -0.2368 -0.5917
11184TIP3    H155043   1.048   2.584  12.825  0.4759 -0.2105 -0.0723
11184TIP3    H255044   1.001   2.452  12.768  0.4533  0.1307 -0.8528
11185TIP3   OH255045   0.769   1.650   3.079  0.1375  0.0975 -0.0654
11185TIP3    H155046   0.748   1.605   3.161 -1.5558 -1.5534 -1.3111
11185TIP3    H255047   0.692   1.702   3.059  1.3269  2.1375  0.3520
11186TIP3   OH255048   2.566   6.465   4.120 -0.3345 -0.2683  0.0910
11186TIP3    H155049   2.518   6.526   4.064 -1.6568 -1.8997 -0.6328
11186TIP3    H255050   2.647   6.447   4.072  0.1356  0.9972  0.3817
11187TIP3   OH255051   5.762   3.591  12.227  0.0770  0.1967  0.3027
11187TIP3    H155052   5.785   3.498  12.218 -0.3971 -0.0582  1.5278
11187TIP3    H255053   5.669   3.595  12.203 -0.3652  0.0362  1.8807
11188TIP3   OH255054   4.899   3.058   3.512  0.3737 -0.0605 -0.8115
11188TIP3    H155055   4.980   3.011   3.529 -0.1354 -0.8944 -0.6360
11188TIP3    H255056   4.884   3.110   3.591 -0.1262 -1.1895 -0.1414
11189TIP3   OH255057   2.401   1.553  16.402  0.3224 -0.5264  0.0881
11189TIP3    H155058   2.367   1.543  16.490  0.3160 -1.9467 -0.0469
11189TIP3    H255059   2.390   1.646  16.382  0.2906 -0.1928  1.5504
11190TIP3   OH255060   0.517   2.907   5.869  0.2326  0.9409  0.2643
11190TIP3    H155061   0.477   2.906   5.782  0.3512  0.4632  0.2112
11190TIP3    H255062   0.545   2.816   5.884  1.0129  1.2002  0.4334
11191TIP3   OH255063   3.715   2.464  13.067 -0.2246 -0.5136 -0.2891
11191TIP3    H155064   3.622   2.447  13.083 -0.5121  1.2094  0.1176
11191TIP3    H255065   3.715   2.542  13.012  0.9833 -0.2127  0.1206
11192TIP3   OH255066   3.326   4.461  16.440  0.6732  0.3314  0.1249
11192TIP3    H155067   3.420   4.478  16.430  0.7585 -0.2856 -0.1633
11192TIP3    H255068   3.290   4.470  16.352  0.4823  0.4282  0.2098
11193TIP3   OH255069   3.079   3.263   2.842 -0.1906  0.3091 -0.1106
11193TIP3    H155070   3.057   3.175   2.872 -0.5404  0.7913  1.1018
11193TIP3    H255071   3.170   3.257   2.812 -0.8268 -0.9312 -2.0281
11194TIP3   OH255072   1.437   6.191   2.209  0.3915 -0.3970  0.9744
11194TIP3    H155073   1.383   6.247   2.265  1.9305 -0.5311  2.6941
11194TIP3    H255074   1.386   6.110   2.199 -1.0990  0.6130 -0.1403
11195TIP3   OH255075   4.522   4.898  16.578  0.4180  0.1149  0.4504
11195TIP3    H155076   4.450   4.876  16.519 -0.4609  1.2561  1.0352
11195TIP3    H255077   4.601   4.880  16.528 -0.2357 -1.8780  0.0419
11196TIP3   OH255078   2.646   4.128   4.694 -0.1269  0.1928 -0.1326
11196TIP3    H155079   2.606   4.041   4.685  0.9405 -0.4040  0.6740
11196TIP3    H255080   2.739   4.113   4.679  0.2389  0.9714  1.2261
11197TIP3   OH255081   4.805   5.866   0.239  0.8037  0.1839 -0.2072
11197TIP3    H155082   4.774   5.916   0.163  2.3212 -0.9622 -1.6409
11197TIP3    H255083   4.812   5.931   0.309  0.2551  1.4610 -1.2888
11198TIP3   OH255084   6.371   2.214   0.872 -0.1400  0.3003 -0.0366
11198TIP3    H155085   6.418   2.136   0.843  1.4951  1.1351  0.2402
11198TIP3    H255086   6.327   2.247   0.793 -0.2481 -0.4890 -0.3085
11199TIP3   OH255087   0.080   0.412   6.706  0.2551 -0.3271 -0.1435
11199TIP3    H155088   0.107   0.488   6.757 -1.6208 -0.1402  0.6783
11199TIP3    H255089   0.018   0.366   6.763 -0.4630 -1.1463 -1.5260
11200TIP3   OH255090   5.752   6.129  11.163  0.1876 -0.5401 -0.4490
11200TIP3    H155091   5.701   6.098  11.088  0.9107 -1.6461 -0.5041
11200TIP3    H255092   5.831   6.076  11.162 -0.8912 -2.5009  2.6093
11201TIP3   OH255093   5.471   4.213  13.019 -0.1145  0.3205 -0.0317
11201TIP3    H155094   5.511   4.232  13.104  0.0254 -1.3102  0.3043
11201TIP3    H255095   5.545   4.189  12.963 -0.4049 -0.8338  0.0537
11202TIP3   OH255096   2.846   3.878   2.644 -0.0231 -0.3938  0.5807
11202TIP3    H155097   2.866   3.850   2.555  0.0643  0.9399  0.1621
11202TIP3    H255098   2.767   3.932   2.635  1.7253  2.3816  0.8005
11203TIP3   OH255099   6.698   2.200  14.119  0.0255  0.0990 -0.4075
11203TIP3    H155100   6.624   2.150  14.082 -2.2448  1.4117  2.0228
11203TIP3    H255101   6.734   2.142  14.186 -1.0134  0.6886  0.7000
11204TIP3   OH255102   6.546   2.827  12.000 -0.1514  0.3662 -0.4569
11204TIP3    H155103   6.635   2.796  12.016  0.2514  0.9214 -1.5204
11204TIP3    H255104   6.545   2.916  12.037 -0.1743  0.4599 -0.6796
11205TIP3   OH255105   6.592   4.744   2.734  0.8029  0.3834  0.2169
11205TIP3    H155106   6.515   4.750   2.677 -2.3310 -1.8432  3.7188
11205TIP3    H255107   6.636   4.664   2.708  1.6151  1.2948 -1.3419
11206TIP3   OH255108   6.795   3.397   1.712 -0.0861  0.4392  0.2741
11206TIP3    H155109   6.753   3.330   1.768 -0.5398  0.0014 -0.5737
11206TIP3    H255110   6.884   3.365   1.699 -0.5777 -0.5059 -0.9060
11207TIP3   OH255111   0.363   5.470  15.744  0.1053 -0.1895 -0.2430
11207TIP3    H155112   0.367   5.563  15.769  0.2007 -0.4436  0.7135
11207TIP3    H255113   0.449   5.436  15.766 -0.1732 -0.6736  0.1087
11208TIP3   OH255114   5.036   1.980   3.584 -0.0903  0.7883 -0.2898
11208TIP3    H155115   5.101   1.911   3.571 -0.7639 -0.0071  0.4276
11208TIP3    H255116   4.956   1.945   3.546 -1.3498 -0.3697  3.0743
11209TIP3   OH255117   0.665   0.230  11.744  0.0477  0.1024  0.2981
11209TIP3    H155118   0.649   0.137  11.760  0.0210  0.2723  1.3115
11209TIP3    H255119   0.717   0.258  11.819  1.0497  0.6454 -0.5826
11210TIP3   OH255120   2.828   2.914  11.002  0.0297  0.4795 -0.0073
11210TIP3    H155121   2.785   2.881  11.081  0.7759  0.4867  0.4216
11210TIP3    H255122   2.862   3.000  11.028 -1.6430  1.4791 -1.0256
11211TIP3   OH255123   0.308   3.314  15.168  0.3058  0.0248 -0.3166
11211TIP3    H155124   0.298   3.220  15.187  2.0932  0.0331  0.8431
11211TIP3    H255125   0.239   3.332  15.103 -0.9996 -1.7477  0.4857
11212TIP3   OH255126   6.845   5.208   6.703 -0.6298  0.1896 -0.1257
11212TIP3    H155127   6.879   5.259   6.629  2.4961 -0.7382  0.5058
11212TIP3    H255128   6.817   5.125   6.664  1.5219 -0.5134 -0.3102
11213TIP3   OH255129   1.062   0.371   1.529 -0.4045 -0.3653 -0.1854
11213TIP3    H155130   1.061   0.384   1.623  0.0121 -0.9765 -0.0854
11213TIP3    H255131   1.146   0.328   1.512 -0.7910 -0.9280 -0.7370
11214TIP3   OH255132   3.642   4.424   1.764  0.1885  0.3741 -0.2537
11214TIP3    H155133   3.608   4.343   1.801 -3.2371  2.6708  2.1812
11214TIP3    H255134   3.707   4.455   1.827 -0.1657  0.6353 -0.0177
11215TIP3   OH255135   4.487   1.128  14.570 -0.0435 -0.0026  0.1162
11215TIP3    H155136   4.487   1.180  14.490  1.0330 -1.1962 -0.7086
11215TIP3    H255137   4.399   1.138  14.605 -0.1846  1.4808 -0.5747
11216TIP3   OH255138   1.484   0.159   1.640  0.9480 -0.2275 -0.1092
11216TIP3    H155139   1.534   0.241   1.633 -2.3257  1.9601 -0.1322
11216TIP3    H255140   1.466   0.150   1.733 -0.3086  0.2326 -0.2787
11217TIP3   OH255141   2.534   1.147   4.745  0.3354  0.2028 -0.3301
11217TIP3    H155142   2.593   1.074   4.727  0.7144  0.1882  0.8721
11217TIP3    H255143   2.472   1.146   4.672 -0.8223 -2.5120  0.5194
11218TIP3   OH255144   4.792   1.108  10.662 -0.4003 -0.2411 -0.0204
11218TIP3    H155145   4.838   1.061  10.732 -0.1438 -0.3628 -0.2697
11218TIP3    H255146   4.810   1.057  10.583  1.1813  1.0893 -0.5854
11219TIP3   OH255147   2.917   5.272  12.705  0.2152  0.0319 -0.5717
11219TIP3    H155148   2.946   5.271  12.797  0.2333 -2.5053 -0.5247
11219TIP3    H255149   2.882   5.359  12.692  0.4725  0.5594  1.7753
11220TIP3   OH255150   5.622   3.638   6.403  1.0380 -0.0683  0.4801
11220TIP3    H155151   5.674   3.702   6.355  1.8247  0.2175  1.6667
11220TIP3    H255152   5.683   3.599   6.465 -0.2649  0.6409  2.2746
11221TIP3   OH255153   2.405   2.916  13.065 -0.0976  0.3478  0.7833
11221TIP3    H155154   2.367   2.880  13.146  0.3461  0.4086  1.0199
11221TIP3    H255155   2.331   2.959  13.021 -0.2144  0.8880  1.4805
11222TIP3   OH255156   4.848   1.187  15.000 -0.0995 -0.5418 -0.0807
11222TIP3    H155157   4.758   1.193  14.969 -0.1049  1.4440  0.1887
11222TIP3    H255158   4.843   1.132  15.078 -1.5073  1.4232  1.2999
11223TIP3   OH255159   4.924   5.075   2.792 -0.3310 -0.2509  0.2144
11223TIP3    H155160   5.012   5.107   2.773 -1.1678  1.5468 -0.8450
11223TIP3    H255161   4.937   4.984   2.820  1.7112 -0.6150 -1.6223
11224TIP3   OH255162   5.458   3.726   3.105  0.4399 -0.0026  0.1762
11224TIP3    H155163   5.373   3.684   3.120  0.0654  0.8886  0.6416
11224TIP3    H255164   5.520   3.673   3.155 -0.1616  0.5101  1.5008
11225TIP3   OH255165   4.332   2.221  12.744  0.6619 -0.1643 -0.6535
11225TIP3    H155166   4.272   2.291  12.719  0.6846  0.3098  0.5280
11225TIP3    H255167   4.335   2.163  12.668 -0.6103  0.2609 -1.0581
11226TIP3   OH255168   0.923   6.586   2.453 -0.6056  0.2961 -0.3831
11226TIP3    H155169   1.005   6.626   2.482 -0.8196  1.0694 -0.8253
11226TIP3    H255170   0.949   6.500   2.419  0.1758  0.9397 -1.4808
11227TIP3   OH255171   3.105   6.639  17.019  0.1146  0.1029 -0.2095
11227TIP3    H155172   3.045   6.667  17.088  1.2109  0.5486  0.5925
11227TIP3    H255173   3.140   6.555  17.050  0.9631  0.5277  0.0254
11228TIP3   OH255174   0.526   4.842   1.580  0.0427 -0.1014  0.3327
11228TIP3    H155175   0.440   4.804   1.561 -0.3939  0.5773  0.8527
11228TIP3    H255176   0.540   4.905   1.510  0.4499 -0.7242 -0.1492
11229TIP3   OH255177   5.337   2.301  14.729 -0.1842  0.1274  0.2374
11229TIP3    H155178   5.346   2.207  14.717 -0.8868  0.0983 -0.1238
11229TIP3    H255179   5.373   2.339  14.649 -0.8175  0.1208 -0.0531
11230TIP3   OH255180   2.829   3.120  15.105 -0.2980  0.0286  0.4128
11230TIP3    H155181   2.908   3.081  15.141 -0.4615  1.9645  3.1573
11230TIP3    H255182   2.757   3.081  15.154 -0.5393  2.6727  2.3835
11231TIP3   OH255183   0.505   1.424  12.939 -0.4292 -0.0877 -0.6980
11231TIP3    H155184   0.577   1.454  12.994 -1.3173  1.8884 -0.5322
11231TIP3    H255185   0.545   1.407  12.854  0.4651 -0.3766 -0.2258
11232TIP3   OH255186   5.868   3.077   5.961 -0.3267 -0.2374  0.1172
11232TIP3    H155187   5.881   3.007   5.897 -3.5181  0.6918 -1.7955
11232TIP3    H255188   5.864   3.032   6.045  0.5589 -1.9667 -0.6999
11233TIP3   OH255189   0.119   4.655   4.424  0.4578 -0.4009 -0.4629
11233TIP3    H155190   0.163   4.590   4.479  0.3436 -1.1217 -1.1966
11233TIP3    H255191   0.049   4.689   4.479  0.5984 -0.8139 -0.0199
11234TIP3   OH255192   1.566   2.523   0.122  0.4267  0.2722 -0.3595
11234TIP3    H155193   1.510   2.580   0.069 -0.3243 -0.8936 -0.8548
11234TIP3    H255194   1.536   2.538   0.212  1.3213  1.8243 -0.2759
11235TIP3   OH255195   6.131   0.966  11.723 -0.2118 -0.3787 -0.1678
11235TIP3    H155196   6.062   0.929  11.667 -0.3089 -0.3625 -0.0599
11235TIP3    H255197   6.143   0.901  11.792 -0.4674 -0.1548  0.0900
11236TIP3   OH255198   0.267   1.367   4.106  0.3253 -0.2995 -0.2004
11236TIP3    H155199   0.204   1.438   4.116  1.1305  0.1327  3.3507
11236TIP3    H255200   0.333   1.401   4.046 -0.2226  1.2796  0.0534
11237TIP3   OH255201   3.409   5.726  16.599 -0.0953 -0.1629 -0.7672
11237TIP3    H155202   3.342   5.682  16.547  0.2919 -0.0464 -1.3762
11237TIP3    H255203   3.382   5.712  16.690 -0.3550 -1.0434 -0.9697
11238TIP3   OH255204   4.192   2.334  11.136 -0.9568  0.7259 -0.3413
11238TIP3    H155205   4.121   2.349  11.074 -0.9612 -2.0280 -1.1026
11238TIP3    H255206   4.250   2.271  11.093 -0.7694 -1.0147  2.2409
11239TIP3   OH255207   4.602   4.356   0.308 -0.0802  0.4013 -0.0935
11239TIP3    H155208   4.555   4.314   0.236  1.3968  0.1802 -0.9803
11239TIP3    H255209   4.628   4.284   0.365 -3.0437  0.7305  1.8914
11240TIP3   OH255210   0.978   2.581   0.663  0.3242 -0.7850  0.1047
11240TIP3    H155211   0.973   2.614   0.753  0.5715 -1.0024  0.1996
11240TIP3    H255212   1.002   2.658   0.611  0.4287 -0.7118  0.2593
11241TIP3   OH255213   1.845   2.950  15.610 -0.6618 -0.0657 -0.3251
11241TIP3    H155214   1.781   2.971  15.541 -0.1987  2.8456  0.0056
11241TIP3    H255215   1.880   3.035  15.636  1.9626 -1.4149  0.8714
11242TIP3   OH255216   2.060   5.730  11.066 -0.3416  0.4543 -0.0738
11242TIP3    H155217   2.106   5.701  10.987  3.1516  1.9185  1.2229
11242TIP3    H255218   2.129   5.743  11.131 -2.3702  4.1746  1.6985
11243TIP3   OH255219   0.011   0.529  16.361 -0.0191  0.0379  0.1642
11243TIP3    H155220   0.014   0.434  16.344 -1.9996  0.1339 -1.0478
11243TIP3    H255221   0.097   0.560  16.335 -0.6487 -0.8797 -3.7633
11244TIP3   OH255222   5.744   5.056   1.932 -0.2203 -0.0843  0.3450
11244TIP3    H155223   5.777   5.045   2.021 -0.8037  1.8390  0.8339
11244TIP3    H255224   5.666   5.110   1.942 -1.7866 -1.9429 -1.0918
11245TIP3   OH255225   0.859   5.971  16.167 -0.0251  0.0031 -0.2798
11245TIP3    H155226   0.875   5.900  16.230 -0.1805 -0.2954 -0.5693
11245TIP3    H255227   0.844   5.926  16.084 -0.8790  0.3326 -0.3156
11246TIP3   OH255228   1.918   1.419   1.513 -0.0909 -0.1273  0.2996
11246TIP3    H155229   2.009   1.389   1.506 -0.0679 -0.3671  1.4014
11246TIP3    H255230   1.915   1.464   1.598 -0.7438  0.8228 -0.2143
11247TIP3   OH255231   1.037   2.002  16.163 -0.4249  0.2491  0.1894
11247TIP3    H155232   0.961   1.998  16.222  0.4206 -0.6184  1.2694
11247TIP3    H255233   1.010   1.954  16.085 -0.6248 -1.0235  1.0177
11248TIP3   OH255234   2.713   2.590  14.493 -0.0297 -0.1436  0.4548
11248TIP3    H155235   2.779   2.654  14.520 -0.7890  1.1052 -0.5218
11248TIP3    H255236   2.640   2.603  14.555 -0.7932  1.0384 -0.6337
11249TIP3   OH255237   3.495   3.070   2.094 -0.2865 -0.4753 -0.4898
11249TIP3    H155238   3.556   3.008   2.134 -1.9017 -2.1031 -0.3653
11249TIP3    H255239   3.477   3.134   2.162  2.7347  1.2840 -1.1593
11250TIP3   OH255240   1.771   3.743   1.623  0.5392  0.1924  0.5524
11250TIP3    H155241   1.830   3.669   1.608  1.4471  1.2715 -1.5516
11250TIP3    H255242   1.720   3.751   1.543 -0.6124  0.9575  1.3146
11251TIP3   OH255243   6.508   4.141   2.859  0.3799  0.9194 -0.3600
11251TIP3    H155244   6.579   4.091   2.819 -0.9856 -0.0397 -1.6817
11251TIP3    H255245   6.493   4.214   2.800 -1.4477 -0.3407 -1.5547
11252TIP3   OH255246   5.707   4.779   2.296 -0.0457 -0.2987  0.0186
11252TIP3    H155247   5.641   4.767   2.364 -0.2101  0.4120 -0.0051
11252TIP3    H255248   5.777   4.718   2.318 -0.1483 -0.1466  0.7669
11253TIP3   OH255249   6.857   0.059   6.856  0.2895  0.1988 -0.1396
11253TIP3    H155250   6.843   0.152   6.838  1.5822  0.2723 -0.8899
11253TIP3    H255251   6.934   0.036   6.804  0.9501 -0.9007  1.2645
11254TIP3   OH255252   2.859   5.346  12.320 -0.0825 -0.1286 -0.2656
11254TIP3    H155253   2.867   5.422  12.262 -0.1471 -0.0798 -0.2113
11254TIP3    H255254   2.946   5.335  12.358 -0.6462  1.4753  1.6604
11255TIP3   OH255255   1.049   4.744  15.427 -0.5612 -0.0227  0.2950
11255TIP3    H155256   1.019   4.654  15.419 -3.9184  1.1348 -2.9692
11255TIP3    H255257   1.123   4.750  15.367 -1.3931 -0.2836 -0.7812
11256TIP3   OH255258   6.097   1.096  11.082 -0.2198 -0.5266 -0.1846
11256TIP3    H155259   6.030   1.160  11.105 -0.9202 -1.1432 -0.4598
11256TIP3    H255260   6.122   1.118  10.992  1.7028  1.1789  0.6750
11257TIP3   OH255261   2.764   5.061   0.257  0.3022  0.6936  0.1359
11257TIP3    H155262   2.830   5.075   0.188  1.1788 -0.5446  0.6688
11257TIP3    H255263   2.779   5.132   0.319  1.5146  0.1597  0.4989
11258TIP3   OH255264   6.775   0.927  11.726 -0.2216  0.3537  0.1771
11258TIP3    H155265   6.681   0.936  11.708 -0.3212 -0.3946  0.2652
11258TIP3    H255266   6.790   0.985  11.801 -0.0501  2.5453 -1.4677
11259TIP3   OH255267   4.675   1.349   0.808  0.3388  0.2449 -0.0181
11259TIP3    H155268   4.761   1.368   0.847  0.8069 -0.5502 -0.6044
11259TIP3    H255269   4.616   1.413   0.846  1.3790  1.3904 -0.2854
11260TIP3   OH255270   0.477   2.689  15.688 -0.1006  0.1235 -0.0294
11260TIP3    H155271   0.490   2.780  15.714  1.1858 -0.5935  2.0912
11260TIP3    H255272   0.411   2.656  15.749  0.2849 -0.6610 -0.0369
11261TIP3   OH255273   5.220   4.394   3.460 -0.5434  0.3668 -0.0196
11261TIP3    H155274   5.202   4.303   3.439 -1.4667  0.2972  1.0140
11261TIP3    H255275   5.170   4.411   3.539  0.1049  1.6007  0.1528
11262TIP3   OH255276   2.368   4.401   3.123 -0.3877  0.3662 -0.5062
11262TIP3    H155277   2.339   4.351   3.046 -1.4387 -0.2933  0.2899
11262TIP3    H255278   2.405   4.335   3.181  0.6788  0.9033 -0.5551
11263TIP3   OH255279   1.321   5.114  11.886 -0.4446 -0.3690  0.3668
11263TIP3    H155280   1.248   5.085  11.942 -1.2251  0.2036 -0.3315
11263TIP3    H255281   1.306   5.208  11.874  0.9091 -0.0549  0.9177
11264TIP3   OH255282   4.958   4.341  13.034  0.2691 -0.4233  0.0040
11264TIP3    H155283   5.021   4.272  13.013  1.1743  0.6524 -0.9650
11264TIP3    H255284   5.012   4.419  13.050 -0.7803  0.3686 -0.1859
11265TIP3   OH255285   0.913   4.574   3.739 -0.0019 -0.0629 -0.6308
11265TIP3    H155286   0.827   4.617   3.739 -0.9159 -1.6971  1.7720
11265TIP3    H255287   0.942   4.580   3.648 -1.7331  2.2771 -1.1446
11266TIP3   OH255288   2.704   0.335   5.773  0.2329 -1.0374 -0.5460
11266TIP3    H155289   2.698   0.430   5.766  1.2047 -0.9594 -0.3594
11266TIP3    H255290   2.733   0.319   5.862  2.0364 -1.4121 -1.1624
11267TIP3   OH255291   3.236   4.452   5.272 -0.4088 -0.0687 -0.0516
11267TIP3    H155292   3.230   4.356   5.280  0.4864 -0.0371  1.3204
11267TIP3    H255293   3.271   4.466   5.184 -0.6721 -0.9944 -0.3238
11268TIP3   OH255294   0.977   0.809   0.964  0.0278 -0.0999  0.0277
11268TIP3    H155295   1.024   0.887   0.936  1.6214 -0.9144  0.3495
11268TIP3    H255296   1.043   0.740   0.967 -1.5211 -1.7923 -1.3964
11269TIP3   OH255297   6.684   2.531  13.055 -0.2694 -0.4967  0.2041
11269TIP3    H155298   6.703   2.608  13.002 -0.2307 -0.0772  0.8228
11269TIP3    H255299   6.610   2.489  13.010  0.3539 -0.6632 -0.7003
11270TIP3   OH255300   0.489   1.091  13.629 -0.0683  0.4541  0.5515
11270TIP3    H155301   0.397   1.104  13.606 -0.1427  0.0329  0.5948
11270TIP3    H255302   0.532   1.071  13.546  0.2495  1.9932  0.3152
11271TIP3   OH255303   0.655   1.827   0.377 -0.3132 -0.3324  0.0474
11271TIP3    H155304   0.712   1.754   0.402  1.8357  1.5959  1.1021
11271TIP3    H255305   0.652   1.824   0.281  3.3455  0.6552 -0.2244
11272TIP3   OH255306   0.151   4.126   2.837  0.3407 -0.0360 -0.1712
11272TIP3    H155307   0.185   4.047   2.795 -1.3100 -0.8445 -0.0585
11272TIP3    H255308   0.078   4.153   2.782 -0.1735  0.4250  0.7244
11273TIP3   OH255309   2.238   6.139   5.214  0.4577  0.1991  0.5522
11273TIP3    H155310   2.255   6.210   5.151  1.0008 -0.3404  0.0783
11273TIP3    H255311   2.276   6.061   5.173 -3.4612 -1.2801 -0.8209
11274TIP3   OH255312   0.311   1.044   4.629 -0.2080  0.1007  0.2830
11274TIP3    H155313   0.368   1.097   4.685 -1.8254  2.8915 -0.5107
11274TIP3    H255314   0.353   0.958   4.626  2.9658  1.4833  1.1404
11275TIP3   OH255315   5.188   0.988  15.166 -0.0196  0.1712  0.3502
11275TIP3    H155316   5.248   0.916  15.184  1.2896  1.2735  0.5968
11275TIP3    H255317   5.102   0.957  15.195  0.2107 -1.8256 -0.9301
11276TIP3   OH255318   5.067   5.994  15.672 -0.2206 -0.1578 -0.3225
11276TIP3    H155319   4.976   6.007  15.698  0.4244  0.8834  1.5814
11276TIP3    H255320   5.116   5.988  15.755  1.5451  0.0283 -1.2940
11277TIP3   OH255321   2.024   4.742  17.073 -0.3202  0.9238 -0.1628
11277TIP3    H155322   2.090   4.680  17.104  0.2322  1.1577 -0.8463
11277TIP3    H255323   2.000   4.792  17.150  0.7444  1.2453 -0.0215
11278TIP3   OH255324   5.278   5.242   3.055 -0.4626 -0.4625  0.1174
11278TIP3    H155325   5.279   5.155   3.095  1.0024 -0.3517  0.3537
11278TIP3    H255326   5.213   5.291   3.107 -2.6685 -1.8901 -1.1518
11279TIP3   OH255327   4.369   4.608  15.917  0.2025 -0.3619 -0.4244
11279TIP3    H155328   4.364   4.579  15.826 -0.3328 -2.1783  0.1332
11279TIP3    H255329   4.463   4.612  15.936  0.3517  0.9075 -1.2781
11280TIP3   OH255330   0.019   6.089   5.340  0.0179  0.0871  0.0274
11280TIP3    H155331   0.031   6.163   5.280  1.6817  0.5627  0.8756
11280TIP3    H255332   0.092   6.030   5.320  0.5968  0.2462  1.5350
11281TIP3   OH255333   3.139   6.834  13.913  0.5808 -0.6865 -0.1171
11281TIP3    H155334   3.188   6.879  13.844  0.7311  0.2135  0.5524
11281TIP3    H255335   3.172   6.745  13.912  0.5391 -0.7116 -1.2423
11282TIP3   OH255336   1.628   6.078  11.402 -0.8022 -0.2591 -0.3888
11282TIP3    H155337   1.651   6.014  11.334 -0.9555  1.1773 -1.8461
11282TIP3    H255338   1.559   6.034  11.453  0.0514 -1.7756 -0.4689
11283TIP3   OH255339   5.191   1.752   6.297  0.2291  0.2664  0.5266
11283TIP3    H155340   5.112   1.784   6.254  0.2571 -1.3361 -0.7782
11283TIP3    H255341   5.160   1.686   6.359  0.5674 -0.6466 -0.2665
11284TIP3   OH255342   1.264   2.219  16.545  0.1359 -0.4773 -0.1688
11284TIP3    H155343   1.201   2.186  16.609 -2.8972  2.7872 -1.0983
11284TIP3    H255344   1.269   2.150  16.479 -0.8048 -1.7106  0.9815
11285TIP3   OH255345   3.056   1.662   1.664  0.3805 -0.5043  0.2978
11285TIP3    H155346   2.990   1.704   1.609  0.8764  1.9819  1.5030
11285TIP3    H255347   3.137   1.708   1.645  1.3567 -2.0757  0.4514
11286TIP3   OH255348   3.666   1.927  12.790 -0.1455 -0.4044 -0.1563
11286TIP3    H155349   3.630   1.975  12.716  0.7041 -1.0764 -1.0463
11286TIP3    H255350   3.662   1.988  12.864 -1.7372  0.0062 -0.5468
11287TIP3   OH255351   5.150   2.384   3.153 -0.6605 -0.5599 -0.0566
11287TIP3    H155352   5.093   2.319   3.111 -0.7397 -0.5769  0.0753
11287TIP3    H255353   5.188   2.434   3.081 -0.4886 -0.8456 -0.1653
11288TIP3   OH255354   5.625   0.346  15.982  0.6305 -0.1609 -0.1660
11288TIP3    H155355   5.617   0.392  15.899 -1.2308 -0.0440  0.0445
11288TIP3    H255356   5.720   0.342  15.998  1.2001 -1.8902 -3.2151
11289TIP3   OH255357   2.676   2.898  12.781 -0.4314 -0.3403 -0.0541
11289TIP3    H155358   2.591   2.864  12.754 -0.2811 -0.4471 -0.4136
11289TIP3    H255359   2.663   2.992  12.792 -0.0203  0.0935 -2.6119
11290TIP3   OH255360   6.332   0.302   4.472  0.5120 -0.4826 -0.1513
11290TIP3    H155361   6.355   0.379   4.524  5.6050 -1.6618 -0.1706
11290TIP3    H255362   6.370   0.318   4.386  0.6953 -2.5291 -0.5181
11291TIP3   OH255363   2.645   0.116  12.461 -0.4891 -0.3564  0.4613
11291TIP3    H155364   2.550   0.112  12.474 -0.4092 -0.8107  0.9707
11291TIP3    H255365   2.658   0.077  12.375 -0.8127  0.2655  0.1230
11292TIP3   OH255366   5.743   2.921  14.225 -0.4588  0.3327 -0.1516
11292TIP3    H155367   5.780   2.852  14.280 -0.0039  0.2520 -0.5457
11292TIP3    H255368   5.820   2.965  14.186 -0.7426 -1.0975 -2.5469
11293TIP3   OH255369   0.543   1.802   2.951  0.1439  0.7484 -0.3039
11293TIP3    H155370   0.501   1.802   2.865 -0.5658 -0.5687  0.0156
11293TIP3    H255371   0.623   1.854   2.939 -0.1916  0.9931 -1.6228
11294TIP3   OH255372   3.938   1.154  14.827 -0.8421  0.0008  0.3433
11294TIP3    H155373   4.020   1.146  14.777 -0.0468  0.1732  1.5784
11294TIP3    H255374   3.870   1.126  14.766  0.0195  0.8390 -1.0454
11295TIP3   OH255375   4.333   6.131  12.718 -0.0207 -0.4693 -0.1812
11295TIP3    H155376   4.341   6.039  12.694  0.8828  0.1226 -2.3818
11295TIP3    H255377   4.319   6.176  12.635  2.3742  1.6554  0.4276
11296TIP3   OH255378   1.809   6.862  13.632 -0.1091 -0.2695 -0.2283
11296TIP3    H155379   1.893   6.847  13.590  0.0603  0.4725 -0.1647
11296TIP3    H255380   1.753   6.793  13.598  0.1264  0.0839 -1.3910
11297TIP3   OH255381   5.613   5.755   5.183 -0.2859  0.3109  0.9986
11297TIP3    H155382   5.641   5.697   5.254  0.4830  0.5780  0.9332
11297TIP3    H255383   5.693   5.801   5.158 -0.5120  0.1171 -0.1403
11298TIP3   OH255384   2.645   4.537  15.574  0.4439 -1.0234 -0.3248
11298TIP3    H155385   2.614   4.628  15.564 -0.9166 -1.5030 -0.7296
11298TIP3    H255386   2.611   4.510  15.659 -1.0466 -1.8245 -1.1302
11299TIP3   OH255387   1.515   5.705  13.390 -0.3796  0.7994  0.3217
11299TIP3    H155388   1.580   5.651  13.344 -0.7624 -1.2395  2.0160
11299TIP3    H255389   1.454   5.733  13.321  1.1963  1.1706 -0.9928
11300TIP3   OH255390   2.449   3.307  10.499 -0.0534  0.5449 -0.4647
11300TIP3    H155391   2.372   3.256  10.471  0.8963 -0.9586 -0.4176
11300TIP3    H255392   2.514   3.291  10.431 -0.0471  2.6023 -1.0290
11301TIP3   OH255393   2.685   0.167  11.107 -0.6273  0.2152  0.3034
11301TIP3    H155394   2.614   0.109  11.080 -1.0973  1.1629 -0.5451
11301TIP3    H255395   2.693   0.231  11.036  0.5512  0.5983  0.7469
11302TIP3   OH255396   0.358   0.083   0.219 -0.0144 -0.4327  0.2274
11302TIP3    H155397   0.310   0.139   0.280  0.1001  0.4286 -0.4641
11302TIP3    H255398   0.441   0.127   0.206  0.0553 -0.7317 -0.3706
11303TIP3   OH255399   1.719   6.028   1.215  0.9188  0.3448  0.0488
11303TIP3    H155400   1.648   5.993   1.161  0.0332 -0.5770  1.7379
11303TIP3    H255401   1.799   6.008   1.166  0.0828  1.2266 -1.8022
11304TIP3   OH255402   2.119   1.812   0.242 -0.0756  0.1170 -0.2662
11304TIP3    H155403   2.089   1.777   0.158 -0.0821 -2.3418  0.6981
11304TIP3    H255404   2.076   1.897   0.249 -1.6074 -0.4665 -1.8805
11305TIP3   OH255405   3.171   4.009  14.334 -0.0269 -0.1646  0.1295
11305TIP3    H155406   3.080   4.009  14.306 -0.6275 -1.1797  1.9273
11305TIP3    H255407   3.172   3.955  14.413  2.2435 -0.6643 -0.1802
11306TIP3   OH255408   2.641   4.804   0.580 -0.2829  0.1293  0.1430
11306TIP3    H155409   2.603   4.877   0.532  0.5438  0.4436 -0.0471
11306TIP3    H255410   2.731   4.830   0.597 -0.6443  0.2048  2.2246
11307TIP3   OH255411   1.631   3.835   2.463 -0.4889  0.7280  0.3655
11307TIP3    H155412   1.706   3.842   2.522 -0.9136  3.5222  0.7025
11307TIP3    H255413   1.671   3.833   2.375  0.0279 -0.5398  0.6004
11308TIP3   OH255414   5.335   0.499   2.499  0.1237  0.3835 -0.4505
11308TIP3    H155415   5.319   0.450   2.580 -0.3074 -0.6563 -1.1426
11308TIP3    H255416   5.394   0.569   2.525 -1.3662  1.1230  1.1138
11309TIP3   OH255417   2.259   0.417   5.115  1.0675 -0.1916 -0.0889
11309TIP3    H155418   2.312   0.494   5.134 -1.1585  1.4604 -0.1142
11309TIP3    H255419   2.205   0.405   5.193  0.9824 -1.3818 -0.3154
11310TIP3   OH255420   1.446   3.619  11.489 -0.1195  0.6394  0.1143
11310TIP3    H155421   1.380   3.551  11.477 -0.9308  1.5546 -0.8122
11310TIP3    H255422   1.413   3.673  11.560 -0.3570  1.0656 -0.3128
11311TIP3   OH255423   4.085   5.970   1.887  0.0990 -0.2384 -0.3710
11311TIP3    H155424   4.095   5.958   1.793  1.2309 -1.6174 -0.1093
11311TIP3    H255425   4.023   6.043   1.896  0.8599  0.6774 -2.1702
11312TIP3   OH255426   6.735   5.083   3.573 -0.2146  0.3318 -0.3687
11312TIP3    H155427   6.831   5.083   3.569 -0.0755  1.6066  1.5070
11312TIP3    H255428   6.710   5.160   3.522 -0.3368 -0.5880 -1.7396
11313TIP3   OH255429   4.885   4.468   4.202  0.3203  0.2287  0.0843
11313TIP3    H155430   4.827   4.480   4.127  1.3402 -1.0991 -0.9771
11313TIP3    H255431   4.857   4.535   4.265 -1.5166  0.4374 -0.8716
11314TIP3   OH255432   5.006   5.346  12.915  0.1165 -0.4852 -0.0840
11314TIP3    H155433   5.025   5.419  12.973  1.1241 -1.2598  0.6049
11314TIP3    H255434   5.027   5.379  12.827 -0.9825  0.5464  0.0226
11315TIP3   OH255435   0.044   0.265  13.288  0.5046  0.1854 -0.2276
11315TIP3    H155436   0.119   0.220  13.249  0.3092 -0.9988  0.6772
11315TIP3    H255437  -0.031   0.236  13.237  0.3897 -0.4697  0.3001
11316TIP3   OH255438   1.287   0.700   4.013 -0.1396 -0.5056  0.0559
11316TIP3    H155439   1.348   0.652   4.069  1.1743  1.3074  0.2684
11316TIP3    H255440   1.201   0.675   4.045  0.5379 -1.1847  1.4571
11317TIP3   OH255441   4.181   2.442   1.199 -0.8964  0.0836 -0.0467
11317TIP3    H155442   4.255   2.471   1.253 -1.6364  0.2191  0.9358
11317TIP3    H255443   4.107   2.438   1.261 -1.7095 -0.0308 -1.0055
11318TIP3   OH255444   2.386   5.830  11.612  0.7231 -0.2718  0.4449
11318TIP3    H155445   2.298   5.861  11.592  0.0664 -0.9433  2.0722
11318TIP3    H255446   2.444   5.894  11.571 -0.5489  1.8320  1.7334
11319TIP3   OH255447   4.746   3.048  15.297  0.2014 -0.0232  0.2428
11319TIP3    H155448   4.653   3.044  15.319  0.3723  0.6289  1.1652
11319TIP3    H255449   4.779   3.122  15.348  0.8771  0.8675 -1.4080
11320TIP3   OH255450   5.865   1.387   6.556 -0.6067  0.7212 -0.7581
11320TIP3    H155451   5.786   1.398   6.608 -0.7998 -1.9167 -0.3625
11320TIP3    H255452   5.936   1.421   6.611 -0.8850 -1.4017  1.0717
11321TIP3   OH255453   3.691   0.220   0.908 -0.2954 -0.5637  0.7340
11321TIP3    H155454   3.782   0.245   0.892 -0.3301 -0.9242 -0.0440
11321TIP3    H255455   3.666   0.271   0.985  0.0578  0.7676  0.0026
11322TIP3   OH255456   5.360   4.074  12.774 -0.3181 -0.2556 -0.3262
11322TIP3    H155457   5.297   4.035  12.835  0.2008 -0.4541  0.0954
11322TIP3    H255458   5.445   4.063  12.818  0.1385 -0.9399 -1.3493
11323TIP3   OH255459   2.907   2.018   5.741 -0.3998  0.4453  0.4370
11323TIP3    H155460   2.888   1.996   5.832  1.7055  1.6610  1.2542
11323TIP3    H255461   2.997   1.987   5.727 -0.9762 -0.5134 -1.5496
11324TIP3   OH255462   4.300   4.999  15.200 -0.2044  0.1960 -0.3219
11324TIP3    H155463   4.348   4.925  15.239 -1.6247 -1.3046 -1.2846
11324TIP3    H255464   4.367   5.066  15.187  1.0908 -0.7952  0.8715
11325TIP3   OH255465   1.846   4.390  13.971  0.3133 -0.2121  0.7712
11325TIP3    H155466   1.761   4.362  14.006  0.3310  0.1975  1.1604
11325TIP3    H255467   1.837   4.484  13.959  0.7894 -0.1243  1.0550
11326TIP3   OH255468   0.651   1.411  15.590 -0.2127 -0.4795 -0.9156
11326TIP3    H155469   0.594   1.374  15.522 -0.1756 -2.9058  0.2360
11326TIP3    H255470   0.710   1.339  15.613  0.8948  0.8116  0.4777
11327TIP3   OH255471   2.471   3.913  13.108 -0.1340  0.3640 -0.0107
11327TIP3    H155472   2.534   3.856  13.063  1.0666  0.9546  0.8558
11327TIP3    H255473   2.476   3.996  13.061  0.1292  0.5760  0.3932
11328TIP3   OH255474   0.217   0.281   5.868 -0.4588  0.4801  0.2103
11328TIP3    H155475   0.166   0.304   5.946 -1.1690  1.0844 -0.4214
11328TIP3    H255476   0.177   0.331   5.798  0.2473  0.0218 -0.5309
11329TIP3   OH255477   4.098   0.509  12.188 -0.0951 -0.3168  0.6138
11329TIP3    H155478   4.064   0.536  12.273  2.4170  1.3446  1.2079
11329TIP3    H255479   4.078   0.582  12.129  4.1243  1.8797  1.5295
11330TIP3   OH255480   0.101   1.830   4.548  0.2015  0.3542 -0.3183
11330TIP3    H155481   0.152   1.762   4.593 -1.7162 -0.0207  1.4654
11330TIP3    H255482   0.130   1.912   4.588  0.2447  0.2614 -0.1585
11331TIP3   OH255483   0.604   2.761   1.054 -0.1429  0.3396 -0.3858
11331TIP3    H155484   0.686   2.727   1.090  0.0694  1.1521 -0.0840
11331TIP3    H255485   0.546   2.767   1.130 -0.9523 -1.5237 -0.8115
11332TIP3   OH255486   6.544   6.377  14.389  0.3809 -0.0405  0.0324
11332TIP3    H155487   6.593   6.351  14.467  0.1597  2.4773  1.1456
11332TIP3    H255488   6.607   6.425  14.335 -0.0554  0.4083 -0.0914
11333TIP3   OH255489   5.212   3.790  14.349  0.4675  0.5983  0.0260
11333TIP3    H155490   5.134   3.793  14.294 -0.5377 -0.7013  1.2743
11333TIP3    H255491   5.187   3.733  14.423  3.0799 -1.1325 -0.2731
11334TIP3   OH255492   6.507   3.209   3.283  0.1704 -0.2235 -0.3920
11334TIP3    H155493   6.455   3.149   3.229  1.5121 -1.2671 -0.5894
11334TIP3    H255494   6.568   3.250   3.221  1.7429 -1.4554  0.2865
11335TIP3   OH255495   2.205   0.517  13.359 -0.4417 -0.0828 -0.3894
11335TIP3    H155496   2.138   0.526  13.427  0.4841  0.2623  0.5094
11335TIP3    H255497   2.232   0.426  13.364  0.1962  0.1364  0.2737
11336TIP3   OH255498   2.667   2.877   1.102 -0.3255  0.1737 -0.2676
11336TIP3    H155499   2.725   2.885   1.178  0.3478 -0.5093 -0.6884
11336TIP3    H255500   2.722   2.903   1.027 -1.2570  1.7567 -0.4267
11337TIP3   OH255501   5.957   1.949   0.714 -0.1088  0.1552  0.2871
11337TIP3    H155502   6.030   1.888   0.725  0.7815  0.6968 -1.9794
11337TIP3    H255503   5.888   1.897   0.674  0.4712  0.4654 -1.1779
11338TIP3   OH255504   0.114   4.693  10.930 -1.0463 -0.1717 -0.4953
11338TIP3    H155505   0.041   4.737  10.975 -1.5563 -0.0735 -1.3999
11338TIP3    H255506   0.074   4.616  10.890 -0.2316 -1.2743  0.7449
11339TIP3   OH255507   0.108   6.366  13.496 -0.5636  0.3595 -0.7624
11339TIP3    H155508   0.077   6.302  13.432  0.6886  0.4350 -1.4725
11339TIP3    H255509   0.096   6.451  13.454 -1.3842  0.5447 -0.1797
11340TIP3   OH255510   0.355   0.922  12.333  0.2255 -0.0022  0.8265
11340TIP3    H155511   0.270   0.885  12.360 -0.1075 -0.0438 -0.2227
11340TIP3    H255512   0.368   0.888  12.245 -0.0368  2.2732 -0.1438
11341TIP3   OH255513   2.641   0.512   4.299 -0.4759 -0.2711 -0.4919
11341TIP3    H155514   2.550   0.491   4.320 -0.8080  1.6917  0.2554
11341TIP3    H255515   2.637   0.556   4.214  0.1352 -2.5049 -1.7532
11342TIP3   OH255516   1.972   3.957  14.786 -0.1711  0.1826 -0.0666
11342TIP3    H155517   2.056   3.939  14.828  0.3434  0.4156 -0.9593
11342TIP3    H255518   1.934   3.870  14.769  1.1958 -0.0681 -2.1869
11343TIP3   OH255519   5.744   3.523  13.167 -0.2993  0.3228  0.0767
11343TIP3    H155520   5.747   3.528  13.262 -2.8820 -0.0180  0.2546
11343TIP3    H255521   5.785   3.605  13.137  4.5253 -1.3569  1.1930
11344TIP3   OH255522   5.734   5.311  16.407 -0.0145 -0.3891  0.4105
11344TIP3    H155523   5.821   5.303  16.368 -0.2643 -0.3064 -0.1695
11344TIP3    H255524   5.677   5.262  16.348 -0.7437  1.4306 -0.4666
11345TIP3   OH255525   6.649   2.623  13.578  0.2494 -0.0380  0.6694
11345TIP3    H155526   6.612   2.646  13.492  0.6469 -0.6429  0.3236
11345TIP3    H255527   6.737   2.660  13.576  1.0023 -1.7228 -0.0048
11346TIP3   OH255528   4.698   6.853  12.483 -0.1428 -0.5189 -0.1059
11346TIP3    H155529   4.767   6.797  12.518  1.0187  0.3898 -0.8759
11346TIP3    H255530   4.641   6.871  12.558 -0.5363 -2.6541  0.1778
11347TIP3   OH255531   0.633   4.253  16.992 -0.5017  0.3527  0.0923
11347TIP3    H155532   0.653   4.272  17.084 -0.1116  0.7658 -0.0733
11347TIP3    H255533   0.571   4.180  16.995 -0.3414  0.2381  0.6764
11348TIP3   OH255534   0.326   1.249   3.526 -0.5795 -0.1265 -0.1340
11348TIP3    H155535   0.295   1.198   3.452 -1.6642  0.1401  0.1276
11348TIP3    H255536   0.422   1.247   3.517 -0.5796 -2.1821 -0.1208
11349TIP3   OH255537   2.548   4.920  11.083  0.1477  0.9234  0.1919
11349TIP3    H155538   2.454   4.927  11.102 -0.0166  0.9543 -0.6081
11349TIP3    H255539   2.589   4.980  11.146 -0.5635  2.6619 -0.9252
11350TIP3   OH255540   2.836   1.297   4.568 -0.1958 -0.3776  0.4018
11350TIP3    H155541   2.922   1.290   4.608  0.1306  0.2406 -0.1846
11350TIP3    H255542   2.790   1.363   4.620 -0.4819 -1.0192  0.9854
11351TIP3   OH255543   2.937   2.799   3.571  0.1781 -0.2346 -0.2412
11351TIP3    H155544   2.853   2.813   3.615  0.6170 -0.6091  0.7576
11351TIP3    H255545   2.979   2.729   3.622  0.0430 -1.8687 -2.2316
11352TIP3   OH255546   3.550   1.678   4.788 -0.0615 -0.2205  0.3815
11352TIP3    H155547   3.475   1.732   4.813  1.2996  1.5250  0.8955
11352TIP3    H255548   3.551   1.607   4.851 -2.1719 -1.1996 -0.5837
11353TIP3   OH255549   0.063   0.984  11.974  0.3208  0.1260  0.6731
11353TIP3    H155550   0.146   0.979  12.022  0.6005  2.5671  0.5789
11353TIP3    H255551  -0.004   0.996  12.042  0.4723  1.4862  0.6091
11354TIP3   OH255552   1.878   6.576   2.361 -0.0715 -0.1735  0.1823
11354TIP3    H155553   1.829   6.494   2.372 -0.0388 -0.0655  1.2072
11354TIP3    H255554   1.961   6.560   2.405 -0.3783  0.6801  1.0930
11355TIP3   OH255555   2.544   3.199  10.256  0.4250  0.5654 -0.3050
11355TIP3    H155556   2.558   3.145  10.179 -4.6843  1.4298 -2.1956
11355TIP3    H255557   2.536   3.288  10.222  2.9636  1.8730  2.0336
11356TIP3   OH255558   5.150   4.126   3.541 -0.2627 -0.3910  0.0557
11356TIP3    H155559   5.233   4.126   3.588  0.0788  0.5553 -0.5254
11356TIP3    H255560   5.170   4.090   3.455 -1.1557 -3.4570  0.9934
11357TIP3   OH255561   3.330   0.249   6.532 -0.5403  0.3970  0.2832
11357TIP3    H155562   3.332   0.157   6.559 -1.3391  0.7177  1.5623
11357TIP3    H255563   3.244   0.280   6.560 -0.0572  1.6912  0.4212
11358TIP3   OH255564   2.116   1.848  13.027 -0.7958 -0.4125  0.1069
11358TIP3    H155565   2.134   1.762  13.065 -0.6813 -0.1404  0.6772
11358TIP3    H255566   2.154   1.844  12.939 -0.5253 -0.8384  0.2414
11359TIP3   OH255567   6.508   5.417  14.771  0.0559 -0.3231  0.5954
11359TIP3    H155568   6.523   5.366  14.851 -0.9376  0.2915  1.1958
11359TIP3    H255569   6.588   5.406  14.720 -0.5334 -3.4821  0.1233
11360TIP3   OH255570   0.906   3.086  15.824  0.4792  0.3249 -0.2258
11360TIP3    H155571   0.888   3.038  15.743 -0.0380 -0.1418  0.1627
11360TIP3    H255572   0.966   3.030  15.873  0.9007  0.6688 -0.3364
11361TIP3   OH255573   0.677   0.903   1.440  0.4516 -0.1313  0.1808
11361TIP3    H155574   0.736   0.937   1.372  0.3171 -0.2613 -0.0021
11361TIP3    H255575   0.722   0.826   1.474  0.1427 -0.5505 -0.3375
11362TIP3   OH255576   4.811   6.532  14.013  0.3062 -0.2469 -0.0519
11362TIP3    H155577   4.772   6.563  14.095 -2.2299 -0.5058 -1.0694
11362TIP3    H255578   4.846   6.610  13.972 -0.4875  0.2710  0.2321
11363TIP3   OH255579   4.478   3.792  10.786 -0.5207 -0.5614 -0.2514
11363TIP3    H155580   4.451   3.852  10.716 -1.5909  0.0390  0.6546
11363TIP3    H255581   4.462   3.705  10.750 -3.5109 -0.2581  0.1304
11364TIP3   OH255582   6.787   1.808  16.041  0.7941  0.1437 -0.2180
11364TIP3    H155583   6.694   1.805  16.063  1.0904  2.0296  1.5237
11364TIP3    H255584   6.805   1.722  16.005 -1.1533 -1.0304  1.3900
11365TIP3   OH255585   3.653   1.258   1.417  0.0846  0.0694  0.1366
11365TIP3    H155586   3.655   1.295   1.505 -1.8284  0.4239  0.0865
11365TIP3    H255587   3.663   1.164   1.431  2.3401  0.3090  0.4781
11366TIP3   OH255588   3.103   6.270  16.788  0.5258  0.0920 -0.1860
11366TIP3    H155589   3.099   6.177  16.809 -0.4092  0.2283  0.2814
11366TIP3    H255590   3.169   6.276  16.718  1.6726 -0.7209  0.7786
11367TIP3   OH255591   6.811   6.291   6.005  0.1252  0.9709 -0.9350
11367TIP3    H155592   6.809   6.331   6.092 -0.2537 -0.6736 -0.1490
11367TIP3    H255593   6.745   6.339   5.955 -0.3259  1.3163 -0.0228
11368TIP3   OH255594   1.072   6.649  11.785  0.3463 -1.3281 -0.0961
11368TIP3    H155595   1.007   6.579  11.775 -0.4321 -0.5183 -0.8849
11368TIP3    H255596   1.031   6.725  11.744  1.5573 -0.6467 -0.0651
11369TIP3   OH255597   1.147   4.001   1.315 -0.2136 -0.7012 -0.3866
11369TIP3    H155598   1.174   3.953   1.394 -0.7396 -0.0179  0.2261
11369TIP3    H255599   1.144   3.934   1.247  1.9682 -0.9842 -0.2628
11370TIP3   OH255600   3.813   5.086   2.207 -0.3432  0.1316 -0.3137
11370TIP3    H155601   3.793   4.994   2.193 -0.1958  0.0184  0.1846
11370TIP3    H255602   3.907   5.088   2.228 -0.3202  0.4052 -0.4341
11371TIP3   OH255603   0.812   0.252  16.219 -0.1289  0.4204 -0.2439
11371TIP3    H155604   0.828   0.345  16.201  2.1313  0.3161  0.8760
11371TIP3    H255605   0.889   0.207  16.184 -0.7829 -0.9313  0.0117
11372TIP3   OH255606   6.799   3.719   3.140  0.0173 -0.6877  0.4611
11372TIP3    H155607   6.834   3.770   3.066 -1.0902 -1.6240 -0.7701
11372TIP3    H255608   6.798   3.629   3.107  1.8701 -1.5463  2.5555
11373TIP3   OH255609   4.079   6.500   3.124 -0.2852  0.3713  0.5655
11373TIP3    H155610   4.113   6.518   3.211  0.2879  0.2767  0.3665
11373TIP3    H255611   3.995   6.546   3.121 -0.7249 -0.3574  1.4725
11374TIP3   OH255612   5.178   5.460   1.705  0.3449  0.0003  0.6590
11374TIP3    H155613   5.118   5.420   1.768  0.4759 -0.9558  0.1893
11374TIP3    H255614   5.186   5.396   1.635 -1.3617  1.8287 -1.3467
11375TIP3   OH255615   0.481   6.601   3.358  0.7827  0.5438 -0.1240
11375TIP3    H155616   0.536   6.665   3.312  0.6839  0.4064 -0.4389
11375TIP3    H255617   0.436   6.554   3.288  1.3662 -0.3330  0.0808
11376TIP3   OH255618   4.826   6.311   4.021 -0.3287  0.3621  0.6235
11376TIP3    H155619   4.743   6.358   4.013 -0.3244  0.9244  2.9975
11376TIP3    H255620   4.865   6.346   4.102  0.7490 -2.1263  1.2634
11377TIP3   OH255621   6.169   2.697  17.020 -0.4330 -0.1264  0.5255
11377TIP3    H155622   6.187   2.763  17.086 -2.7956  1.8249 -0.6015
11377TIP3    H255623   6.255   2.666  16.992  0.9319  3.4018  0.2553
11378TIP3   OH255624   6.619   4.086  13.046  0.4570 -0.0314 -0.0534
11378TIP3    H155625   6.579   4.033  13.114  0.4146  1.0084  0.7557
11378TIP3    H255626   6.560   4.160  13.035  0.5655 -0.0862 -1.0900
11379TIP3   OH255627   2.581   3.969  14.475  0.2031 -0.1185 -0.2941
11379TIP3    H155628   2.603   4.057  14.507  0.3478 -0.4504  0.5645
11379TIP3    H255629   2.489   3.958  14.500 -0.1280  0.1901 -1.3519
11380TIP3   OH255630   1.069   3.169   2.360 -0.1548 -0.0422 -0.6273
11380TIP3    H155631   1.163   3.171   2.348 -0.0589 -0.0633  0.0654
11380TIP3    H255632   1.050   3.243   2.417 -0.4006 -0.7143  0.1831
11381TIP3   OH255633   6.463   1.352   4.471  0.0317  0.1905 -0.1329
11381TIP3    H155634   6.548   1.380   4.507 -0.1453 -0.0856  0.5246
11381TIP3    H255635   6.399   1.406   4.519 -0.2001 -0.0578 -0.1634
11382TIP3   OH255636   5.631   2.874  11.329  0.5364 -0.2669  0.1934
11382TIP3    H155637   5.607   2.878  11.422 -1.1209 -1.9080 -0.1169
11382TIP3    H255638   5.648   2.965  11.305 -0.4203  0.3645  1.7332
11383TIP3   OH255639   6.266   3.784   2.426 -0.2576  0.6578 -0.7443
11383TIP3    H155640   6.207   3.709   2.430  1.4481 -0.7047  0.5253
11383TIP3    H255641   6.261   3.823   2.513  1.3284 -0.0219 -0.3165
11384TIP3   OH255642   6.189   0.412   1.917 -0.1139 -0.5221  0.4983
11384TIP3    H155643   6.115   0.396   1.858  0.6894 -1.9835 -0.1753
11384TIP3    H255644   6.266   0.409   1.860  0.5184  0.2701  1.2926
11385TIP3   OH255645   1.702   0.290   3.751  0.0821  0.1387  0.3028
11385TIP3    H155646   1.645   0.284   3.674  1.3127 -1.5375 -0.5275
11385TIP3    H255647   1.657   0.240   3.818  0.4054 -0.9188 -0.2540
11386TIP3   OH255648   1.300   1.184  12.216 -0.7022  0.5578 -0.1628
11386TIP3    H155649   1.279   1.246  12.286  1.4237  0.6735  0.4615
11386TIP3    H255650   1.343   1.237  12.149 -0.7972  0.0995 -0.5952
11387TIP3   OH255651   6.620   6.444   1.634 -0.0259 -0.4673 -0.3050
11387TIP3    H155652   6.693   6.385   1.617  1.2380  1.4422 -2.1210
11387TIP3    H255653   6.648   6.497   1.709  2.3821  2.7850 -3.1577
11388TIP3   OH255654   5.662   5.737  12.601 -0.4395  0.2466 -0.0663
11388TIP3    H155655   5.724   5.767  12.534 -1.2700  0.0165 -0.9688
11388TIP3    H255656   5.707   5.751  12.684  0.8456  0.0106 -0.7058
11389TIP3   OH255657   3.275   3.764  15.530 -0.1978 -0.0379  0.0526
11389TIP3    H155658   3.341   3.699  15.508  0.0269  0.1754  0.0966
11389TIP3    H255659   3.293   3.788  15.621 -0.1378  0.2529 -0.0336
11390TIP3   OH255660   2.800   6.225  10.524 -0.4112 -0.5650  0.0521
11390TIP3    H155661   2.874   6.165  10.535 -0.5736 -0.6243  0.9118
11390TIP3    H255662   2.725   6.175  10.555 -0.7703 -0.3919 -0.5192
11391TIP3   OH255663   6.774   0.737  13.674 -0.1663  0.1013 -0.0693
11391TIP3    H155664   6.804   0.658  13.719 -2.3424 -0.7274  0.0541
11391TIP3    H255665   6.832   0.744  13.598  0.7110 -1.0388  0.4537
11392TIP3   OH255666   5.226   0.511  12.034 -0.0882  0.1936  0.4244
11392TIP3    H155667   5.265   0.599  12.034 -1.5485  0.8811  1.4339
11392TIP3    H255668   5.140   0.523  12.075 -0.3687 -1.6957  0.4631
11393TIP3   OH255669   1.461   0.538   1.196 -0.4523 -0.2565 -0.1269
11393TIP3    H155670   1.540   0.583   1.166 -0.2565 -1.1001 -0.8876
11393TIP3    H255671   1.455   0.560   1.289 -0.1726  1.0575 -0.3995
11394TIP3   OH255672   1.922   2.874   2.469  0.0447  0.0902  0.2855
11394TIP3    H155673   1.857   2.803   2.469 -0.3063  0.4070 -0.1265
11394TIP3    H255674   2.006   2.829   2.465 -0.1876 -0.3198 -3.1162
11395TIP3   OH255675   4.775   3.461  15.910  0.1349 -0.5450  0.5408
11395TIP3    H155676   4.773   3.373  15.948  2.7350 -0.7046  0.4898
11395TIP3    H255677   4.684   3.489  15.910 -0.6171 -2.7407  1.7204
11396TIP3   OH255678   5.878   5.748  12.400 -0.1482 -0.1038  0.2765
11396TIP3    H155679   5.935   5.671  12.406  1.7868  1.1019 -1.3956
11396TIP3    H255680   5.926   5.817  12.445 -1.8817  0.1902  1.7914
11397TIP3   OH255681   4.352   5.101   2.554  0.5324  0.4732  0.1714
11397TIP3    H155682   4.418   5.170   2.547 -0.1306  1.5362  3.1187
11397TIP3    H255683   4.403   5.021   2.566  1.2831  0.8461 -0.4104
11398TIP3   OH255684   6.320   0.723  16.863 -0.0349 -0.2204  0.3420
11398TIP3    H155685   6.256   0.652  16.871  0.2992 -0.4020  1.5604
11398TIP3    H255686   6.373   0.717  16.943  0.2229  1.1703  0.3019
11399TIP3   OH255687   5.193   3.174  10.296  0.0177 -0.3572  0.0270
11399TIP3    H155688   5.224   3.086  10.316 -0.4145  0.1285  3.6109
11399TIP3    H255689   5.097   3.168  10.305 -0.0396  0.3729 -0.0749
11400TIP3   OH255690   2.324   1.470  14.127 -0.0092 -0.3019  0.4817
11400TIP3    H155691   2.245   1.463  14.073 -0.0961  0.4365  0.4996
11400TIP3    H255692   2.383   1.526  14.077 -0.3373  0.9179  1.4125
11401TIP3   OH255693   3.964   4.263  16.809  0.3563 -0.1199  0.2741
11401TIP3    H155694   4.049   4.255  16.853 -0.0291 -1.1299  0.8704
11401TIP3    H255695   3.926   4.343  16.844  1.3125  0.6815 -0.4601
11402TIP3   OH255696   2.000   6.520  14.377  0.5261  0.4391 -0.2891
11402TIP3    H155697   2.027   6.589  14.438  0.5914  1.2191 -1.1784
11402TIP3    H255698   1.905   6.528  14.371  0.2657 -0.9462  1.2227
11403TIP3   OH255699   5.613   5.942   3.276 -0.1428  0.1785  0.2289
11403TIP3    H155700   5.655   5.948   3.362  2.3929  0.2757 -0.9309
11403TIP3    H255701   5.554   5.867   3.283 -1.6296  1.4661  2.6606
11404TIP3   OH255702   0.633   1.095   1.058  0.0249  0.1624  0.1455
11404TIP3    H155703   0.647   1.186   1.033  0.6322 -0.2017 -0.9224
11404TIP3    H255704   0.538   1.085   1.060 -0.0479  0.5595 -0.8073
11405TIP3   OH255705   5.573   3.183  15.022 -0.4037  0.1932  0.3542
11405TIP3    H155706   5.615   3.269  15.019 -0.4900  0.2135 -0.6108
11405TIP3    H255707   5.641   3.122  14.995 -0.5177  0.0330  0.4270
11406TIP3   OH255708   2.207   3.962  11.408 -0.1849  0.7316 -0.4733
11406TIP3    H155709   2.252   3.944  11.490  0.3520  1.1281 -0.6747
11406TIP3    H255710   2.115   3.971  11.432 -0.1691 -0.1102 -0.0564
11407TIP3   OH255711   1.842   3.312  12.735 -0.2653  0.1290  0.2944
11407TIP3    H155712   1.794   3.328  12.654 -1.0956 -0.6277  0.6240
11407TIP3    H255713   1.875   3.223  12.727  3.9762  1.5893 -1.3314
11408TIP3   OH255714   5.040   4.013   4.070 -0.0127 -0.0438  0.0890
11408TIP3    H155715   4.996   4.090   4.107  1.7250  0.1935  1.8014
11408TIP3    H255716   5.128   4.043   4.048  1.0260 -1.6980  1.6791
11409TIP3   OH255717   0.270   4.348  10.811 -0.0711  0.1479 -0.4204
11409TIP3    H155718   0.197   4.405  10.835  0.1285  0.4034 -0.4214
11409TIP3    H255719   0.303   4.383  10.729  0.0713  0.0499 -0.4058
11410TIP3   OH255720   1.822   4.810   4.388 -0.1084 -0.1999  0.3323
11410TIP3    H155721   1.876   4.887   4.369  0.9677 -0.9633  0.2200
11410TIP3    H255722   1.764   4.803   4.313  0.7666 -0.3137 -0.3556
11411TIP3   OH255723   1.416   2.416   3.580  0.1919 -0.5779  0.4024
11411TIP3    H155724   1.419   2.326   3.613  1.2255 -0.4565  0.6697
11411TIP3    H255725   1.458   2.412   3.494  0.6456 -0.2818  0.6041
11412TIP3   OH255726   3.725   4.860  17.114  0.0602  0.1714  0.1408
11412TIP3    H155727   3.722   4.801  17.038 -2.3501  0.6562 -0.2156
11412TIP3    H255728   3.675   4.937  17.086 -0.9007  0.3556  2.2165
11413TIP3   OH255729   4.612   5.182   4.600 -0.5051 -0.4800  0.1959
11413TIP3    H155730   4.657   5.110   4.644  0.1411 -0.4164 -0.3397
11413TIP3    H255731   4.673   5.210   4.532 -1.3299 -0.3320 -0.4939
11414TIP3   OH255732   3.288   6.470   4.690 -0.1471 -0.5367 -0.8450
11414TIP3    H155733   3.380   6.468   4.665 -0.1232 -0.9058 -0.7343
11414TIP3    H255734   3.250   6.390   4.653  0.0429 -1.4532  0.8231
11415TIP3   OH255735   0.007   6.331  11.578  0.1495  0.6125 -0.1163
11415TIP3    H155736  -0.050   6.402  11.608 -1.5269 -1.2931  1.5160
11415TIP3    H255737  -0.052   6.269  11.535  0.7170 -1.8636  2.4038
11416TIP3   OH255738   3.585   1.104   5.240  0.4902 -0.8403  0.1062
11416TIP3    H155739   3.519   1.118   5.308  0.6335  0.3192  0.0278
11416TIP3    H255740   3.554   1.027   5.193 -0.5276 -0.6359  0.4082
11417TIP3   OH255741   2.057   0.273  14.447  1.4213 -0.1782 -0.2262
11417TIP3    H155742   2.041   0.356  14.402  1.2399  0.2383  0.5985
11417TIP3    H255743   2.083   0.213  14.377  2.8299  0.9025 -0.6899
11418TIP3   OH255744   0.695   0.160  13.705 -0.3842  0.4817 -0.3127
11418TIP3    H155745   0.663   0.119  13.625  0.1078  0.1088 -0.3220
11418TIP3    H255746   0.632   0.230  13.723 -0.4348  0.6420 -1.0848
11419TIP3   OH255747   0.362   3.442   2.685 -0.0604  0.3142 -0.7888
11419TIP3    H155748   0.420   3.513   2.714 -1.3854  1.3396 -0.5259
11419TIP3    H255749   0.334   3.399   2.765  0.8704 -0.6400 -0.9593
11420TIP3   OH255750   6.528   4.835   5.160  0.5774  0.2624  0.6532
11420TIP3    H155751   6.536   4.930   5.161 -0.4516  0.3717  2.2783
11420TIP3    H255752   6.600   4.804   5.215  1.6560  0.0011 -0.8651
11421TIP3   OH255753   3.829   0.777  14.750  0.0468  0.2811  0.4671
11421TIP3    H155754   3.824   0.873  14.743  0.4023  0.2621 -0.0949
11421TIP3    H255755   3.753   0.746  14.701 -0.2218  0.2826  0.8814
11422TIP3   OH255756   0.554   5.443  11.028  0.1726  0.2346 -0.2567
11422TIP3    H155757   0.571   5.421  11.120 -0.7187  2.7496  0.6101
11422TIP3    H255758   0.465   5.413  11.011  0.0351  0.4879 -0.0060
11423TIP3   OH255759   6.412   0.517   4.903 -0.1942 -0.0082 -0.2054
11423TIP3    H155760   6.474   0.549   4.968 -2.4110 -0.6881  2.4842
11423TIP3    H255761   6.411   0.422   4.915 -2.2512  0.0456  0.4191
11424TIP3   OH255762   0.210   4.422  15.029 -0.6605  0.1341  0.1443
11424TIP3    H155763   0.228   4.419  15.123 -0.7024 -3.7881  0.1989
11424TIP3    H255764   0.289   4.385  14.989 -1.4989 -0.2723 -1.1655
11425TIP3   OH255765   4.202   3.770   6.370 -0.6735 -0.6421  0.0972
11425TIP3    H155766   4.286   3.809   6.393 -0.5555 -0.2952 -0.8971
11425TIP3    H255767   4.146   3.789   6.445  0.0878 -0.7627  0.7119
11426TIP3   OH255768   4.987   2.802  11.647 -0.5573  0.2202 -1.0983
11426TIP3    H155769   4.944   2.887  11.653  0.3671  0.5956  2.4227
11426TIP3    H255770   4.919   2.739  11.675 -0.5121  0.0833 -1.2921
11427TIP3   OH255771   2.534   5.080   1.316  0.2224 -0.4665  0.0741
11427TIP3    H155772   2.615   5.111   1.275  1.0654 -1.9091  0.5730
11427TIP3    H255773   2.564   5.037   1.397 -1.2618  1.1954  1.6073
11428TIP3   OH255774   1.157   6.240   0.589  0.2765  0.7083  0.0436
11428TIP3    H155775   1.206   6.264   0.510  1.1874  0.6835  0.5858
11428TIP3    H255776   1.144   6.146   0.581  1.3066  0.5164  0.4094
11429TIP3   OH255777   5.350   4.236   5.066  0.1503  0.4138 -0.8679
11429TIP3    H155778   5.312   4.209   5.149  1.2427 -0.9081 -0.7740
11429TIP3    H255779   5.285   4.295   5.028  0.7465  3.2646  2.0925
11430TIP3   OH255780   1.191   3.471  13.308 -0.0132  0.1063 -0.1607
11430TIP3    H155781   1.191   3.375  13.299  1.0572  0.0981 -0.1804
11430TIP3    H255782   1.259   3.501  13.248 -0.4205  0.8976 -0.2416
11431TIP3   OH255783   0.552   0.759  13.031 -0.1336  0.1836 -0.2936
11431TIP3    H155784   0.519   0.837  12.986  2.4749  0.9271 -1.1047
11431TIP3    H255785   0.523   0.686  12.976 -2.5106  0.5047  0.4080
11432TIP3   OH255786   1.237   3.536   4.318 -0.3345  0.1039 -0.0211
11432TIP3    H155787   1.221   3.601   4.250  1.4274  0.1634 -0.4266
11432TIP3    H255788   1.237   3.586   4.400  0.4923  0.5571 -0.2826
11433TIP3   OH255789   6.748   1.780  17.066  0.1379  0.0464 -0.2850
11433TIP3    H155790   6.764   1.829  17.147 -0.4675  0.1998 -0.2543
11433TIP3    H255791   6.826   1.796  17.013  0.1426  0.6774 -0.0954
11434TIP3   OH255792   6.746   5.546   1.674 -0.1071  0.0498  0.0990
11434TIP3    H155793   6.674   5.494   1.639  0.2745 -0.3133 -0.1572
11434TIP3    H255794   6.743   5.627   1.623 -0.5910  0.2086  0.3768
11435TIP3   OH255795   6.163   0.664  12.111  0.2588  0.0987 -0.0359
11435TIP3    H155796   6.096   0.601  12.084  0.9039  0.0828 -1.6672
11435TIP3    H255797   6.142   0.682  12.203 -2.7514  1.0191 -0.7824
11436TIP3   OH255798   5.754   6.470   2.011  0.2345 -0.1397 -0.5053
11436TIP3    H155799   5.839   6.511   1.995  0.6555 -1.2452 -1.2209
11436TIP3    H255800   5.721   6.513   2.090  0.9524  1.0740 -0.8444
11437TIP3   OH255801   0.450   4.904   4.605  0.2717  0.0770 -0.1546
11437TIP3    H155802   0.502   4.982   4.586 -1.1758  0.9759 -0.5865
11437TIP3    H255803   0.399   4.928   4.683 -0.5210 -0.2564 -0.5582
11438TIP3   OH255804   0.644   6.520  16.832 -0.2035  0.5167 -0.0972
11438TIP3    H155805   0.629   6.613  16.819  0.1675  0.5642 -0.1903
11438TIP3    H255806   0.671   6.487  16.746 -0.7959  0.2302 -0.1803
11439TIP3   OH255807   6.704   3.454   0.152  0.2597  0.6070 -0.6199
11439TIP3    H155808   6.736   3.384   0.094 -1.9541 -0.9146 -0.1451
11439TIP3    H255809   6.691   3.411   0.236  0.1207  1.9468  0.0578
11440TIP3   OH255810   0.242   6.701   2.717 -0.2637 -0.2330 -0.2273
11440TIP3    H155811   0.278   6.674   2.802  0.3406  3.0605  0.7284
11440TIP3    H255812   0.274   6.636   2.655 -0.8929 -2.9053  2.0229
11441TIP3   OH255813   4.212   1.471  12.689  0.7702  0.4644 -0.0379
11441TIP3    H155814   4.133   1.502  12.645  0.1127  0.4052  1.0687
11441TIP3    H255815   4.199   1.492  12.781  0.8441 -1.9372  0.6007
11442TIP3   OH255816   3.084   2.769   1.642  0.1577  0.0101  0.4867
11442TIP3    H155817   3.128   2.751   1.559  2.0059 -0.0624  1.4157
11442TIP3    H255818   3.151   2.753   1.708 -0.7910  1.5342  1.9096
11443TIP3   OH255819   5.649   0.200   4.539 -0.0742 -0.3048 -0.4320
11443TIP3    H155820   5.663   0.139   4.467  0.1541  1.0940 -1.6269
11443TIP3    H255821   5.734   0.244   4.550 -0.3961  0.2326 -0.0207
11444TIP3   OH255822   2.621   2.969  15.597  0.3859 -0.2908 -0.0339
11444TIP3    H155823   2.633   2.877  15.573  3.0580 -0.0605  0.1184
11444TIP3    H255824   2.635   3.017  15.515 -0.1664  0.0335  0.0573
11445TIP3   OH255825   3.347   5.756   5.666  0.0128 -0.2957  0.4572
11445TIP3    H155826   3.397   5.774   5.586 -0.3602 -1.1919  0.0103
11445TIP3    H255827   3.264   5.721   5.635 -0.9763  1.2828  1.1857
11446TIP3   OH255828   5.178   0.232  12.017  0.4602 -0.6890  0.2016
11446TIP3    H155829   5.089   0.219  11.985  0.4065 -0.5022  0.2716
11446TIP3    H255830   5.210   0.307  11.967  0.8267 -1.1969 -0.3296
11447TIP3   OH255831   1.891   4.793   5.671 -0.0032 -0.5547 -0.0045
11447TIP3    H155832   1.931   4.821   5.753 -0.8452  0.0126  0.2251
11447TIP3    H255833   1.948   4.723   5.639  1.2915  0.3773  0.1908
11448TIP3   OH255834   4.634   3.512  13.793  0.3748 -0.9814 -0.0718
11448TIP3    H155835   4.557   3.476  13.836 -1.5390  2.1882 -0.5072
11448TIP3    H255836   4.706   3.497  13.855 -1.2117 -1.2935  1.7913
11449TIP3   OH255837   3.398   3.522  12.682  0.6086  0.3200 -1.0731
11449TIP3    H155838   3.407   3.616  12.667  1.5856  0.1138 -1.9148
11449TIP3    H255839   3.484   3.494  12.714  0.0636 -0.1441  0.0560
11450TIP3   OH255840   3.127   3.758   4.629 -0.2219  0.0821  0.2843
11450TIP3    H155841   3.216   3.726   4.636  0.1783  0.7067 -1.5021
11450TIP3    H255842   3.136   3.849   4.599 -1.3668  1.4900  3.7173
11451TIP3   OH255843   6.517   0.234  17.047 -0.6262  0.5927  0.1020
11451TIP3    H155844   6.611   0.214  17.053 -1.0733 -1.4651  1.1417
11451TIP3    H255845   6.503   0.254  16.954  0.4676 -1.3543 -0.5596
11452TIP3   OH255846   3.122   5.304  12.377 -0.5609 -0.6095 -0.0935
11452TIP3    H155847   3.107   5.211  12.396 -1.6155 -0.2401  0.9794
11452TIP3    H255848   3.164   5.337  12.456  0.2037 -0.2503 -0.6398
11453TIP3   OH255849   5.164   1.823  16.306 -0.5745  0.0546 -0.1026
11453TIP3    H155850   5.173   1.738  16.350  1.0413  0.1200 -0.2568
11453TIP3    H255851   5.074   1.823  16.273 -0.8568 -1.2606  0.5931
11454TIP3   OH255852   0.181   5.095   1.588  0.2011 -0.0235 -0.9965
11454TIP3    H155853   0.086   5.090   1.595 -0.0626  1.6985 -2.5980
11454TIP3    H255854   0.199   5.087   1.495  1.8898 -2.7401 -0.5700
11455TIP3   OH255855   0.372   1.060   1.003 -0.5037  0.2568 -0.1125
11455TIP3    H155856   0.371   1.075   0.908 -0.4620  2.1429  0.1415
11455TIP3    H255857   0.328   0.976   1.014 -0.2925 -0.1281 -1.8222
11456TIP3   OH255858   3.499   1.748   2.490 -0.0789  0.6260  0.7042
11456TIP3    H155859   3.430   1.720   2.550  1.0345  0.9199  2.1730
11456TIP3    H255860   3.579   1.712   2.527  0.6979  1.1919 -0.3710
11457TIP3   OH255861   2.930   4.003   4.801 -0.0626  0.1295  0.2017
11457TIP3    H155862   2.944   3.914   4.771  0.6939  0.8671 -1.8186
11457TIP3    H255863   3.001   4.054   4.761 -0.5671  1.6684  1.1545
11458TIP3   OH255864   4.792   0.040  10.383  0.2364 -0.5560 -0.5677
11458TIP3    H155865   4.827   0.122  10.348 -2.0412  0.8707  0.2625
11458TIP3    H255866   4.710   0.026  10.335 -1.8481  0.2937  2.4139
11459TIP3   OH255867   3.360   6.056  14.223  0.8588 -0.8916  0.1012
11459TIP3    H155868   3.355   6.031  14.130  0.6682 -0.3651 -0.0307
11459TIP3    H255869   3.332   5.978  14.270 -0.5249 -0.6788 -0.3377
11460TIP3   OH255870   0.568   1.371  13.492 -0.8080 -0.0944  0.1126
11460TIP3    H155871   0.518   1.303  13.538  1.6789 -1.8757  0.3999
11460TIP3    H255872   0.574   1.340  13.402  0.4235 -0.3411  0.2642
11461TIP3   OH255873   2.192   0.772  11.909 -0.1544  0.2392 -0.3727
11461TIP3    H155874   2.151   0.685  11.913 -0.6705  0.2805 -2.7533
11461TIP3    H255875   2.130   0.824  11.857 -0.2017  2.2850  1.6242
11462TIP3   OH255876   4.800   6.163   6.095 -0.6699  0.2611  0.2647
11462TIP3    H155877   4.874   6.217   6.067 -0.0014 -0.9753 -0.4265
11462TIP3    H255878   4.776   6.198   6.181  0.7207  0.6733  0.5088
11463TIP3   OH255879   0.200   4.206  14.745  0.5575 -0.2720 -0.6745
11463TIP3    H155880   0.115   4.163  14.731  0.3623  0.7135 -2.8483
11463TIP3    H255881   0.215   4.198  14.840 -2.1342 -0.1356 -0.1520
11464TIP3   OH255882   2.848   2.145   4.215  0.0490 -0.2449 -0.5532
11464TIP3    H155883   2.790   2.103   4.151 -0.1160 -1.5361  0.4086
11464TIP3    H255884   2.820   2.236   4.215 -1.3042 -0.6291 -0.8578
11465TIP3   OH255885   1.474   1.770   0.034  0.5144 -0.2834  0.2720
11465TIP3    H155886   1.405   1.767  -0.031  0.0163  1.6412  0.6534
11465TIP3    H255887   1.431   1.746   0.116  0.6234 -0.4817  0.2717
11466TIP3   OH255888   2.743   6.335   2.886  0.2911  0.3148 -0.2948
11466TIP3    H155889   2.793   6.265   2.844 -0.7196 -0.4245 -0.3131
11466TIP3    H255890   2.708   6.295   2.965 -1.0839  0.4831 -0.7807
11467TIP3   OH255891   1.170   6.551  15.143  0.3948 -0.2817 -0.4369
11467TIP3    H155892   1.231   6.488  15.180 -0.2249 -0.5309  0.1847
11467TIP3    H255893   1.084   6.512  15.158 -0.0711  1.1384  0.8000
11468TIP3   OH255894   2.840   6.620  11.788 -0.2324 -0.5675  0.2218
11468TIP3    H155895   2.812   6.554  11.725  0.9817 -0.5062 -0.4175
11468TIP3    H255896   2.912   6.579  11.836  1.3469  0.6409 -0.9895
11469TIP3   OH255897   4.494   2.692  11.394 -0.2616  0.1792  0.8570
11469TIP3    H155898   4.428   2.725  11.332 -0.8961 -0.4649  1.1715
11469TIP3    H255899   4.455   2.708  11.480  0.3149  0.4431  1.0729
11470TIP3   OH255900   2.122   3.148   1.106  0.4577  0.3996 -0.0673
11470TIP3    H155901   2.199   3.192   1.070  1.6027 -1.6569 -0.2658
11470TIP3    H255902   2.156   3.071   1.150 -1.5391 -1.0133 -0.8480
11471TIP3   OH255903   1.115   3.867  11.182 -0.1751  0.0407 -0.3341
11471TIP3    H155904   1.109   3.792  11.124  1.1444  0.7311 -1.4270
11471TIP3    H255905   1.207   3.895  11.176  0.6061 -1.0562  3.6415
11472TIP3   OH255906   2.936   0.674   0.157 -0.7256 -0.0124  0.0049
11472TIP3    H155907   2.958   0.675   0.251 -0.7070  1.9326  0.0124
11472TIP3    H255908   3.020   0.662   0.113 -0.9222 -2.9075  0.2018
11473TIP3   OH255909   2.447   2.123   4.841 -0.4558 -0.1090  0.5057
11473TIP3    H155910   2.384   2.120   4.769 -1.5320 -0.9861  1.4395
11473TIP3    H255911   2.527   2.157   4.802 -1.2567  0.2176 -0.9111
11474TIP3   OH255912   6.566   4.930  12.385  0.1112 -0.1673  0.2402
11474TIP3    H155913   6.521   4.875  12.320  0.2646 -0.5692  0.4679
11474TIP3    H255914   6.552   4.885  12.468  0.5781 -0.0737  0.3753
11475TIP3   OH255915   2.815   2.019  14.923 -0.0709  0.2942 -0.1567
11475TIP3    H155916   2.834   1.979  15.008 -0.2278  0.1822 -0.1716
11475TIP3    H255917   2.752   2.088  14.943 -0.5846 -0.1367 -0.2548
11476TIP3   OH255918   0.641   5.085  15.821  0.1233 -0.1791  0.8577
11476TIP3    H155919   0.701   5.134  15.765 -0.5655  1.0621  1.1523
11476TIP3    H255920   0.683   5.000  15.834 -0.2674 -0.9992 -2.5466
11477TIP3   OH255921   5.598   2.766  12.793  0.8065 -0.4444 -0.8915
11477TIP3    H155922   5.534   2.821  12.839 -2.2119 -0.0041 -5.0370
11477TIP3    H255923   5.651   2.827  12.743  3.2982 -0.9721  0.9296
11478TIP3   OH255924   4.973   0.483   2.291 -0.6246  0.2237 -0.5001
11478TIP3    H155925   4.884   0.500   2.259 -0.7849  1.0963  0.3373
11478TIP3    H255926   5.004   0.569   2.319  0.0808 -0.2519  0.2011
11479TIP3   OH255927   4.014   1.770   4.710 -0.2803 -0.3560  0.1844
11479TIP3    H155928   3.963   1.752   4.789 -0.0518 -0.2010  0.3682
11479TIP3    H255929   4.026   1.865   4.711  0.3040 -0.4293  0.3246
11480TIP3   OH255930   2.180   1.922  12.078  0.4107 -0.1621 -1.1100
11480TIP3    H155931   2.099   1.938  12.030  0.6266 -0.9127 -1.7381
11480TIP3    H255932   2.208   1.835  12.051 -0.0281 -1.1004  1.2138
11481TIP3   OH255933   2.377   3.985   4.863  0.7545 -0.5500  0.1184
11481TIP3    H155934   2.433   3.976   4.786  0.9450  0.6725  0.0897
11481TIP3    H255935   2.314   3.913   4.855 -0.1842  0.4065 -2.0332
11482TIP3   OH255936   3.751   5.455   5.035 -0.5927 -0.4897  0.5182
11482TIP3    H155937   3.659   5.471   5.012 -0.1535  2.6357  0.5439
11482TIP3    H255938   3.755   5.473   5.129  0.1031 -0.3521  0.4632
11483TIP3   OH255939   6.808   4.622  10.358  0.0247  0.0054 -0.4694
11483TIP3    H155940   6.753   4.688  10.315 -0.7559 -0.7985 -0.7193
11483TIP3    H255941   6.840   4.567  10.287 -1.8357 -1.7529 -0.0172
11484TIP3   OH255942   6.140   5.663  14.666  0.0243 -0.2431 -0.2102
11484TIP3    H155943   6.048   5.639  14.675 -0.1393  0.3343 -0.2793
11484TIP3    H255944   6.160   5.711  14.747  0.0126  0.3951 -0.5757
11485TIP3   OH255945   6.623   1.068   2.257  0.1757 -0.4480  0.1504
11485TIP3    H155946   6.612   0.979   2.290  0.5157  0.1073  1.8262
11485TIP3    H255947   6.718   1.081   2.254  0.1878 -0.6427 -1.5897
11486TIP3   OH255948   1.844   2.345   5.676 -0.1449 -1.0742 -0.4292
11486TIP3    H155949   1.812   2.427   5.639  1.7205  1.5525  3.1833
11486TIP3    H255950   1.765   2.290   5.683 -1.7643  0.9634 -1.5433
11487TIP3   OH255951   6.106   3.801   3.168  0.3828  0.2963  0.6703
11487TIP3    H155952   6.072   3.779   3.255 -0.6360  0.9941  0.4717
11487TIP3    H255953   6.147   3.721   3.137 -1.4973 -0.7742  0.7681
11488TIP3   OH255954   5.667   5.704  14.246 -0.1512  0.3735 -0.2045
11488TIP3    H155955   5.708   5.785  14.274 -0.5915  0.5990 -0.2139
11488TIP3    H255956   5.741   5.646  14.225  0.1844  1.3866 -2.0283
11489TIP3   OH255957   2.075   3.164   4.156 -0.7504  0.1554  0.5684
11489TIP3    H155958   2.149   3.203   4.110 -0.2809  0.4879  1.5702
11489TIP3    H255959   2.114   3.121   4.233 -1.4362 -0.9315  0.3413
11490TIP3   OH255960   5.048   2.306  11.793  0.3142  0.2753 -0.1542
11490TIP3    H155961   5.056   2.391  11.836  2.5531 -0.7295  1.6576
11490TIP3    H255962   5.137   2.287  11.761  0.0029 -1.6253  0.0170
11491TIP3   OH255963   6.809   3.803   3.399 -0.7373  0.2849  0.0763
11491TIP3    H155964   6.832   3.772   3.311 -1.9878 -0.1962 -0.0952
11491TIP3    H255965   6.768   3.888   3.384 -0.8336  0.2620  0.2081
11492TIP3   OH255966   2.119   3.983  12.143 -0.5568  0.4762  0.1957
11492TIP3    H155967   2.066   4.004  12.066 -0.3026 -0.8153 -0.3556
11492TIP3    H255968   2.093   3.895  12.167 -0.6822  0.8861  1.6614
11493TIP3   OH255969   5.545   2.723  15.168 -0.7163  0.2134  0.3050
11493TIP3    H155970   5.635   2.690  15.166 -0.6628  0.3879 -0.6586
11493TIP3    H255971   5.535   2.771  15.085 -1.5143  0.6754  0.6576
11494TIP3   OH255972   3.722   3.525  11.609  0.6106  0.7814 -0.0426
11494TIP3    H155973   3.722   3.534  11.704  0.7392 -0.5133  0.1011
11494TIP3    H255974   3.691   3.609  11.576  1.9015  1.7388  1.0833
11495TIP3   OH255975   0.340   4.579   0.786  0.1004  0.0601 -0.1872
11495TIP3    H155976   0.342   4.669   0.818 -0.7833  0.1595 -0.3885
11495TIP3    H255977   0.311   4.527   0.860 -2.4596  0.3549 -0.8850
11496TIP3   OH255978   0.923   2.589   4.232 -0.5024  0.7413  0.2196
11496TIP3    H155979   0.936   2.565   4.140  0.7514  1.7381  0.0987
11496TIP3    H255980   1.008   2.573   4.273 -0.4665  2.1190  0.7526
11497TIP3   OH255981   0.797   5.731  13.540  0.4518  0.3910  0.4549
11497TIP3    H155982   0.765   5.801  13.483  0.5633 -0.8831 -1.2392
11497TIP3    H255983   0.879   5.703  13.500  1.7883  1.0066  2.5853
11498TIP3   OH255984   6.076   3.405   6.561  0.4158 -0.5962 -0.1313
11498TIP3    H155985   6.107   3.478   6.615 -0.3344 -0.0008 -0.5028
11498TIP3    H255986   6.154   3.351   6.548  1.0300  0.2557 -0.0497
11499TIP3   OH255987   0.892   5.371   2.784 -0.1520 -0.0990 -0.0631
11499TIP3    H155988   0.909   5.280   2.808 -0.2928  0.2579  1.5028
11499TIP3    H255989   0.974   5.417   2.802 -0.1756  0.1386 -0.5488
11500TIP3   OH255990   2.982   5.491  15.334 -0.1089 -0.1682  0.5073
11500TIP3    H155991   3.056   5.531  15.288 -1.2524  2.3953  0.7486
11500TIP3    H255992   3.013   5.404  15.358  0.8595 -1.4497 -4.3356
11501TIP3   OH255993   1.275   1.392  12.418 -0.1181 -0.1649  0.3133
11501TIP3    H155994   1.357   1.441  12.408 -0.8592  0.7896 -1.6961
11501TIP3    H255995   1.273   1.367  12.510  1.1410  2.1284  1.0568
11502TIP3   OH255996   4.895   4.036   6.571  0.0603  0.2362 -0.0431
11502TIP3    H155997   4.952   3.965   6.598  1.8986  1.8849  0.6368
11502TIP3    H255998   4.861   4.072   6.653 -0.3631  0.5290 -0.3423
11503TIP3   OH255999   3.042   3.806   5.450  0.0341  0.1602  0.9391
11503TIP3    H156000   2.965   3.763   5.488 -1.1511  0.0515 -1.4181
11503TIP3    H256001   3.067   3.871   5.515 -1.5331 -0.3599  2.1365
11504TIP3   OH256002   3.733   2.274  13.262 -0.2499  0.5725  0.1936
11504TIP3    H156003   3.734   2.362  13.223 -0.0686  2.5554  4.1992
11504TIP3    H256004   3.826   2.248  13.263 -0.4355 -0.6614 -2.6064
11505TIP3   OH256005   5.694   5.538   4.793 -0.8893 -0.0368 -0.1941
11505TIP3    H156006   5.657   5.562   4.877 -0.5213 -1.6545  0.4791
11505TIP3    H256007   5.770   5.594   4.782 -1.5026  0.8593  0.0790
11506TIP3   OH256008   5.433   6.863   6.213 -0.3888 -0.0924  0.2459
11506TIP3    H156009   5.351   6.897   6.249 -1.9341 -1.3741 -1.7957
11506TIP3    H256010   5.482   6.941   6.187 -1.1909  0.6937  1.0219
11507TIP3   OH256011   5.978   5.078  15.128 -0.3008 -0.2873  0.9228
11507TIP3    H156012   5.888   5.101  15.151 -0.4996 -1.9617  1.9502
11507TIP3    H256013   6.032   5.148  15.165 -1.1571  0.8084  0.1723
11508TIP3   OH256014   5.860   0.117   4.929 -0.4931  0.2218  0.7453
11508TIP3    H156015   5.852   0.209   4.907  0.3169 -0.0687 -0.9472
11508TIP3    H256016   5.789   0.074   4.879  0.0207 -0.2130  0.3732
11509TIP3   OH256017   1.945   2.155  12.801 -0.7935  0.2127  0.3815
11509TIP3    H156018   1.980   2.210  12.730 -0.7692 -0.1546  0.1078
11509TIP3    H256019   1.956   2.066  12.769 -1.3566  0.0694  0.5909
11510TIP3   OH256020   4.172   3.111   2.711  0.5183  0.5123  0.3555
11510TIP3    H156021   4.141   3.174   2.646 -0.2732 -1.7243 -1.5408
11510TIP3    H256022   4.099   3.102   2.773  0.0634  0.3637 -0.1988
11511TIP3   OH256023   1.426   4.452  15.078  0.0719 -0.5048 -0.2369
11511TIP3    H156024   1.341   4.417  15.053 -0.4581 -0.2883  1.1560
11511TIP3    H256025   1.421   4.545  15.057 -0.5358 -0.2339  0.9887
11512TIP3   OH256026   3.827   4.354   4.589 -0.2900 -0.4214  0.2844
11512TIP3    H156027   3.892   4.286   4.571 -0.1472 -0.2421  0.1285
11512TIP3    H256028   3.832   4.366   4.684  0.3144 -0.0051  0.2093
11513TIP3   OH256029   3.086   5.160  12.096  0.0133 -0.1280 -0.0527
11513TIP3    H156030   3.018   5.132  12.034  0.0349 -1.2151  0.3965
11513TIP3    H256031   3.038   5.213  12.160 -0.2794 -0.2732 -0.1472
11514TIP3   OH256032   4.219   1.402  12.374 -0.4712 -0.2743 -0.7450
11514TIP3    H156033   4.175   1.479  12.338 -0.8286  0.1480  0.5413
11514TIP3    H256034   4.272   1.369  12.302  1.0086  2.1524 -0.8881
11515TIP3   OH256035   5.113   1.472   1.476 -0.8836  0.6036 -0.4263
11515TIP3    H156036   5.022   1.479   1.447 -0.9773  0.7366 -0.1072
11515TIP3    H256037   5.131   1.378   1.477 -1.1313  0.5592 -0.1447
11516TIP3   OH256038   4.411   1.815   2.480  0.0016  0.2183  0.6228
11516TIP3    H156039   4.386   1.831   2.571 -1.4050  0.1880  0.2550
11516TIP3    H256040   4.449   1.727   2.481  0.4213  0.3954  1.2482
11517TIP3   OH256041   1.266   6.384   6.355 -0.1237 -0.1465  0.6496
11517TIP3    H156042   1.205   6.317   6.386 -0.0636  0.0599  1.2282
11517TIP3    H256043   1.316   6.341   6.286 -1.6701 -0.0014 -0.6493
11518TIP3   OH256044   2.156   6.506   4.681  0.5628  0.2117  0.8471
11518TIP3    H156045   2.066   6.537   4.670  0.2467 -0.5325  1.2962
11518TIP3    H256046   2.166   6.439   4.613  1.2885  1.3402 -0.2103
11519TIP3   OH256047   5.496   3.165  10.884  0.0144 -0.1383 -0.8949
11519TIP3    H156048   5.506   3.071  10.870 -3.8811 -0.8331 -0.2180
11519TIP3    H256049   5.585   3.197  10.899  1.5879 -3.5092 -2.0870
11520TIP3   OH256050   0.092   0.818   0.923  0.1718 -0.2058 -0.0657
11520TIP3    H156051   0.034   0.815   0.999 -0.7567  0.5167 -0.7219
11520TIP3    H256052   0.180   0.810   0.960 -0.2622  0.1376  1.0896
11521TIP3   OH256053   4.628   6.419  16.493  0.1522  0.6991 -0.2429
11521TIP3    H156054   4.575   6.356  16.543 -1.5830  1.9265 -0.4232
11521TIP3    H256055   4.592   6.415  16.404 -0.4165  2.3396 -0.1241
11522TIP3   OH256056   4.633   3.160   4.169  0.0381 -0.0793 -0.4507
11522TIP3    H156057   4.586   3.143   4.087 -2.6772 -0.6104  1.1069
11522TIP3    H256058   4.643   3.255   4.171 -0.7502  0.0232 -0.9431
11523TIP3   OH256059   1.331   6.115  10.785 -0.0225 -0.2954  0.0258
11523TIP3    H156060   1.296   6.160  10.862  0.2935 -0.9543  0.5760
11523TIP3    H256061   1.254   6.093  10.733 -0.5299 -2.0544  1.4019
11524TIP3   OH256062   3.371   3.915  10.087 -0.1150  0.0500 -0.0350
11524TIP3    H156063   3.279   3.939  10.097 -0.6496 -1.5611 -0.6718
11524TIP3    H256064   3.408   3.982  10.029 -1.7514 -1.0618 -2.5125
11525TIP3   OH256065   6.092   1.827   4.821 -0.5279  0.0397  0.1991
11525TIP3    H156066   6.177   1.814   4.778 -0.9448 -0.3546 -0.5192
11525TIP3    H256067   6.092   1.763   4.892  0.1016  0.5914  0.7155
11526TIP3   OH256068   6.817   3.409  16.216  0.4333 -0.2086  0.0006
11526TIP3    H156069   6.865   3.379  16.293  2.0954  0.9047 -0.5448
11526TIP3    H256070   6.830   3.340  16.151 -0.3356 -0.7977  0.4634
11527TIP3   OH256071   6.218   0.202   2.424 -0.4140 -0.3132  0.4499
11527TIP3    H156072   6.242   0.288   2.390 -1.2608 -0.1147  0.3299
11527TIP3    H256073   6.131   0.185   2.387 -0.4616 -1.0050  0.8597
11528TIP3   OH256074   1.134   0.910   2.010  0.0800 -0.4202  0.0668
11528TIP3    H156075   1.153   0.821   1.983  2.1753 -0.6495  1.9505
11528TIP3    H256076   1.215   0.958   1.994 -0.5523  0.8053  0.3968
11529TIP3   OH256077   4.764   0.409  15.497  0.3881  0.9377 -0.0191
11529TIP3    H156078   4.717   0.491  15.486  0.0826  0.9791  1.4121
11529TIP3    H256079   4.716   0.363  15.565  2.2636  0.8660  1.3236
11530TIP3   OH256080   2.950   3.713   4.847  0.3469 -0.4614 -0.2202
11530TIP3    H156081   3.021   3.707   4.784  0.9949 -2.2633  0.6079
11530TIP3    H256082   2.994   3.714   4.932 -0.5771 -2.5341  0.3523
11531TIP3   OH256083   5.836   1.551  15.425  0.3010 -0.6602  0.3578
11531TIP3    H156084   5.838   1.484  15.493  0.1464 -0.5686  0.4513
11531TIP3    H256085   5.766   1.524  15.365  0.5811 -0.8563  0.1188
11532TIP3   OH256086   4.036   5.717   1.081 -0.0103  0.1315 -0.0059
11532TIP3    H156087   4.017   5.779   1.010  1.7674 -1.2051 -1.7452
11532TIP3    H256088   4.022   5.768   1.161 -2.9234  1.4772 -1.2125
11533TIP3   OH256089   1.456   1.189   1.121 -0.1646 -0.4430  0.4798
11533TIP3    H156090   1.384   1.250   1.110  0.8202  0.9446  1.4240
11533TIP3    H256091   1.510   1.201   1.042 -0.9224 -1.4769 -0.2237
11534TIP3   OH256092   5.161   3.146   0.020  0.2199 -0.5755 -0.0550
11534TIP3    H156093   5.176   3.152   0.115 -0.5209 -1.4074  0.1226
11534TIP3    H256094   5.212   3.070  -0.007 -0.9437 -1.3934 -0.0165
11535TIP3   OH256095   5.401   4.556   4.512  0.3703 -0.5083 -0.2641
11535TIP3    H156096   5.378   4.635   4.464 -0.0280 -0.1101  0.5564
11535TIP3    H256097   5.422   4.587   4.600 -0.4352 -1.3903  0.2546
11536TIP3   OH256098   1.643   4.509   4.138 -0.6668  0.0777 -0.3490
11536TIP3    H156099   1.644   4.438   4.203 -0.4050  0.0074 -0.4294
11536TIP3    H256100   1.704   4.480   4.070 -1.3282 -0.0829 -0.8831
11537TIP3   OH256101   4.979   4.598  12.170 -0.1968 -0.6861  0.1225
11537TIP3    H156102   4.962   4.515  12.214  0.3325 -1.6159 -1.3493
11537TIP3    H256103   5.033   4.574  12.094 -1.2454  0.8160 -1.1457
11538TIP3   OH256104   3.620   1.111  14.192 -0.3704 -0.3604 -0.1931
11538TIP3    H156105   3.650   1.020  14.192  0.3169 -0.1424  0.0753
11538TIP3    H256106   3.600   1.129  14.100 -3.4039 -1.6784  0.0987
11539TIP3   OH256107   3.705   6.859  13.913  0.4298  0.2649 -0.9081
11539TIP3    H156108   3.757   6.916  13.971  0.6710  0.2523 -1.1122
11539TIP3    H256109   3.617   6.860  13.952  0.4114  0.8361 -0.9450
11540TIP3   OH256110   2.811   5.950  12.772 -0.0892  0.4310 -0.3288
11540TIP3    H156111   2.782   6.015  12.708  1.4026 -0.3594 -1.8787
11540TIP3    H256112   2.756   5.874  12.754  0.5355  0.1057 -0.9157
11541TIP3   OH256113   1.799   0.836  14.731  0.0653 -0.6895  0.4147
11541TIP3    H156114   1.720   0.797  14.694  0.5372 -3.3566  1.8923
11541TIP3    H256115   1.776   0.858  14.821 -0.2055  2.8776 -0.3762
11542TIP3   OH256116   0.171   0.071  16.098  0.7830 -0.4535 -0.0986
11542TIP3    H156117   0.177   0.005  16.167 -0.0197 -1.4585 -0.9521
11542TIP3    H256118   0.225   0.036  16.027  1.5977  0.5649  0.0045
11543TIP3   OH256119   1.555   6.297   2.842 -0.2053 -0.2717  0.3705
11543TIP3    H156120   1.607   6.227   2.882  0.3887  0.1847  0.4147
11543TIP3    H256121   1.523   6.348   2.916 -0.0766 -0.1031  0.3089
11544TIP3   OH256122   1.922   4.063  15.100 -0.0804 -0.2164 -0.0505
11544TIP3    H156123   1.998   4.014  15.068  0.7675  0.9798  0.0523
11544TIP3    H256124   1.937   4.069  15.195 -1.2000 -1.4332  0.2348
11545TIP3   OH256125   2.250   5.666  13.918  0.1503 -0.3780 -0.0094
11545TIP3    H156126   2.319   5.698  13.859 -0.6253 -0.9434 -1.2558
11545TIP3    H256127   2.171   5.667  13.865 -0.4764 -1.4006  0.8762
11546TIP3   OH256128   4.795   5.817  16.218  0.0238  0.8798  0.0939
11546TIP3    H156129   4.869   5.875  16.235  0.0138  0.3234  2.4126
11546TIP3    H256130   4.834   5.730  16.214 -0.1754  0.8434 -1.6552
11547TIP3   OH256131   3.631   2.447  15.757 -0.3970  0.1077  0.0552
11547TIP3    H156132   3.639   2.353  15.767 -0.0180 -0.2084 -2.5717
11547TIP3    H256133   3.687   2.483  15.826 -0.0641 -1.5815  0.7129
11548TIP3   OH256134   5.348   1.718   0.070  0.3590  0.6615 -0.5199
11548TIP3    H156135   5.258   1.724   0.037 -0.7604 -1.3465  1.8485
11548TIP3    H256136   5.375   1.628   0.051  1.5936  0.9973 -0.4725
11549TIP3   OH256137   0.764   6.729   1.051  0.2310  0.4178 -0.0847
11549TIP3    H156138   0.797   6.717   1.140 -0.7418  1.3938  0.4245
11549TIP3    H256139   0.842   6.722   0.995  1.2603  2.2320  1.0338
11550TIP3   OH256140   3.053   6.820  16.048  0.3510 -0.3543  0.1784
11550TIP3    H156141   3.082   6.775  16.127  1.1072 -1.5331 -0.7459
11550TIP3    H256142   3.123   6.807  15.985  0.0493  1.1143 -0.5171
11551TIP3   OH256143   1.194   5.272   0.260 -0.0855  0.2566 -0.2236
11551TIP3    H156144   1.227   5.361   0.269  1.4240 -0.2457 -0.4514
11551TIP3    H256145   1.187   5.239   0.349  0.3551  0.2577 -0.1888
11552TIP3   OH256146   5.255   5.020   4.545 -0.4368 -0.0752  0.0165
11552TIP3    H156147   5.291   4.964   4.614  1.6147 -0.9592 -1.6423
11552TIP3    H256148   5.209   4.959   4.487  0.1043  0.2262 -0.7508
11553TIP3   OH256149   4.489   6.442  14.257  0.4118  0.6225  0.1468
11553TIP3    H156150   4.517   6.399  14.338  0.0036 -0.1877 -0.1255
11553TIP3    H256151   4.488   6.535  14.278 -0.7404  0.3585  1.4114
11554TIP3   OH256152   3.156   0.017   1.955  0.0314  0.1175  0.0402
11554TIP3    H156153   3.134  -0.067   1.996  0.2654  1.0644  2.2646
11554TIP3    H256154   3.103   0.081   2.002  1.0865  1.4050 -0.4508
11555TIP3   OH256155   4.367   2.538   5.153 -0.3112 -0.1250  0.3721
11555TIP3    H156156   4.324   2.501   5.076  0.4937 -0.0888 -0.1112
11555TIP3    H256157   4.432   2.599   5.117  2.9339 -3.0460  0.8202
11556TIP3   OH256158   1.188   6.730   5.203 -0.5157 -0.3708  0.3361
11556TIP3    H156159   1.220   6.708   5.115  0.4486  0.1855  0.5412
11556TIP3    H256160   1.266   6.732   5.258 -1.2079 -1.5991  1.4132
11557TIP3   OH256161   1.883   2.135   4.986 -0.5921 -0.0489 -0.0494
11557TIP3    H156162   1.886   2.041   4.965 -2.5544  0.1798 -1.7877
11557TIP3    H256163   1.952   2.174   4.933 -0.4201 -0.4193 -0.0997
11558TIP3   OH256164   4.311   3.134  11.246 -0.2376 -0.5943 -1.1968
11558TIP3    H156165   4.260   3.215  11.250 -0.5288 -0.7319 -1.8974
11558TIP3    H256166   4.336   3.127  11.154  1.6542 -0.1685 -0.7610
11559TIP3   OH256167   4.219   5.119   0.775  0.5241 -0.2592 -0.0441
11559TIP3    H156168   4.256   5.053   0.717  0.3715  0.2157 -0.6902
11559TIP3    H256169   4.263   5.201   0.750 -0.4070  0.1712 -0.3214
11560TIP3   OH256170   0.588   3.402  13.674  0.6880  0.2425  0.3296
11560TIP3    H156171   0.648   3.448  13.616  0.4008  0.0726 -0.1098
11560TIP3    H256172   0.633   3.400  13.759  1.5627 -0.4030 -0.1353
11561TIP3   OH256173   5.290   1.064   3.880  0.2699 -0.5861 -0.3052
11561TIP3    H156174   5.316   1.111   3.801  1.6391 -3.0300 -1.4316
11561TIP3    H256175   5.208   1.105   3.907 -0.2996  0.2872 -3.0629
11562TIP3   OH256176   0.284   1.582   1.560  0.0327 -0.1428 -0.1179
11562TIP3    H156177   0.223   1.565   1.633 -0.3354  0.2037 -0.3391
11562TIP3    H256178   0.246   1.658   1.515  1.8064  1.5599  1.0708
11563TIP3   OH256179   4.217   1.201  14.185  0.4242 -0.1997  0.4142
11563TIP3    H156180   4.239   1.253  14.107 -1.5610 -1.5284 -1.1407
11563TIP3    H256181   4.226   1.262  14.258  0.9784  1.5099 -1.0028
11564TIP3   OH256182   4.794   5.482   1.903 -0.7224 -1.1713  0.1964
11564TIP3    H156183   4.844   5.423   1.846  0.4111 -1.3125  1.2838
11564TIP3    H256184   4.757   5.424   1.970  1.3735 -0.5901  1.9616
11565TIP3   OH256185   5.913   1.244   2.352 -0.5048  0.2532 -0.6164
11565TIP3    H156186   5.927   1.330   2.393 -1.1785  0.6418 -1.1880
11565TIP3    H256187   5.929   1.181   2.423 -1.7608  0.9221  0.2981
11566TIP3   OH256188   0.075   1.052   5.807 -0.6421  0.5198 -0.0183
11566TIP3    H156189   0.152   0.996   5.821 -0.6056  0.9911  1.9292
11566TIP3    H256190   0.097   1.103   5.728  0.5515 -0.1499 -0.1483
11567TIP3   OH256191   4.702   1.329   0.083 -0.2632 -0.0120  0.4542
11567TIP3    H156192   4.784   1.374   0.063 -1.1160  0.8278 -1.4801
11567TIP3    H256193   4.641   1.360   0.016 -1.6353 -2.0938  0.6350
11568TIP3   OH256194   5.607   6.309  15.963  0.2664  0.0900  0.2021
11568TIP3    H156195   5.513   6.298  15.980  0.1243  0.7419 -0.1392
11568TIP3    H256196   5.647   6.232  16.004 -0.4818 -0.5662 -0.2503
11569TIP3   OH256197   2.945   0.670   5.615  0.1530  0.0369 -0.7153
11569TIP3    H156198   2.974   0.749   5.569 -1.3995  0.8430 -0.3469
11569TIP3    H256199   2.991   0.674   5.699 -0.6930  1.1026 -0.2839
11570TIP3   OH256200   4.305   4.387  16.723 -0.7513  0.8097  0.2112
11570TIP3    H156201   4.364   4.453  16.689 -0.4544  0.7660  0.6464
11570TIP3    H256202   4.237   4.436  16.770 -0.6603  0.8183  0.3339
11571TIP3   OH256203   4.535   5.492   4.849 -0.3229 -0.1029 -0.6027
11571TIP3    H156204   4.522   5.579   4.812 -1.0837 -0.6781 -1.7128
11571TIP3    H256205   4.572   5.440   4.778  1.1577 -0.4353  0.3582
11572TIP3   OH256206   1.229   2.884  14.852 -0.2831 -0.2746  0.1168
11572TIP3    H156207   1.136   2.871  14.834  0.0528  0.4099 -2.3662
11572TIP3    H256208   1.239   2.978  14.863 -0.1021 -0.4756  2.1036
11573TIP3   OH256209   5.240   6.008   3.456 -1.0067  0.1639  0.2995
11573TIP3    H156210   5.296   5.993   3.379 -2.1200 -1.7879 -0.2141
11573TIP3    H256211   5.205   6.096   3.443  0.8711  0.9136 -0.0404
11574TIP3   OH256212   6.148   6.455  16.319  0.9649  0.3790  0.1149
11574TIP3    H156213   6.098   6.524  16.274  1.6485  0.9338  0.1925
11574TIP3    H256214   6.081   6.401  16.362  0.4939  2.4378  2.1607
11575TIP3   OH256215   3.902   5.753   5.359  0.1263  0.2484  0.4500
11575TIP3    H156216   3.951   5.816   5.412  0.6480 -1.7610  2.5173
11575TIP3    H256217   3.934   5.767   5.270 -0.6183  3.5915  0.5785
11576TIP3   OH256218   1.712   6.347  10.868 -0.1414  0.3475 -0.2242
11576TIP3    H156219   1.668   6.298  10.937 -2.1968  1.0402 -0.9665
11576TIP3    H256220   1.671   6.316  10.787  2.2053 -0.4443 -1.2063
11577TIP3   OH256221   1.477   4.967  12.063 -0.7107 -0.3986  0.0776
11577TIP3    H156222   1.523   4.891  12.027  1.0291  0.3240  0.6968
11577TIP3    H256223   1.430   5.004  11.988  2.0177  0.4829 -1.3181
11578TIP3   OH256224   2.550   1.421   1.185 -0.2222  0.1202 -0.2521
11578TIP3    H156225   2.466   1.456   1.155 -0.2075  1.0678  0.7251
11578TIP3    H256226   2.553   1.331   1.152 -0.9983  0.5204 -1.4689
11579TIP3   OH256227   3.183   5.657  13.891  0.1402  0.5895 -0.0578
11579TIP3    H156228   3.146   5.740  13.863 -2.1311 -0.9356 -1.9261
11579TIP3    H256229   3.109   5.610  13.930  1.3451 -0.6161  0.8632
11580TIP3   OH256230   6.357   0.374  13.763 -0.2262 -0.2038  0.1205
11580TIP3    H156231   6.405   0.359  13.844 -1.1629  1.7687  1.0978
11580TIP3    H256232   6.425   0.397  13.699  0.3689 -0.2048  0.7446
11581TIP3   OH256233   1.644   4.420  16.646  0.0598 -0.8580  0.0458
11581TIP3    H156234   1.630   4.327  16.634  0.6341 -0.9736  0.2374
11581TIP3    H256235   1.583   4.445  16.715 -0.1896 -1.0667 -0.1004
11582TIP3   OH256236   2.872   3.304  12.749  0.1868  0.0555  0.2276
11582TIP3    H156237   2.817   3.373  12.789 -0.0169 -0.4875  0.9048
11582TIP3    H256238   2.817   3.226  12.752  0.4377 -0.1551 -0.5029
11583TIP3   OH256239   5.853   0.295  14.030  0.0837 -0.2201 -0.1896
11583TIP3    H156240   5.836   0.357  13.960  1.2165  0.5492  0.1758
11583TIP3    H256241   5.767   0.264  14.058 -0.3857 -0.4589 -1.8272
11584TIP3   OH256242   2.556   1.073  16.384 -0.0866  0.2347 -0.2020
11584TIP3    H156243   2.611   1.114  16.451 -0.4118  1.9972 -0.9463
11584TIP3    H256244   2.491   1.023  16.434 -0.3579  1.5479  0.8424
11585TIP3   OH256245   1.802   0.233   2.320 -0.1061  0.3679  0.1641
11585TIP3    H156246   1.885   0.197   2.352 -0.9618  0.3903  2.6017
11585TIP3    H256247   1.735   0.179   2.362 -1.3621  0.7392 -1.2862
11586TIP3   OH256248   4.466   2.919   6.091  0.1665  0.0737  0.0633
11586TIP3    H156249   4.435   2.891   6.177  1.9380  3.1760  1.9129
11586TIP3    H256250   4.405   2.989   6.065  0.7725  0.4980 -0.2429
11587TIP3   OH256251   1.908   6.213  14.038 -0.3387  0.0188  0.2630
11587TIP3    H156252   1.884   6.229  14.129 -1.6235  0.0314 -0.0618
11587TIP3    H256253   1.860   6.134  14.014  0.8691 -0.6384 -0.0889
11588TIP3   OH256254   4.341   5.506   0.036  0.4372 -0.0309 -0.1653
11588TIP3    H156255   4.426   5.550   0.033  0.2351  0.5480  1.6005
11588TIP3    H256256   4.360   5.420   0.072  0.5878 -0.8456 -2.0670
11589TIP3   OH256257   5.226   5.321  13.479 -0.0134  0.1217 -0.4558
11589TIP3    H156258   5.253   5.413  13.489 -0.1170  0.0997  0.0540
11589TIP3    H256259   5.148   5.313  13.533 -1.3524  0.2927 -2.2488
11590TIP3   OH256260   1.607   5.173   2.106  0.5729  0.6277  0.0604
11590TIP3    H156261   1.545   5.199   2.038 -0.5056 -0.2452  0.6800
11590TIP3    H256262   1.572   5.092   2.142  0.4929  1.5923  2.3827
11591TIP3   OH256263   0.285   5.098   1.291 -0.2991 -0.1055  0.8482
11591TIP3    H156264   0.364   5.047   1.275 -0.2671 -0.0846  0.9383
11591TIP3    H256265   0.246   5.111   1.204  0.8329  1.5886  0.5518
11592TIP3   OH256266   3.220   0.913  12.689  0.0580 -0.1064  0.2609
11592TIP3    H156267   3.272   0.873  12.620  0.8388 -0.4014  0.9963
11592TIP3    H256268   3.282   0.927  12.761  0.4918  4.5403 -0.6545
11593TIP3   OH256269   2.811   2.331  16.219 -0.2529  0.4501 -0.4612
11593TIP3    H156270   2.815   2.377  16.304  1.3234 -0.0074 -0.2559
11593TIP3    H256271   2.748   2.381  16.168 -1.8448  0.3012  1.2225
11594TIP3   OH256272   2.612   6.341   3.749  0.1006 -0.0507  0.0840
11594TIP3    H156273   2.625   6.368   3.657 -2.0569  2.0332  0.2957
11594TIP3    H256274   2.698   6.310   3.777  0.7405 -1.1278 -2.7383
11595TIP3   OH256275   4.750   0.029   5.678  0.3441 -0.1251  0.0481
11595TIP3    H156276   4.772   0.034   5.585 -2.8273 -0.0299 -0.8057
11595TIP3    H256277   4.695   0.106   5.693  0.3707 -0.4414  1.8924
11596TIP3   OH256278   6.279   0.909   1.896  0.1162 -0.3840 -0.1004
11596TIP3    H156279   6.231   0.959   1.962 -0.3568 -0.3438 -0.4694
11596TIP3    H256280   6.361   0.885   1.939  1.1020  2.1113 -0.4402
11597TIP3   OH256281   0.058   2.355   4.908 -0.0729 -0.2103  0.4592
11597TIP3    H156282   0.032   2.419   4.975 -2.1351  0.9064 -1.2889
11597TIP3    H256283  -0.008   2.286   4.916  0.1952 -0.5015  0.1506
11598TIP3   OH256284   4.277   4.946  14.904 -0.5659 -0.5475 -0.5492
11598TIP3    H156285   4.247   5.037  14.894 -0.2243 -0.6170 -2.6219
11598TIP3    H256286   4.329   4.947  14.984 -0.7997  1.0325 -0.3806
11599TIP3   OH256287   2.263   3.521  12.580 -0.3986  0.4365 -0.1947
11599TIP3    H156288   2.177   3.528  12.540 -0.6131  0.2925  0.2314
11599TIP3    H256289   2.245   3.502  12.673  0.0669  2.2840  0.3093
11600TIP3   OH256290   0.354   0.066   3.236  1.0535 -0.5051  0.3473
11600TIP3    H156291   0.403  -0.015   3.244  1.9042 -0.1974 -1.1731
11600TIP3    H256292   0.304   0.073   3.317  0.7092 -2.6887  0.3816
11601TIP3   OH256293   3.585   0.570  11.585  0.2540  0.0930  0.1118
11601TIP3    H156294   3.551   0.485  11.557 -1.0722  0.1055  1.5937
11601TIP3    H256295   3.585   0.623  11.506 -0.7931 -0.6837 -0.4270
11602TIP3   OH256296   0.710   2.517  15.192 -0.3225 -0.1008 -0.1747
11602TIP3    H156297   0.758   2.580  15.138  1.0118  0.8307  1.9559
11602TIP3    H256298   0.628   2.502  15.144  1.0647  0.0940 -2.7590
11603TIP3   OH256299   2.813   3.296   0.875  0.3612  0.3466 -0.1148
11603TIP3    H156300   2.835   3.389   0.879  0.0337  0.4046  0.4790
11603TIP3    H256301   2.771   3.278   0.959  0.0932 -0.2528 -0.3727
11604TIP3   OH256302   5.188   2.505   3.775  0.6361  0.3733  0.0964
11604TIP3    H156303   5.192   2.596   3.746  0.1002  0.1739 -0.6194
11604TIP3    H256304   5.224   2.454   3.702 -1.3994 -0.1940 -0.5999
11605TIP3   OH256305   3.217   0.124  11.802 -0.2267  0.8214  0.2542
11605TIP3    H156306   3.244   0.067  11.874  0.9363  0.1238 -0.7017
11605TIP3    H256307   3.217   0.067  11.725  0.9275  2.0830 -0.7248
11606TIP3   OH256308   6.376   6.821   6.390 -0.2416 -0.1403 -0.6038
11606TIP3    H156309   6.308   6.880   6.358  1.1412  1.1063 -1.3722
11606TIP3    H256310   6.338   6.733   6.380 -1.5957  0.4923 -1.3173
11607TIP3   OH256311   6.059   6.621  11.460  0.4030  0.6540  0.1772
11607TIP3    H156312   6.060   6.714  11.482  0.8359  0.7226 -0.1155
11607TIP3    H256313   5.988   6.612  11.396 -0.2606  0.6092  0.8988
11608TIP3   OH256314   3.040   0.271   0.980 -0.4288 -0.1993 -0.9113
11608TIP3    H156315   3.089   0.236   0.906  0.2560 -0.2813 -0.4352
11608TIP3    H256316   3.098   0.338   1.017 -0.0384 -1.2586  0.5051
11609TIP3   OH256317   6.310   2.341  15.163  0.6363  0.1289 -0.7210
11609TIP3    H156318   6.308   2.301  15.250  0.8833  1.2562 -0.1787
11609TIP3    H256319   6.282   2.271  15.104 -2.0377  0.0408  0.5243
11610TIP3   OH256320   5.037   0.278  11.280 -0.0372 -0.4572 -0.1488
11610TIP3    H156321   4.957   0.317  11.314 -0.4088  1.0541 -2.5085
11610TIP3    H256322   5.009   0.196  11.239 -0.4196  0.0819 -0.9942
11611TIP3   OH256323   0.504   1.631  17.072 -0.7220  0.2163 -0.2893
11611TIP3    H156324   0.554   1.682  17.136 -1.3989 -0.6895  0.9865
11611TIP3    H256325   0.413   1.647  17.094 -0.9978  0.6640 -1.6625
11612TIP3   OH256326   1.835   5.230  14.934 -0.0664 -0.0469 -0.1381
11612TIP3    H156327   1.931   5.229  14.929  0.0666 -0.9721  1.7056
11612TIP3    H256328   1.809   5.140  14.916 -0.6259  0.2439 -0.8424
11613TIP3   OH256329   4.661   2.081   4.199  0.3576  0.0117 -0.1272
11613TIP3    H156330   4.569   2.057   4.211 -0.1438  1.0579 -1.5404
11613TIP3    H256331   4.668   2.101   4.105  1.9718  0.1997  0.0063
11614TIP3   OH256332   5.713   3.766  15.327  0.2686  0.5651  0.2830
11614TIP3    H156333   5.758   3.723  15.400  1.7665  1.8693  0.1665
11614TIP3    H256334   5.737   3.715  15.250  0.1269  0.2415  0.4485
11615TIP3   OH256335   2.579   0.096   4.703  0.1828 -0.1470 -0.1821
11615TIP3    H156336   2.486   0.097   4.683 -0.2550  0.6937  1.6639
11615TIP3    H256337   2.604   0.188   4.709  0.4189 -0.3007  2.1571
11616TIP3   OH256338   5.761   6.851   0.041  0.6382  0.3406 -0.2383
11616TIP3    H156339   5.851   6.837   0.012  0.0985  0.1675 -1.9740
11616TIP3    H256340   5.710   6.784  -0.007 -0.4247  0.5199  0.6024
11617TIP3   OH256341   5.968   2.703  13.557 -0.1895  0.1969 -0.8426
11617TIP3    H156342   5.875   2.700  13.579 -0.0389 -1.2765 -0.2360
11617TIP3    H256343   5.971   2.690  13.462 -0.5722 -1.8434 -0.6313
11618TIP3   OH256344   1.708   3.745   2.202 -0.1013 -1.0440 -0.5835
11618TIP3    H156345   1.665   3.660   2.202 -0.8773 -0.7166 -2.4386
11618TIP3    H256346   1.693   3.779   2.113 -0.5136  1.3593  0.3227
11619TIP3   OH256347   4.795   6.744   1.022  0.2265  0.0295 -0.3036
11619TIP3    H156348   4.732   6.763   0.952 -2.1150  1.8234  2.1018
11619TIP3    H256349   4.837   6.828   1.039  0.5541 -0.3256  0.6634
11620TIP3   OH256350   4.988   3.201  11.071 -0.1647  0.2941 -0.4523
11620TIP3    H156351   5.033   3.252  11.138 -1.3977  0.2166  0.4836
11620TIP3    H256352   5.001   3.249  10.990 -0.5173  1.6110  0.2473
11621TIP3   OH256353   3.793   3.429   3.384 -0.0272  0.4091 -0.7211
11621TIP3    H156354   3.705   3.405   3.354 -0.2025 -0.7911  0.6399
11621TIP3    H256355   3.834   3.470   3.308 -1.1491 -0.6349 -1.9393
11622TIP3   OH256356   2.630   5.185   2.230  0.4131  0.1760 -0.5448
11622TIP3    H156357   2.661   5.230   2.309  1.6151  1.5141 -1.7441
11622TIP3    H256358   2.697   5.120   2.211 -0.6797 -1.3081  0.4220
11623TIP3   OH256359   3.321   6.291  13.451 -0.2543  0.2161  0.2918
11623TIP3    H156360   3.261   6.247  13.511  0.5697 -0.2223  0.8086
11623TIP3    H256361   3.367   6.219  13.407 -1.5263  0.4819 -1.6190
11624TIP3   OH256362   4.553   5.875   4.085  0.4863  0.6830  0.1181
11624TIP3    H156363   4.571   5.782   4.082  0.9382  0.6469  2.3850
11624TIP3    H256364   4.628   5.913   4.130  0.4975  2.2246 -1.0985
11625TIP3   OH256365   5.166   5.986   0.295 -0.0783 -0.1727 -0.4789
11625TIP3    H156366   5.116   6.043   0.236 -0.5793  0.6545  0.7061
11625TIP3    H256367   5.232   6.044   0.334 -0.0942 -0.5815  0.1633
11626TIP3   OH256368   0.683   5.453  16.997  0.3129  1.1181  0.2710
11626TIP3    H156369   0.714   5.538  17.028 -0.4934  1.3166  0.5645
11626TIP3    H256370   0.682   5.398  17.075 -0.1123  1.1286  0.2741
11627TIP3   OH256371   3.107   1.992  11.291 -0.4905 -0.2016  0.2352
11627TIP3    H156372   3.073   2.036  11.369  0.7209  0.2123  0.5620
11627TIP3    H256373   3.034   1.991  11.229 -1.3292 -0.1179  1.2059
11628TIP3   OH256374   2.155   0.435   0.838  0.0465 -0.0473 -0.0318
11628TIP3    H156375   2.079   0.485   0.869 -0.4375  1.1745 -2.8928
11628TIP3    H256376   2.197   0.493   0.774  1.3509 -2.0608 -1.0941
11629TIP3   OH256377   0.596   4.846  13.305  0.4780 -0.1091  0.2308
11629TIP3    H156378   0.642   4.763  13.299  1.0509  0.1907  0.4379
11629TIP3    H256379   0.595   4.866  13.399  0.7373  0.3393  0.1372
11630TIP3   OH256380   4.299   5.538   1.540 -0.6567  0.3724 -0.1643
11630TIP3    H156381   4.390   5.567   1.543 -0.8474  1.1057 -1.2181
11630TIP3    H256382   4.291   5.479   1.616  0.1682  1.7701  1.0683
11631TIP3   OH256383   5.657   4.513  16.485 -0.7701 -0.7059 -0.5584
11631TIP3    H156384   5.624   4.591  16.529 -2.6820 -1.8624  0.1573
11631TIP3    H256385   5.580   4.471  16.447  0.2024 -2.2002 -1.0021
11632TIP3   OH256386   0.166   0.682   5.664 -0.0532 -0.2017  0.1412
11632TIP3    H156387   0.081   0.719   5.688  0.3954  0.4065  0.8216
11632TIP3    H256388   0.146   0.592   5.638 -1.1000  0.3882 -1.1799
11633TIP3   OH256389   0.217   6.771  15.286  0.0751  0.2264  0.3358
11633TIP3    H156390   0.154   6.819  15.340 -0.7133  0.5219 -0.8039
11633TIP3    H256391   0.184   6.682  15.284 -0.9171  0.5731 -1.0433
11634TIP3   OH256392   5.359   5.932  16.088 -0.8986 -0.9719  0.0457
11634TIP3    H156393   5.409   5.979  16.155  0.5194 -1.7141 -0.4694
11634TIP3    H256394   5.290   5.887  16.138 -1.4042  0.4767  0.7017
11635TIP3   OH256395   1.169   6.854   2.857  0.6368 -0.5089  0.1269
11635TIP3    H156396   1.104   6.851   2.927  1.0710 -1.2693  0.5122
11635TIP3    H256397   1.120   6.886   2.781  0.2559  0.7344  0.8569
11636TIP3   OH256398   3.982   4.870   3.843 -0.4391 -0.0718 -0.0314
11636TIP3    H156399   3.891   4.878   3.816 -0.3596  0.0537 -0.2663
11636TIP3    H256400   3.985   4.791   3.896 -0.9632  0.6422  1.1020
11637TIP3   OH256401   5.496   4.202  16.521  0.0372 -0.0696  0.5440
11637TIP3    H156402   5.478   4.273  16.582 -1.8051  1.5613 -1.7606
11637TIP3    H256403   5.410   4.176  16.487  1.0294  0.1593 -2.4408
11638TIP3   OH256404   1.003   3.532  11.996  1.1271 -0.7921  0.3324
11638TIP3    H156405   0.964   3.453  11.958  0.2482 -0.8779  1.3406
11638TIP3    H256406   1.093   3.532  11.965 -0.2019  0.8804 -4.4294
11639TIP3   OH256407   5.355   4.112   3.797  0.2193 -0.4187  0.1730
11639TIP3    H156408   5.358   4.024   3.758  2.6536 -1.9270  3.2773
11639TIP3    H256409   5.419   4.162   3.746  0.7902 -1.2680  0.0233
11640TIP3   OH256410   3.771   2.042   3.609 -0.6244  0.4345 -0.0862
11640TIP3    H156411   3.722   2.110   3.561 -1.1772  1.2754  1.5771
11640TIP3    H256412   3.710   1.969   3.614 -0.5463  0.3212 -0.6787
11641TIP3   OH256413   2.556   3.978   2.537  0.0638 -0.5971  0.1631
11641TIP3    H156414   2.578   3.893   2.576  1.1497 -0.6433 -0.5102
11641TIP3    H256415   2.581   4.042   2.605 -0.1654 -0.7843  0.4260
11642TIP3   OH256416   4.717   1.073   4.641 -0.1971 -0.4774 -0.1692
11642TIP3    H156417   4.780   1.006   4.616  0.7126 -0.4574  1.8380
11642TIP3    H256418   4.672   1.035   4.717 -1.3189  0.2604 -0.4462
11643TIP3   OH256419   3.167   1.762  11.446 -0.4070  0.4251  0.1336
11643TIP3    H156420   3.134   1.846  11.415 -2.3908 -0.3892 -0.1287
11643TIP3    H256421   3.120   1.747  11.529 -0.9359 -0.9064 -0.3773
11644TIP3   OH256422   2.531   4.314  15.222 -0.5117  0.0162 -0.3455
11644TIP3    H156423   2.601   4.366  15.181 -0.9667 -0.3928 -1.7152
11644TIP3    H256424   2.541   4.329  15.316  1.7420 -0.4418 -0.4642
11645TIP3   OH256425   3.852   3.748  12.596  0.4017 -0.4276  0.2337
11645TIP3    H156426   3.850   3.823  12.537 -0.6602  0.1082  0.9232
11645TIP3    H256427   3.945   3.726  12.604  0.5179 -1.9257 -3.3499
11646TIP3   OH256428   6.471   4.795  10.685 -0.3367 -0.3797 -0.2900
11646TIP3    H156429   6.426   4.734  10.744 -0.2200 -0.1295  0.0627
11646TIP3    H256430   6.455   4.881  10.724  1.2618 -0.3627  0.4008
11647TIP3   OH256431   4.235   3.295  17.097 -0.1333  0.1023  0.3946
11647TIP3    H156432   4.220   3.200  17.088 -1.5057  0.3330 -0.0203
11647TIP3    H256433   4.325   3.308  17.068 -0.9969 -0.6234 -3.1043
11648TIP3   OH256434   5.213   1.932  12.766 -0.2571 -0.4605 -0.2575
11648TIP3    H156435   5.247   2.002  12.822  1.2449 -1.0984 -0.3326
11648TIP3    H256436   5.168   1.873  12.827  0.6645 -0.7278  0.1842
11649TIP3   OH256437   0.438   1.617  16.341  0.2234 -0.3772 -0.1796
11649TIP3    H156438   0.459   1.709  16.325  1.2969 -0.7337 -0.9427
11649TIP3    H256439   0.362   1.600  16.285  1.5681 -0.5885 -2.0499
11650TIP3   OH256440   0.015   1.080   0.787  0.2732  0.3287  0.0970
11650TIP3    H156441   0.039   1.004   0.840  0.5747  1.6892  1.9585
11650TIP3    H256442   0.098   1.121   0.764  0.0697  0.5666 -0.2279
11651TIP3   OH256443   6.613   5.683   4.728  0.1436 -0.5032 -0.1464
11651TIP3    H156444   6.640   5.665   4.818  1.5500  0.9092 -0.2364
11651TIP3    H256445   6.595   5.777   4.727  0.0949 -0.5131 -1.3216
11652TIP3   OH256446   4.477   2.956  13.610  0.0550  0.3577 -0.0421
11652TIP3    H156447   4.426   2.974  13.531  1.9990 -0.6313 -1.6024
11652TIP3    H256448   4.540   3.028  13.615  0.4368  0.0127  0.1676
11653TIP3   OH256449   2.354   3.361   3.131 -0.0638  0.2097  0.1948
11653TIP3    H156450   2.287   3.422   3.160  1.4586  2.1642 -0.1719
11653TIP3    H256451   2.433   3.389   3.178  1.1837 -0.0522 -1.6386
11654TIP3   OH256452   1.378   5.494  14.857  0.3211 -0.1824 -0.4598
11654TIP3    H156453   1.403   5.403  14.841  1.0060  0.0915 -0.9719
11654TIP3    H256454   1.461   5.541  14.864 -0.0206  0.6750 -1.7937
11655TIP3   OH256455   1.981   3.243   6.030 -0.0276 -0.1152  0.4393
11655TIP3    H156456   2.032   3.281   6.102  2.1032 -0.6802 -0.6612
11655TIP3    H256457   1.920   3.184   6.072 -0.9588  1.8082  1.9488
11656TIP3   OH256458   0.698   5.538   0.447 -0.3333 -0.5914  0.0096
11656TIP3    H156459   0.779   5.559   0.400 -1.2874  1.9930 -0.6729
11656TIP3    H256460   0.628   5.574   0.392 -1.6409  0.8502  2.4352
11657TIP3   OH256461   1.155   3.176  14.468  0.3963 -0.1645  0.4639
11657TIP3    H156462   1.143   3.233  14.392 -0.8917  0.2592  0.9491
11657TIP3    H256463   1.168   3.237  14.541  1.7759 -0.5715  0.5748
11658TIP3   OH256464   4.270   6.512   0.983 -0.5887  0.0145 -0.1584
11658TIP3    H156465   4.319   6.592   0.960 -0.2904 -0.2457 -0.4403
11658TIP3    H256466   4.190   6.544   1.023 -0.4606  0.4612 -0.2508
11659TIP3   OH256467   0.190   5.705   5.545  0.4130 -0.2233  0.0219
11659TIP3    H156468   0.155   5.780   5.592  2.7339 -0.5672  2.5425
11659TIP3    H256469   0.147   5.708   5.459 -1.2996  2.5708  0.8544
11660TIP3   OH256470   4.884   4.247  15.261  0.0039 -0.0788  0.1053
11660TIP3    H156471   4.917   4.161  15.234  0.5894  0.0851  0.2774
11660TIP3    H256472   4.954   4.283  15.316  0.8110  1.4568 -1.7911
11661TIP3   OH256473   3.532   0.332  14.543 -0.0442 -0.0674  0.4108
11661TIP3    H156474   3.456   0.275  14.541 -0.1039  0.0152 -1.5032
11661TIP3    H256475   3.557   0.337  14.635 -0.8163 -2.1167  0.7660
11662TIP3   OH256476   2.967   3.563   2.237  0.1357  0.0833  0.0354
11662TIP3    H156477   3.000   3.632   2.179 -2.0767  2.2801  1.1742
11662TIP3    H256478   2.881   3.541   2.202 -0.0963 -0.4962  0.9329
11663TIP3   OH256479   5.467   5.479  14.246 -0.2504  0.5523  0.2284
11663TIP3    H156480   5.448   5.455  14.155  0.7622  1.4404 -0.2398
11663TIP3    H256481   5.532   5.548  14.239  1.5742 -0.8981  1.6761
11664TIP3   OH256482   0.994   4.884   2.045  0.2412  0.4777  0.0080
11664TIP3    H156483   1.006   4.889   1.950 -1.1249 -0.6153 -0.2463
11664TIP3    H256484   0.965   4.794   2.061 -1.3279  1.1636  1.2361
11665TIP3   OH256485   1.781   0.500  15.094 -0.4715  0.0271 -0.2356
11665TIP3    H156486   1.721   0.445  15.044  1.1810 -2.2060  0.0906
11665TIP3    H256487   1.866   0.459  15.084  0.6334  1.7797  1.1862
11666TIP3   OH256488   3.647   6.743   0.112 -0.1253 -0.1844  0.7414
11666TIP3    H156489   3.616   6.699   0.192  0.7605 -0.3051  1.0295
11666TIP3    H256490   3.675   6.829   0.142 -1.1959  0.3293  0.2949
11667TIP3   OH256491   6.805   2.314  12.059 -0.5983  0.2506  0.0216
11667TIP3    H156492   6.823   2.221  12.073  0.6953  0.3653 -0.7127
11667TIP3    H256493   6.827   2.329  11.966  1.0918  1.6766  0.5809
11668TIP3   OH256494   0.449   6.759  16.147  0.2780  0.0583  0.0776
11668TIP3    H156495   0.503   6.817  16.200  0.8938 -1.4836  1.2283
11668TIP3    H256496   0.377   6.734  16.205  0.4768 -0.9541 -0.0886
11669TIP3   OH256497   5.442   4.227   1.926  0.0752 -0.3084 -0.1741
11669TIP3    H156498   5.479   4.148   1.885 -1.0975 -1.3516  0.7085
11669TIP3    H256499   5.364   4.196   1.972 -1.0758  1.5653 -0.7534
11670TIP3   OH256500   0.240   1.609   3.203 -0.0062  0.3689 -0.1284
11670TIP3    H156501   0.243   1.530   3.150 -0.1294  0.3418 -0.0958
11670TIP3    H256502   0.268   1.581   3.290  0.0802  0.3892 -0.1491
11671TIP3   OH256503   1.942   3.569   2.252  0.1813 -0.1900 -0.3072
11671TIP3    H156504   2.011   3.635   2.247  1.6285 -1.5607  0.4095
11671TIP3    H256505   1.865   3.616   2.281  1.4771  1.0005  1.3831
11672TIP3   OH256506   3.603   4.953  15.948  0.0976  0.9066  0.0323
11672TIP3    H156507   3.618   4.916  15.861  2.9588  0.2760  0.6870
11672TIP3    H256508   3.675   4.920  16.001 -2.4670 -0.1863  3.1792
11673TIP3   OH256509   0.785   4.167   2.890 -0.5669 -0.1236  0.4855
11673TIP3    H156510   0.716   4.124   2.939  0.6684 -1.6081  0.9840
11673TIP3    H256511   0.818   4.236   2.948 -1.8605  0.8868  0.0778
11674TIP3   OH256512   2.842   1.716   1.334  0.3417  0.1558 -0.3117
11674TIP3    H156513   2.795   1.635   1.355 -0.2726  0.1008 -1.8121
11674TIP3    H256514   2.934   1.690   1.331  0.6514  0.3592  3.1528
11675TIP3   OH256515   1.570   0.266   1.285 -0.2626  0.2636  0.4030
11675TIP3    H156516   1.641   0.258   1.222 -2.2621 -1.4391 -1.8116
11675TIP3    H256517   1.527   0.349   1.263  1.1601  1.5072  2.0152
11676TIP3   OH256518   3.554   3.399  14.703  0.2741 -0.3656 -0.0183
11676TIP3    H156519   3.541   3.392  14.609 -0.4605 -1.6251  0.1457
11676TIP3    H256520   3.477   3.446  14.735 -0.6977 -1.9761  0.1783
11677TIP3   OH256521   4.990   3.123   1.114  0.0955  0.3070 -0.1858
11677TIP3    H156522   4.894   3.126   1.108  0.0820  1.1794  0.2994
11677TIP3    H256523   5.016   3.065   1.042 -0.8810 -1.2678  0.6737
11678TIP3   OH256524   3.574   0.747   1.263 -0.2247 -0.5374  0.9447
11678TIP3    H156525   3.532   0.830   1.282 -2.2948 -1.2031 -0.4234
11678TIP3    H256526   3.656   0.770   1.219  0.3285  0.7718  2.5679
11679TIP3   OH256527   5.339   1.927   5.947  0.5376 -0.0648  0.4120
11679TIP3    H156528   5.301   1.926   5.860  0.3802  1.5679  0.4282
11679TIP3    H256529   5.318   2.014   5.981  1.2254 -0.4133  1.7963
11680TIP3   OH256530   3.696   0.310  15.063  0.2028 -0.6548  0.1668
11680TIP3    H156531   3.678   0.287  14.972 -1.1087 -1.4199  0.5826
11680TIP3    H256532   3.653   0.394  15.076 -2.6520 -2.0967  0.9307
11681TIP3   OH256533   3.186   1.722   0.720  0.6595 -0.3143  0.3472
11681TIP3    H156534   3.231   1.637   0.723 -0.5949 -1.0945 -1.5542
11681TIP3    H256535   3.093   1.700   0.730  0.3485  0.8662  0.1415
11682TIP3   OH256536   2.436   1.982   1.213  0.2216  0.3044 -0.3838
11682TIP3    H156537   2.453   1.890   1.193  0.7118  0.2421  0.3033
11682TIP3    H256538   2.515   2.028   1.184  0.1758  0.4500 -0.2759
11683TIP3   OH256539   5.694   0.704  15.537  0.5185 -0.3983 -0.5387
11683TIP3    H156540   5.774   0.675  15.580 -0.8443  0.4700  2.9456
11683TIP3    H256541   5.710   0.796  15.517  0.0832  0.1317  1.3043
11684TIP3   OH256542   4.057   0.600  14.769 -0.5312 -0.4877  0.0566
11684TIP3    H156543   3.973   0.640  14.748 -0.1046 -0.8540 -2.7254
11684TIP3    H256544   4.035   0.514  14.802 -1.2838 -0.1500  0.4533
11685TIP3   OH256545   1.792   0.924  16.196 -0.2288 -0.1385 -0.2886
11685TIP3    H156546   1.777   0.849  16.253  1.5668 -0.8865 -0.7359
11685TIP3    H256547   1.831   0.991  16.253  0.0141 -0.2789 -0.2872
11686TIP3   OH256548   5.693   0.097  13.108 -0.4340  0.1008 -0.1245
11686TIP3    H156549   5.775   0.088  13.157 -0.7597 -1.3503  0.2086
11686TIP3    H256550   5.634   0.034  13.149 -1.1095 -0.2674 -1.6045
11687TIP3   OH256551   4.212   2.514  14.735  0.7253 -0.4506 -0.2328
11687TIP3    H156552   4.205   2.455  14.660  0.0422 -0.0571 -0.4911
11687TIP3    H256553   4.177   2.463  14.808 -0.4002 -0.1914 -0.5674
11688TIP3   OH256554   4.949   3.810   3.785  0.5611 -0.4742  0.0439
11688TIP3    H156555   5.016   3.785   3.722  1.3011 -0.8646  0.9462
11688TIP3    H256556   4.977   3.768   3.867 -0.7780 -0.6104  0.4475
11689TIP3   OH256557   3.859   5.861  11.419  0.7878  0.3855 -0.3190
11689TIP3    H156558   3.910   5.941  11.430  0.6235  0.4020  0.3818
11689TIP3    H256559   3.894   5.801  11.486  0.8658 -0.1013 -0.7912
11690TIP3   OH256560   2.101   5.686   1.732 -0.2164 -0.9970 -0.9677
11690TIP3    H156561   2.043   5.726   1.796  0.1418 -3.3932  0.9999
11690TIP3    H256562   2.057   5.699   1.648 -2.1312 -0.2246  0.1031
11691TIP3   OH256563   1.012   2.094  17.037 -0.2768 -0.6046 -0.1030
11691TIP3    H156564   0.944   2.095  16.970  0.8953  0.3367 -1.3399
11691TIP3    H256565   1.040   2.003  17.042  0.5043 -0.5012 -1.8736
11692TIP3   OH256566   5.312   6.847   0.383 -0.8880 -0.0553 -0.4098
11692TIP3    H156567   5.348   6.821   0.468  1.6666  0.9329 -1.0951
11692TIP3    H256568   5.293   6.765   0.339  2.0042 -0.7674 -0.5151
11693TIP3   OH256569   0.779   2.276  16.065  0.0379 -0.3468  0.1849
11693TIP3    H156570   0.734   2.244  16.143  0.7463 -0.7471  0.4408
11693TIP3    H256571   0.863   2.310  16.099 -0.0442  0.3326 -0.2834
11694TIP3   OH256572   6.112   2.815   4.158 -0.6724 -0.5325 -0.1805
11694TIP3    H156573   6.207   2.819   4.146 -0.5758  0.9106  0.8177
11694TIP3    H256574   6.095   2.723   4.177  0.3980 -0.9723 -1.2066
11695TIP3   OH256575   4.055   4.908  16.815  0.1065 -0.2472  0.2890
11695TIP3    H156576   4.109   4.906  16.736 -1.6103  1.8581 -1.0550
11695TIP3    H256577   4.114   4.939  16.883  0.7605  1.6117 -1.0405
11696TIP3   OH256578   4.897   3.555  13.136 -0.3493 -0.4081  0.0462
11696TIP3    H156579   4.904   3.626  13.200 -1.4963 -0.8239  0.6876
11696TIP3    H256580   4.925   3.477  13.184  1.6721 -0.3108 -0.8909
11697TIP3   OH256581   5.497   6.099   1.777  0.0995  0.0898 -0.1064
11697TIP3    H156582   5.424   6.161   1.771  0.1153  0.0611 -0.6195
11697TIP3    H256583   5.489   6.045   1.698  0.8353  0.2617 -0.3006
11698TIP3   OH256584   5.060   3.167  13.967 -0.2170 -0.1336 -0.5066
11698TIP3    H156585   5.129   3.232  13.953 -1.4689  1.6513  1.0732
11698TIP3    H256586   5.019   3.156  13.881 -0.2255  1.5062 -0.7479
11699TIP3   OH256587   5.697   4.190  12.671  0.1802 -0.4490 -0.0300
11699TIP3    H156588   5.721   4.114  12.617 -0.9949 -2.5215  2.1596
11699TIP3    H256589   5.712   4.160  12.761 -0.2822  1.9741  0.9137
11700TIP3   OH256590   3.659   4.983   4.082 -0.1492 -0.3141 -0.1296
11700TIP3    H156591   3.722   4.943   4.023 -0.4959 -1.2945  0.1461
11700TIP3    H256592   3.693   5.071   4.097 -0.3056  0.1413 -2.1496
11701TIP3   OH256593   0.865   5.546   0.222 -0.0328 -0.1067  0.2048
11701TIP3    H156594   0.950   5.540   0.267 -0.3125 -0.1348  0.7397
11701TIP3    H256595   0.866   5.632   0.180  0.5829 -0.4322 -0.4602
11702TIP3   OH256596   4.479   1.902  12.844  0.5448  0.3894  0.1586
11702TIP3    H156597   4.461   1.898  12.938  1.3693 -1.1039  0.2723
11702TIP3    H256598   4.397   1.877  12.802  0.5922 -0.3972  0.5265
11703TIP3   OH256599   4.426   2.399   1.662  0.4494  0.4159  0.4941
11703TIP3    H156600   4.513   2.397   1.700  0.5070  0.0393  0.3447
11703TIP3    H256601   4.380   2.469   1.709  0.5644  0.0464  1.1539
11704TIP3   OH256602   6.225   4.098   1.560  0.3005 -0.2023 -0.1437
11704TIP3    H156603   6.226   4.186   1.598 -0.3846  0.0273 -0.6172
11704TIP3    H256604   6.154   4.053   1.606 -0.1966 -0.0839 -0.7628
11705TIP3   OH256605   2.054   4.229  14.227  0.0726  0.2535 -0.1489
11705TIP3    H156606   2.091   4.307  14.187  2.8490 -0.8755  0.0100
11705TIP3    H256607   2.073   4.159  14.165 -0.6601 -0.6024  0.5613
11706TIP3   OH256608   4.399   3.819  11.146  0.5604 -0.3556  0.2673
11706TIP3    H156609   4.343   3.810  11.223 -1.5346  0.3195 -1.0878
11706TIP3    H256610   4.424   3.729  11.124 -2.6055 -1.0953 -0.8403
11707TIP3   OH256611   1.497   5.885  12.559 -0.2410  0.1519 -0.7993
11707TIP3    H156612   1.564   5.863  12.624 -1.5684  1.4881  1.1397
11707TIP3    H256613   1.441   5.949  12.603 -3.0180 -1.1473 -2.1761
11708TIP3   OH256614   5.811   1.031   3.921 -0.5068  0.1235 -0.5915
11708TIP3    H156615   5.718   1.042   3.941 -0.2492  0.0046  0.7808
11708TIP3    H256616   5.854   1.103   3.968  0.2287 -0.7062  0.0323
11709TIP3   OH256617   6.048   3.566   4.797  0.3770 -0.4931  0.5904
11709TIP3    H156618   6.123   3.620   4.772 -0.3794  0.3136 -0.0611
11709TIP3    H256619   6.026   3.595   4.885 -0.2761  0.6126  0.0935
11710TIP3   OH256620   5.127   4.252  15.765  0.1733  0.0404 -0.1516
11710TIP3    H156621   5.149   4.174  15.814 -0.1164 -1.4680 -2.2702
11710TIP3    H256622   5.181   4.246  15.685 -0.5722  1.4867 -0.8083
11711TIP3   OH256623   5.470   1.149  13.015 -0.3820 -0.2902 -0.1608
11711TIP3    H156624   5.459   1.144  12.920  0.8453 -0.1908 -0.3219
11711TIP3    H256625   5.544   1.208  13.027  0.3863 -1.4181  0.7959
11712TIP3   OH256626   4.502   3.412   5.405 -0.4437 -0.4073 -0.5428
11712TIP3    H156627   4.473   3.462   5.328 -0.4066 -0.5993 -0.6830
11712TIP3    H256628   4.499   3.321   5.376 -2.3543 -0.6677  0.2863
11713TIP3   OH256629   1.358   6.021   6.175 -0.4299 -0.1602  0.3041
11713TIP3    H156630   1.272   6.043   6.211 -1.0014 -1.0619 -0.4762
11713TIP3    H256631   1.394   5.957   6.237 -0.8135 -0.6452  0.0343
11714TIP3   OH256632   5.008   2.880  13.262  0.1597  0.8205  0.1175
11714TIP3    H156633   4.969   2.878  13.175  0.8394  0.8790 -0.1946
11714TIP3    H256634   5.034   2.789  13.278  0.7318  0.9535 -0.0607
11715TIP3   OH256635   3.766   4.913   5.612  0.1545  0.2180 -0.4150
11715TIP3    H156636   3.740   5.003   5.595  3.1228  0.8933 -1.8895
11715TIP3    H256637   3.791   4.912   5.705  1.5129  1.3181 -0.7535
11716TIP3   OH256638   6.760   1.218  14.843 -0.2510 -0.0946  0.5189
11716TIP3    H156639   6.708   1.251  14.770  0.6864  1.2745  0.4224
11716TIP3    H256640   6.719   1.135  14.866 -1.8146  0.4274 -0.2219
11717TIP3   OH256641   5.867   1.205   2.840  0.0104  0.4921 -0.0111
11717TIP3    H156642   5.795   1.151   2.872 -0.4663  1.0017 -0.2173
11717TIP3    H256643   5.835   1.242   2.758  1.9180 -2.4632 -2.3591
11718TIP3   OH256644   6.001   3.129  15.799  0.4105  0.5070  0.1388
11718TIP3    H156645   6.064   3.159  15.865 -0.8096 -2.2002  2.8172
11718TIP3    H256646   5.941   3.203  15.788  0.7282  1.1047  2.0451
11719TIP3   OH256647   0.065   3.446  15.616  0.0920 -0.3815 -0.2354
11719TIP3    H156648   0.143   3.460  15.670 -0.0332 -1.9698  0.4260
11719TIP3    H256649  -0.008   3.456  15.677 -0.1058 -0.9330 -0.3693
11720TIP3   OH256650   4.937   3.688   1.491 -0.3450  0.1912 -0.0741
11720TIP3    H156651   4.911   3.676   1.583  0.0414  0.6130  0.0916
11720TIP3    H256652   4.924   3.781   1.474 -1.1478 -0.0264 -0.6799
11721TIP3   OH256653   6.623   4.997   1.087 -0.4112 -0.2451 -0.6045
11721TIP3    H156654   6.558   4.934   1.118 -3.0047  2.7807  0.5909
11721TIP3    H256655   6.584   5.035   1.008  0.2758  1.0719 -0.3281
11722TIP3   OH256656   3.555   1.981  15.960  0.5624  0.1028 -0.6195
11722TIP3    H156657   3.609   1.944  16.030  0.3653  1.0612  0.0537
11722TIP3    H256658   3.475   2.010  16.004  0.4889  0.8385 -1.2180
11723TIP3   OH256659   5.480   5.856   2.893 -0.0903  0.2838 -0.6664
11723TIP3    H156660   5.545   5.902   2.839 -1.3039  0.8649 -1.6982
11723TIP3    H256661   5.504   5.764   2.886  0.6616  0.4931 -0.9796
11724TIP3   OH256662   5.986   5.515   5.366  0.3701  0.3213  0.0228
11724TIP3    H156663   6.031   5.582   5.417 -1.8836  2.1876 -0.2763
11724TIP3    H256664   6.030   5.516   5.281 -0.7561  2.8406 -0.6105
11725TIP3   OH256665   5.462   6.621   2.813 -0.3408 -0.0453  0.1804
11725TIP3    H156666   5.448   6.716   2.809 -0.8904 -0.1357 -0.1511
11725TIP3    H256667   5.385   6.584   2.771 -0.5199 -0.6703  1.0558
11726TIP3   OH256668   2.954   5.540  16.858  0.5454 -0.1614  0.0209
11726TIP3    H156669   2.951   5.497  16.772  0.3038  1.0581 -0.6009
11726TIP3    H256670   3.027   5.498  16.903  1.0075 -0.4685 -0.9766
11727TIP3   OH256671   5.873   5.167  14.354  0.5128  0.1889  0.2221
11727TIP3    H156672   5.841   5.211  14.433 -2.7510 -0.5579 -0.5342
11727TIP3    H256673   5.912   5.237  14.301  0.4826  1.1264  1.4083
11728TIP3   OH256674   1.872   6.694   0.457  0.6386  0.0973 -0.0153
11728TIP3    H156675   1.901   6.605   0.435 -0.0698 -0.4131  1.0375
11728TIP3    H256676   1.907   6.748   0.386  2.4256 -0.7704  0.1319
11729TIP3   OH256677   6.023   2.605  16.278  0.3211  0.3099  0.1386
11729TIP3    H156678   5.958   2.552  16.325 -1.4803  2.7050  0.5552
11729TIP3    H256679   5.978   2.631  16.197  0.9738  1.4759  0.1326
11730TIP3   OH256680   6.215   6.390   4.377 -0.4176  0.6502 -0.0062
11730TIP3    H156681   6.188   6.299   4.362 -1.8652  1.0338  0.0957
11730TIP3    H256682   6.148   6.442   4.334  0.8905  1.6929 -0.8664
11731TIP3   OH256683   5.712   2.246   1.016 -0.6219  0.5565 -0.0936
11731TIP3    H156684   5.680   2.194   1.090  0.0923 -1.4252 -1.1254
11731TIP3    H256685   5.632   2.279   0.975 -1.0265  1.9341  1.6675
11732TIP3   OH256686   3.577   6.717   2.653 -0.1789 -0.2309  0.1482
11732TIP3    H156687   3.496   6.762   2.626 -0.5781 -0.7942  0.3787
11732TIP3    H256688   3.546   6.636   2.694  0.4687  0.1501  1.4071
11733TIP3   OH256689   4.049   2.787  13.941 -0.3585 -0.1994  0.7898
11733TIP3    H156690   4.131   2.809  13.897  0.2376 -0.1538  1.8812
11733TIP3    H256691   4.053   2.692  13.954 -0.4211 -0.1770  0.9701
11734TIP3   OH256692   1.308   6.732  14.817  0.2653  0.0634 -0.4237
11734TIP3    H156693   1.377   6.689  14.868  1.2638  0.4165 -1.4542
11734TIP3    H256694   1.231   6.677  14.831  1.0889 -1.1161 -0.3556
11735TIP3   OH256695   5.937   0.305   3.414  0.2379 -0.5435 -0.5186
11735TIP3    H156696   6.030   0.306   3.395  0.5957 -2.4908  0.8086
11735TIP3    H256697   5.905   0.224   3.372 -0.6129 -0.5004  0.0196
11736TIP3   OH256698   0.210   5.339  14.752 -0.0436  0.0086  0.1507
11736TIP3    H156699   0.223   5.418  14.699 -2.2194 -0.2200 -0.8406
11736TIP3    H256700   0.280   5.280  14.724  0.3789  0.8337 -0.5922
11737TIP3   OH256701   0.161   5.517  11.592  0.3236 -0.6017  0.3130
11737TIP3    H156702   0.228   5.585  11.597 -0.7401  0.4027  4.2652
11737TIP3    H256703   0.078   5.565  11.594 -0.4702 -1.9252  0.9143
11738TIP3   OH256704   2.621   0.546   5.368 -0.1877  0.1807  0.0478
11738TIP3    H156705   2.607   0.638   5.343 -1.7135 -0.0106  0.1176
11738TIP3    H256706   2.607   0.497   5.287  0.0362 -0.0507  0.1457
11739TIP3   OH256707   3.799   0.469   1.518 -0.3562 -0.3376  0.1562
11739TIP3    H156708   3.733   0.525   1.478 -1.6926 -1.3129  0.9159
11739TIP3    H256709   3.764   0.381   1.512  0.6565 -0.8312  0.9995
11740TIP3   OH256710   3.356   3.614   5.222 -0.4006 -0.0217 -0.0369
11740TIP3    H156711   3.265   3.587   5.220 -0.6541  0.8579 -0.9627
11740TIP3    H256712   3.403   3.542   5.180 -0.5905 -0.6626  0.8042
11741TIP3   OH256713   6.193   3.596  15.786  0.0758  0.1539 -0.3083
11741TIP3    H156714   6.100   3.619  15.778 -0.5015 -1.6337  0.5245
11741TIP3    H256715   6.206   3.526  15.722 -0.0361 -1.7994  1.6604
11742TIP3   OH256716   6.652   1.805  14.596  0.0432 -0.2614 -0.3302
11742TIP3    H156717   6.733   1.803  14.647 -0.1346  0.0669 -0.0279
11742TIP3    H256718   6.642   1.716  14.563  0.1087 -0.5082  0.3026
11743TIP3   OH256719   2.763   0.881  12.559  0.0016  0.3352 -0.4024
11743TIP3    H156720   2.688   0.862  12.615  0.0443 -0.0142 -0.4598
11743TIP3    H256721   2.801   0.962  12.594 -0.6399  0.7356 -0.6164
11744TIP3   OH256722   0.925   0.574  16.672 -0.0780  0.0858  0.1948
11744TIP3    H156723   0.988   0.502  16.670 -1.8391 -1.5341  0.2490
11744TIP3    H256724   0.979   0.653  16.670  1.9122 -1.2139 -0.3734
11745TIP3   OH256725   3.788   2.911  12.664  0.6648  0.2576  0.5122
11745TIP3    H156726   3.790   3.002  12.694 -0.9851 -0.1309  1.9934
11745TIP3    H256727   3.697   2.896  12.639  0.5782 -1.3694  1.6373
11746TIP3   OH256728   3.115   1.178  12.777 -0.1744 -0.2882 -0.0594
11746TIP3    H156729   3.135   1.097  12.730  0.8439  0.9468 -1.8652
11746TIP3    H256730   3.181   1.240  12.746 -2.2202  1.8455 -0.3472
11747TIP3   OH256731   3.720   3.377  11.178 -0.2696  0.0652 -0.6472
11747TIP3    H156732   3.770   3.458  11.167  0.9703 -0.4327  0.9303
11747TIP3    H256733   3.699   3.350  11.088  2.1732  0.3945 -1.4149
11748TIP3   OH256734   4.616   0.702  12.496  0.0912  0.3447 -0.2868
11748TIP3    H156735   4.642   0.681  12.406  1.3426 -0.0860  0.1562
11748TIP3    H256736   4.608   0.616  12.538  0.4256  0.5754  0.2473
11749TIP3   OH256737   1.879   2.200  13.972  0.7192 -0.2955  0.6107
11749TIP3    H156738   1.856   2.293  13.970  2.0120  0.0428  0.7814
11749TIP3    H256739   1.932   2.190  14.051  0.7819 -1.1406  0.4696
11750TIP3   OH256740   2.424   4.612  12.520  0.1688  0.2762  0.1509
11750TIP3    H156741   2.366   4.574  12.455 -1.3641  0.9540  1.0798
11750TIP3    H256742   2.459   4.691  12.479  2.8660 -1.6530 -1.5448
11751TIP3   OH256743   4.437   3.998   1.222 -0.1344 -0.4108  0.5951
11751TIP3    H156744   4.374   4.062   1.188  0.0044 -0.9086 -0.6653
11751TIP3    H256745   4.517   4.049   1.235 -0.3108 -0.1208  0.5608
11752TIP3   OH256746   1.408   5.662  14.581  0.0743 -0.2286  0.7644
11752TIP3    H156747   1.503   5.667  14.568 -0.2477  2.9299 -1.8295
11752TIP3    H256748   1.383   5.575  14.550  1.7422  0.4873 -3.2518
11753TIP3   OH256749   0.603   1.923  12.320  0.4434  0.5471 -0.0716
11753TIP3    H156750   0.619   2.000  12.375  0.4449 -0.4352  1.3399
11753TIP3    H256751   0.691   1.898  12.290  0.2709  2.4432 -2.5369
11754TIP3   OH256752   0.933   1.748   5.104  0.8317 -0.5158 -0.1762
11754TIP3    H156753   0.841   1.771   5.096  1.4866  2.4474 -0.3329
11754TIP3    H256754   0.949   1.744   5.198  0.1372 -3.2464 -0.1045
11755TIP3   OH256755   3.231   0.550  14.148 -0.9215 -1.1916 -0.0786
11755TIP3    H156756   3.294   0.566  14.219 -1.4462 -0.7007  0.2844
11755TIP3    H256757   3.251   0.618  14.084 -1.1896 -0.9281  0.1148
11756TIP3   OH256758   1.528   2.514   0.378 -0.1000 -0.2166  0.0929
11756TIP3    H156759   1.587   2.443   0.403  0.1180 -0.0872 -0.0440
11756TIP3    H256760   1.516   2.564   0.459  1.9535  1.1791 -0.3810
11757TIP3   OH256761   4.233   3.886  13.609  0.1472  0.2804 -0.2959
11757TIP3    H156762   4.179   3.891  13.530 -1.4478  0.8976  0.7811
11757TIP3    H256763   4.267   3.797  13.610 -1.5800 -0.4096 -0.5592
11758TIP3   OH256764   1.703   0.246   0.308  0.5458 -0.6115 -0.0278
11758TIP3    H156765   1.774   0.296   0.348 -0.2332  0.3695  0.1607
11758TIP3    H256766   1.657   0.205   0.381 -0.3346  0.4558  0.0425
11759TIP3   OH256767   5.299   4.720   3.674  0.0237 -0.1327 -0.2753
11759TIP3    H156768   5.365   4.740   3.740  0.9525 -1.0730 -0.8801
11759TIP3    H256769   5.274   4.630   3.692  0.2739 -0.3904 -1.1735
11760TIP3   OH256770   1.328   3.724  14.287 -0.2964  0.1234 -0.1944
11760TIP3    H156771   1.323   3.649  14.228  0.1863 -0.9325  1.0545
11760TIP3    H256772   1.398   3.702  14.348 -1.0929  0.9499  1.0746
11761TIP3   OH256773   5.886   2.555  15.432 -0.1105  0.1505 -0.3626
11761TIP3    H156774   5.948   2.526  15.499  0.1326  2.0020  0.2633
11761TIP3    H256775   5.918   2.515  15.351  1.4551  0.4201  0.0889
11762TIP3   OH256776   4.158   6.777  12.256  0.0129 -0.0045  0.1991
11762TIP3    H156777   4.197   6.778  12.344  0.6987 -2.3862 -0.0109
11762TIP3    H256778   4.073   6.820  12.267 -0.4467 -1.2809  2.3363
11763TIP3   OH256779   6.482   2.236   5.048 -0.3037  0.0622  0.5759
11763TIP3    H156780   6.497   2.150   5.087  0.0852  0.3049  0.9701
11763TIP3    H256781   6.549   2.244   4.980 -1.0723 -0.4217 -0.2681
11764TIP3   OH256782   0.285   3.043  15.233 -0.5265  0.0073  0.0143
11764TIP3    H156783   0.211   3.018  15.290  0.4370 -2.5179  0.2996
11764TIP3    H256784   0.293   2.970  15.171  1.1142  0.7014 -0.6393
11765TIP3   OH256785   6.612   0.953  13.729  0.5286  0.4036 -0.4012
11765TIP3    H156786   6.661   0.871  13.725 -0.0813 -0.0624  1.0590
11765TIP3    H256787   6.629   0.995  13.645 -0.1597 -1.7962 -1.7324
11766TIP3   OH256788   4.630   0.266  14.276  0.5030 -0.2156 -0.5562
11766TIP3    H156789   4.669   0.218  14.203  1.9943  1.5892 -1.0501
11766TIP3    H256790   4.544   0.293  14.244 -0.6588 -2.9994 -0.0147
11767TIP3   OH256791   4.426   5.383  14.220 -0.5824  0.8228  0.2558
11767TIP3    H156792   4.514   5.367  14.185 -0.7595 -0.2238  0.2816
11767TIP3    H256793   4.372   5.314  14.183 -0.7792 -0.3805  2.6168
11768TIP3   OH256794   1.777   1.291   4.262 -0.0543 -0.1728  0.3654
11768TIP3    H156795   1.741   1.222   4.206 -1.9653  1.1535 -0.1604
11768TIP3    H256796   1.706   1.309   4.325  0.6023  0.9410  0.8147
11769TIP3   OH256797   0.387   4.098  12.949  1.7907  0.9572  0.2505
11769TIP3    H156798   0.320   4.033  12.933  1.9585  0.9247 -0.3579
11769TIP3    H256799   0.342   4.169  12.994  0.8547  1.8364 -1.9068
11770TIP3   OH256800   3.151   6.102  13.519 -0.3470  0.3294 -0.5335
11770TIP3    H156801   3.157   6.106  13.423 -0.5053 -0.7619 -0.6000
11770TIP3    H256802   3.061   6.077  13.536 -0.4575  1.0177 -0.0701
11771TIP3   OH256803   4.999   0.206   0.701  0.3809  0.1319 -0.0941
11771TIP3    H156804   4.942   0.239   0.770 -0.4219 -0.2171 -0.5887
11771TIP3    H256805   4.948   0.139   0.656  0.5583  0.9453 -1.5720
11772TIP3   OH256806   0.694   1.992  12.017  0.2226 -0.2516  0.7650
11772TIP3    H156807   0.687   1.987  11.922 -1.1243  0.3855  0.8063
11772TIP3    H256808   0.647   1.915  12.048 -2.1528  1.1701  0.9416
11773TIP3   OH256809   4.655   1.177  13.528  0.1789 -0.0229 -0.0244
11773TIP3    H156810   4.714   1.252  13.526  0.0680  0.2107  2.2169
11773TIP3    H256811   4.693   1.118  13.593 -1.1157 -0.6734  0.1860
11774TIP3   OH256812   4.758   0.597   0.100 -0.1117 -0.3984 -0.0706
11774TIP3    H156813   4.852   0.584   0.112  0.0980  1.6050  0.8425
11774TIP3    H256814   4.720   0.582   0.186 -0.2417  1.4244  0.2338
11775TIP3   OH256815   4.862   6.700  15.535 -0.2027  0.5238  0.2113
11775TIP3    H156816   4.825   6.761  15.599 -0.1194  0.5982  0.1898
11775TIP3    H256817   4.850   6.744  15.451 -0.2864  0.4389  0.1796
11776TIP3   OH256818   6.087   3.915  12.540 -0.1727  0.4165 -0.2810
11776TIP3    H156819   6.172   3.872  12.549 -0.2992  0.5119  2.0131
11776TIP3    H256820   6.037   3.858  12.481  0.3656 -1.4815  1.0118
11777TIP3   OH256821   3.678   5.506  14.844  0.0124 -0.6216 -0.5024
11777TIP3    H156822   3.613   5.447  14.884 -0.0153 -0.5442 -0.4322
11777TIP3    H256823   3.666   5.494  14.750  0.2270 -0.9659 -0.4845
11778TIP3   OH256824   0.535   2.666  11.353  0.2824  0.0167 -0.3962
11778TIP3    H156825   0.551   2.751  11.395  2.6595 -0.0557 -1.0214
11778TIP3    H256826   0.493   2.688  11.271 -2.3750  0.3023  0.9377
11779TIP3   OH256827   3.762   2.576  12.773  0.4286  0.2144  0.2426
11779TIP3    H156828   3.834   2.639  12.775  0.0488  0.6398  1.0464
11779TIP3    H256829   3.689   2.622  12.813  0.5722 -1.2337  2.3205
11780TIP3   OH256830   3.919   4.583   1.539  0.7655 -0.1257 -0.1131
11780TIP3    H156831   3.995   4.567   1.482  0.1924 -1.3716 -0.5717
11780TIP3    H256832   3.843   4.573   1.481  0.1651 -1.3630  0.8366
11781TIP3   OH256833   3.411   5.674  16.893 -0.4460 -0.0146 -0.1962
11781TIP3    H156834   3.460   5.691  16.973 -0.8326 -2.3509  0.6263
11781TIP3    H256835   3.343   5.612  16.920 -2.1448  1.0367 -1.8579
11782TIP3   OH256836   3.631   4.753  16.374 -0.5975  0.0153  0.0669
11782TIP3    H156837   3.573   4.782  16.444  0.5030 -0.4139  1.1813
11782TIP3    H256838   3.642   4.831  16.319 -0.1637  0.8556  1.2940
11783TIP3   OH256839   3.058   5.605   0.865 -0.1746 -0.0760 -0.2444
11783TIP3    H156840   3.139   5.636   0.824 -1.2600  0.7265 -1.8910
11783TIP3    H256841   2.995   5.676   0.850 -1.3275 -0.9159  0.5099
11784TIP3   OH256842   0.982   4.476   1.068  0.1938 -0.2665  0.4772
11784TIP3    H156843   0.927   4.541   1.111 -2.3552 -1.8319 -0.2102
11784TIP3    H256844   1.026   4.430   1.139 -0.2309  0.3261  1.1339
11785TIP3   OH256845   0.008   5.133   2.358 -0.0719  0.2571  0.5730
11785TIP3    H156846   0.061   5.055   2.340  0.5122  0.4463  1.4597
11785TIP3    H256847   0.066   5.192   2.404 -0.6792  1.0081  0.3945
11786TIP3   OH256848   3.767   1.705   3.261 -0.3388 -0.2555  0.5226
11786TIP3    H156849   3.698   1.641   3.278  0.0060 -1.2993 -1.6442
11786TIP3    H256850   3.721   1.788   3.255 -1.8940 -1.1818 -3.0211
11787TIP3   OH256851   4.244   4.513  13.450 -0.0278 -0.1219 -0.4828
11787TIP3    H156852   4.215   4.536  13.538 -0.4672  0.2145 -0.7097
11787TIP3    H256853   4.330   4.474  13.462 -0.1726 -0.2594  0.1146
11788TIP3   OH256854   5.141   3.432  14.259  0.0238  0.0292  0.1476
11788TIP3    H156855   5.222   3.445  14.308 -0.8898  2.1668  1.2028
11788TIP3    H256856   5.164   3.457  14.169  0.5148  0.7620  0.4685
11789TIP3   OH256857   4.911   2.466  14.206  0.8554 -0.1722  0.4927
11789TIP3    H156858   4.824   2.435  14.181  1.1574  0.0651 -0.9045
11789TIP3    H256859   4.927   2.425  14.291 -0.8069  0.1504  1.0061
11790TIP3   OH256860   5.775   4.290   2.736  0.4841  0.0481 -0.6046
11790TIP3    H156861   5.752   4.325   2.650 -0.0784 -0.4756 -0.6679
11790TIP3    H256862   5.810   4.203   2.719  2.3315  0.7047 -0.4874
11791TIP3   OH256863   2.440   1.241  11.450 -0.3268 -0.1549  0.2994
11791TIP3    H156864   2.493   1.269  11.525 -1.0170  1.4105  0.2216
11791TIP3    H256865   2.377   1.179  11.487  2.1707 -2.9990  0.2204
11792TIP3   OH256866   1.331   4.119  15.331  0.3459  0.2264  0.6380
11792TIP3    H156867   1.339   4.189  15.395 -1.1268  0.5779  0.4561
11792TIP3    H256868   1.256   4.067  15.360  0.3007 -0.2135 -0.2222
11793TIP3   OH256869   0.310   4.318   5.761 -0.5952 -0.1086  0.4193
11793TIP3    H156870   0.286   4.403   5.797 -1.6274 -0.7984  1.3983
11793TIP3    H256871   0.406   4.319   5.758 -0.5741  0.7551  1.2034
11794TIP3   OH256872   4.410   2.837   1.972  0.8048  0.1428 -0.4479
11794TIP3    H156873   4.417   2.785   2.052 -2.0978  1.4621  0.8025
11794TIP3    H256874   4.425   2.927   2.000 -0.6503  0.6706 -1.2565
11795TIP3   OH256875   4.104   0.703   2.274  1.0258 -0.0494  0.0403
11795TIP3    H156876   4.193   0.687   2.242  1.4392  0.8621  0.7062
11795TIP3    H256877   4.115   0.727   2.366 -0.0465 -1.5050  0.6001
11796TIP3   OH256878   2.738   1.009   1.590 -0.6396 -0.4965  0.1970
11796TIP3    H156879   2.741   0.919   1.557 -2.3388 -0.5847  0.2230
11796TIP3    H256880   2.699   1.002   1.677  0.0150  0.1836  0.5599
11797TIP3   OH256881   4.584   5.129   1.313 -0.2215  0.1790 -0.1243
11797TIP3    H156882   4.656   5.075   1.345  2.0390  3.6878  1.3281
11797TIP3    H256883   4.513   5.114   1.375  1.0323  0.2566  1.3930
11798TIP3   OH256884   0.876   3.876  11.959 -0.1296  0.4522 -0.1002
11798TIP3    H156885   0.918   3.890  11.874 -1.2798 -1.1622 -1.0121
11798TIP3    H256886   0.938   3.822  12.007 -0.3994 -0.5733 -0.8381
11799TIP3   OH256887   3.495   0.497   1.900 -0.6421 -0.8858  0.3745
11799TIP3    H156888   3.506   0.592   1.897 -2.1622 -0.5986  2.0486
11799TIP3    H256889   3.584   0.463   1.909 -0.1744  0.4964  1.3311
11800TIP3   OH256890   4.306   3.554  12.378  0.2564 -0.2072 -0.2732
11800TIP3    H156891   4.394   3.518  12.363 -0.0604 -0.8606 -0.6168
11800TIP3    H256892   4.298   3.624  12.313  1.3183  1.3277  1.1673
11801TIP3   OH256893   4.356   1.177  15.278 -0.0014  0.6028  0.2791
11801TIP3    H156894   4.337   1.213  15.365 -0.6124 -1.5190  1.1066
11801TIP3    H256895   4.273   1.138  15.250  0.9831 -1.6657  0.2775
11802TIP3   OH256896   6.481   3.581   3.960 -0.0530  0.1047 -0.2891
11802TIP3    H156897   6.494   3.627   4.042  0.0590  0.8173 -0.6956
11802TIP3    H256898   6.564   3.591   3.913  0.5848 -1.9553  0.2868
11803TIP3   OH256899   3.826   6.386  15.007  0.2053 -0.5435  0.3699
11803TIP3    H156900   3.905   6.332  15.011 -0.8457 -2.1300  0.9110
11803TIP3    H256901   3.759   6.327  14.972 -0.9108  0.5458  0.6022
11804TIP3   OH256902   3.028   2.792  13.428 -0.6192  0.0279 -0.0216
11804TIP3    H156903   3.122   2.809  13.430 -0.5200 -0.4783  1.7614
11804TIP3    H256904   3.020   2.699  13.449 -1.5187  0.1734  0.3250
11805TIP3   OH256905   1.621   3.008   4.749  0.2037 -0.4892 -0.6961
11805TIP3    H156906   1.574   2.987   4.829 -0.1208 -1.1555 -1.0581
11805TIP3    H256907   1.680   3.080   4.774 -1.2595  0.6323 -0.3286
11806TIP3   OH256908   1.138   4.680  12.049  0.4787  0.1656  0.0372
11806TIP3    H156909   1.147   4.774  12.029  1.6733  0.1500  0.4440
11806TIP3    H256910   1.122   4.639  11.964 -1.7501  0.8966  0.0369
11807TIP3   OH256911   0.406   3.355   1.067  0.3518 -0.0058 -0.6297
11807TIP3    H156912   0.417   3.441   1.107  0.6116  0.9553 -2.6781
11807TIP3    H256913   0.494   3.317   1.068 -0.0003 -0.9484  1.6237
11808TIP3   OH256914   2.456   2.422  16.221  0.5517 -0.0328  0.2697
11808TIP3    H156915   2.385   2.485  16.230  0.6290  0.0615  0.2164
11808TIP3    H256916   2.531   2.474  16.193  0.6493 -0.1289  0.3523
11809TIP3   OH256917   5.152   0.399   4.224 -0.1453 -0.0583  0.3763
11809TIP3    H156918   5.085   0.331   4.222 -2.0444  1.7195  0.5287
11809TIP3    H256919   5.174   0.414   4.132  0.2217 -0.7727  0.3371
11810TIP3   OH256920   4.774   1.538   3.412  0.0239 -0.0795 -0.0211
11810TIP3    H156921   4.825   1.478   3.467  0.3729  1.7410  1.7659
11810TIP3    H256922   4.814   1.531   3.326  2.4460  0.2169  0.9912
11811TIP3   OH256923   2.065   4.463   4.024  0.0273  0.6019 -0.2213
11811TIP3    H156924   1.988   4.483   3.972  0.1039  1.7987  0.0940
11811TIP3    H256925   2.041   4.487   4.113 -0.6848 -2.9444  0.6786
11812TIP3   OH256926   2.114   5.337   5.502  0.3490 -0.7172 -0.2048
11812TIP3    H156927   2.041   5.328   5.442  0.2396 -0.0173 -0.1834
11812TIP3    H256928   2.106   5.262   5.561 -1.5867  0.4284  1.0997
11813TIP3   OH256929   3.797   3.874   4.834 -0.1902 -0.0237 -0.0133
11813TIP3    H156930   3.831   3.885   4.923 -0.9710 -4.0760  1.0386
11813TIP3    H256931   3.726   3.937   4.827  0.7268  1.2755  1.7417
11814TIP3   OH256932   4.360   3.922   0.128 -0.1094  0.0727  0.3079
11814TIP3    H156933   4.384   4.005   0.087  1.2188 -1.2072 -1.6959
11814TIP3    H256934   4.442   3.872   0.131 -0.7596 -0.9952  1.9469
11815TIP3   OH256935   0.180   1.267   0.071  0.2077  0.0820  0.5587
11815TIP3    H156936   0.238   1.315   0.130  1.1720 -0.2935 -0.0593
11815TIP3    H256937   0.165   1.183   0.115 -1.6478  0.9660  1.7393
11816TIP3   OH256938   4.496   1.240   1.737  0.0513  1.1145 -0.4667
11816TIP3    H156939   4.432   1.169   1.741  1.1491  0.1355  0.7076
11816TIP3    H256940   4.475   1.296   1.811  1.7384 -0.3476  1.2354
11817TIP3   OH256941   6.003   2.212  12.393 -0.1224  0.1266  0.1824
11817TIP3    H156942   5.924   2.229  12.342  0.2010  0.1191 -0.3292
11817TIP3    H256943   6.075   2.217  12.330  0.3497  0.7256  0.7444
11818TIP3   OH256944   5.875   1.088  14.139  0.4278  0.1105  0.1600
11818TIP3    H156945   5.933   1.019  14.106  0.1237 -0.5689  1.0162
11818TIP3    H256946   5.849   1.058  14.226  0.7518  1.5926  0.7962
11819TIP3   OH256947   1.799   3.272  13.134 -0.2312  0.6810  1.1125
11819TIP3    H156948   1.790   3.216  13.058 -1.9920  0.5191  1.4143
11819TIP3    H256949   1.777   3.360  13.103 -0.2050  0.7414  1.2628
11820TIP3   OH256950   6.427   5.081   3.220 -0.6867 -0.0773 -0.4690
11820TIP3    H156951   6.455   5.161   3.264 -1.3544  0.0811 -0.3270
11820TIP3    H256952   6.396   5.024   3.290 -0.8870 -0.1846 -0.6437
11821TIP3   OH256953   0.496   1.349   0.647 -0.4153 -0.2109 -0.5629
11821TIP3    H156954   0.466   1.355   0.557  0.0136 -1.4690 -0.8110
11821TIP3    H256955   0.581   1.306   0.642 -0.0334  0.3932  0.3830
11822TIP3   OH256956   6.287   0.895  12.744  0.1616 -0.1941  0.1432
11822TIP3    H156957   6.307   0.984  12.773  0.6841  0.8312 -3.0432
11822TIP3    H256958   6.358   0.842  12.780  1.3100  1.1491 -0.0661
11823TIP3   OH256959   0.615   5.102   2.630  0.0396  0.3503  0.1907
11823TIP3    H156960   0.521   5.082   2.634  0.3417 -3.0812 -3.3883
11823TIP3    H256961   0.620   5.178   2.571 -0.4840  0.1680 -0.0999
11824TIP3   OH256962   0.109   4.101  15.594  0.1365 -0.2985 -0.0666
11824TIP3    H156963   0.058   4.020  15.585 -0.2344 -0.3292  1.7616
11824TIP3    H256964   0.103   4.143  15.509 -1.7896 -0.9987 -0.3434
11825TIP3   OH256965   4.404   4.793  10.945  0.2708 -0.3701  0.4501
11825TIP3    H156966   4.381   4.792  10.852  0.4970 -0.2771  0.3945
11825TIP3    H256967   4.368   4.711  10.979 -2.1382  0.7605  0.8532
11826TIP3   OH256968   6.118   5.733   5.488 -0.3522 -0.2834  0.2813
11826TIP3    H156969   6.055   5.789   5.533 -2.4532 -2.8805  0.8168
11826TIP3    H256970   6.169   5.693   5.558 -0.3933 -0.7510  0.0454
11827TIP3   OH256971   5.998   5.823   0.267  0.2969 -0.6728 -0.1494
11827TIP3    H156972   6.073   5.877   0.245 -0.1664 -0.5272 -1.4717
11827TIP3    H256973   5.922   5.876   0.241 -0.2341 -1.1112  0.4762
11828TIP3   OH256974   1.999   5.009   0.930  0.3091  0.2846  0.2265
11828TIP3    H156975   2.038   4.969   0.852  0.0918  0.6129 -0.0511
11828TIP3    H256976   1.932   5.068   0.896 -0.1878 -0.0094  0.6890
11829TIP3   OH256977   3.195   4.813  14.404  0.1145 -0.0715 -0.0545
11829TIP3    H156978   3.214   4.720  14.421 -2.0319 -0.4816  0.3916
11829TIP3    H256979   3.139   4.812  14.326 -0.7099  0.7571  0.5095
11830TIP3   OH256980   6.240   3.132   1.458  0.3937 -0.3360 -0.4495
11830TIP3    H156981   6.268   3.219   1.487 -0.3326 -0.1973 -0.1475
11830TIP3    H256982   6.312   3.101   1.403  1.3250 -0.1372  0.5918
11831TIP3   OH256983   4.697   1.841   4.955  0.1006  0.1420 -0.6705
11831TIP3    H156984   4.789   1.818   4.948  0.4729  1.1516  0.4979
11831TIP3    H256985   4.652   1.781   4.896  1.4792 -0.4917 -1.1072
11832TIP3   OH256986   0.904   1.998   5.347 -0.1081  0.0604  0.0909
11832TIP3    H156987   0.993   1.973   5.322  0.0664  1.1621 -0.4481
11832TIP3    H256988   0.848   1.929   5.309  0.4941 -0.5879  0.3551
11833TIP3   OH256989   4.228   6.278  10.205  0.1184 -0.5680  0.6435
11833TIP3    H156990   4.215   6.258  10.298  0.3016 -1.2137  0.5349
11833TIP3    H256991   4.140   6.294  10.171 -0.0670 -1.4430  0.6853
11834TIP3   OH256992   6.058   4.097   2.032 -0.4159 -0.4868  0.3714
11834TIP3    H156993   6.079   4.088   2.125  2.7025  1.6799  0.0585
11834TIP3    H256994   6.143   4.087   1.988 -1.5700 -0.1089 -2.1132
11835TIP3   OH256995   0.971   2.848   3.383 -0.7183 -0.0326  0.0256
11835TIP3    H156996   1.029   2.923   3.397  1.9389 -2.2230  1.8958
11835TIP3    H256997   0.943   2.824   3.472 -0.2774 -2.0992 -0.3527
11836TIP3   OH256998   2.301   6.217  13.467  0.3914  0.5756  0.1725
11836TIP3    H156999   2.223   6.169  13.440  0.2000  1.0616 -0.1727
11836TIP3    H257000   2.278   6.254  13.552  0.3538  0.4648  0.2096
11837TIP3   OH257001   4.913   4.715  16.590 -0.0799  0.1043 -0.2334
11837TIP3    H157002   4.868   4.736  16.508  0.5543 -0.2136 -0.6687
11837TIP3    H257003   4.920   4.799  16.636  0.4209  0.4606 -0.9398
11838TIP3   OH257004   4.237   1.374   3.888 -0.2473 -0.1392 -0.4258
11838TIP3    H157005   4.305   1.432   3.856 -1.9292  1.0731 -1.9718
11838TIP3    H257006   4.281   1.318   3.953  1.7208  1.9156  0.1082
11839TIP3   OH257007   5.960   1.324  13.700  0.1155  0.1469 -0.3203
11839TIP3    H157008   5.930   1.291  13.784  0.4472 -0.9235 -0.5995
11839TIP3    H257009   6.049   1.291  13.692 -0.1278 -0.3020 -1.3602
11840TIP3   OH257010   2.567   0.279  13.543 -0.4886 -0.0023  0.4110
11840TIP3    H157011   2.591   0.287  13.635 -2.2587 -0.4294  0.9549
11840TIP3    H257012   2.646   0.304  13.495  0.8928 -1.0100  2.0322
11841TIP3   OH257013   0.201   2.580   5.438  0.4879  0.7223 -0.0628
11841TIP3    H157014   0.257   2.643   5.393  0.2911  0.3585 -0.8545
11841TIP3    H257015   0.188   2.510   5.373 -0.1704  0.3907  0.4153
11842TIP3   OH257016   3.987   3.788  13.090 -0.4299  0.2994 -0.3019
11842TIP3    H157017   3.902   3.811  13.128 -0.8788  0.6875 -1.5088
11842TIP3    H257018   3.973   3.700  13.054  0.1643 -0.3114  0.8960
11843TIP3   OH257019   5.066   2.729   6.545  0.1720  0.1998 -0.7074
11843TIP3    H157020   5.106   2.643   6.558 -0.5857 -0.4255 -2.1576
11843TIP3    H257021   4.974   2.709   6.526  0.3480  1.1608 -2.8143
11844TIP3   OH257022   2.920   5.970  16.737 -0.2410  0.8354 -0.1096
11844TIP3    H157023   2.997   5.963  16.793  1.5626  2.3360 -2.2638
11844TIP3    H257024   2.954   5.985  16.649 -2.9895  2.8888 -0.9642
11845TIP3   OH257025   4.696   5.543   0.961 -0.2813 -0.4915 -0.3320
11845TIP3    H157026   4.745   5.618   0.926 -1.3083 -0.0634 -0.9006
11845TIP3    H257027   4.621   5.582   1.006 -1.1831 -1.1736 -1.1895
11846TIP3   OH257028   4.665   2.448  12.791 -0.2299  0.6006  0.1191
11846TIP3    H157029   4.652   2.356  12.817 -0.0874  0.6858  0.4958
11846TIP3    H257030   4.584   2.492  12.815 -0.2486  0.6013  0.0555
11847TIP3   OH257031   0.621   5.336  14.873 -0.4456  0.4682  0.0675
11847TIP3    H157032   0.617   5.242  14.856 -1.6893  0.5480 -0.1748
11847TIP3    H257033   0.655   5.373  14.792 -1.4276  0.3527 -0.4204
11848TIP3   OH257034   3.910   3.510  12.333  0.8328  0.5199  0.3036
11848TIP3    H157035   3.865   3.446  12.278  0.7361 -0.3216  1.3346
11848TIP3    H257036   3.839   3.554  12.381  0.9513  0.8911  0.1434
11849TIP3   OH257037   4.485   4.365  16.287  0.2678 -0.2129 -0.2320
11849TIP3    H157038   4.518   4.351  16.376  1.7349  0.9698 -0.5583
11849TIP3    H257039   4.496   4.281  16.244  0.3709 -0.5577  0.4457
11850TIP3   OH257040   6.763   6.662   5.857 -0.0055  0.3183 -0.6787
11850TIP3    H157041   6.858   6.664   5.842  0.5124  1.9194  2.0671
11850TIP3    H257042   6.735   6.753   5.848 -1.1415 -0.0165 -0.6639
11851TIP3   OH257043   0.292   6.767  13.366 -0.3705 -0.5602 -0.7643
11851TIP3    H157044   0.347   6.753  13.289 -0.4286  0.7543 -1.0778
11851TIP3    H257045   0.347   6.745  13.440 -0.4655 -2.3151 -1.1704
11852TIP3   OH257046   3.068   3.138   4.025 -0.3344  0.0074  0.3933
11852TIP3    H157047   3.145   3.143   4.082  0.1945  0.2799 -0.3308
11852TIP3    H257048   3.016   3.215   4.047  0.8764  1.2665 -0.8940
11853TIP3   OH257049   2.923   6.343  13.503 -0.1791 -0.0747  0.2864
11853TIP3    H157050   2.890   6.258  13.475 -0.1922  0.2092 -0.5776
11853TIP3    H257051   2.897   6.403  13.433  1.0372  0.3894  0.2182
11854TIP3   OH257052   6.313   5.621   1.635 -0.6042  0.6837 -0.1870
11854TIP3    H157053   6.342   5.712   1.636  0.5324  0.3601 -1.5690
11854TIP3    H257054   6.340   5.587   1.720  1.5884  0.8710 -0.7563
11855TIP3   OH257055   1.349   1.296  15.859  0.1010  0.0855 -0.3811
11855TIP3    H157056   1.367   1.247  15.939 -3.7152 -1.3408 -0.1974
11855TIP3    H257057   1.348   1.229  15.790 -4.9463 -0.4680 -0.1595
11856TIP3   OH257058   4.850   6.630   6.319  0.9963 -0.0026  0.5137
11856TIP3    H157059   4.933   6.611   6.364  1.3220 -1.4676 -0.6081
11856TIP3    H257060   4.810   6.544   6.306 -0.8244  0.6882  1.1994
11857TIP3   OH257061   0.315   2.165   0.170 -0.2353 -0.7772 -0.0842
11857TIP3    H157062   0.356   2.132   0.250 -0.7321 -0.8671  0.1384
11857TIP3    H257063   0.375   2.141   0.100 -0.0662 -1.1849  0.2007
11858TIP3   OH257064   3.450   4.390  13.549  0.1736  0.6025 -0.1463
11858TIP3    H157065   3.356   4.373  13.551  0.3905 -0.7471 -0.3538
11858TIP3    H257066   3.487   4.317  13.499  1.6172 -0.3961  2.1934
11859TIP3   OH257067   0.840   4.632   0.648 -0.4073 -0.1276 -0.0957
11859TIP3    H157068   0.780   4.598   0.715  0.3519 -1.1621  0.0912
11859TIP3    H257069   0.804   4.599   0.566 -1.6950  1.6654 -0.3006
11860TIP3   OH257070   0.958   0.455   2.345 -0.0425 -0.3259 -0.0919
11860TIP3    H157071   1.011   0.381   2.374  0.3956 -0.3641 -0.9591
11860TIP3    H257072   1.017   0.531   2.350 -0.2272 -0.1851 -0.0350
11861TIP3   OH257073   6.231   1.446  15.957  0.0452 -0.0953  0.6669
11861TIP3    H157074   6.221   1.418  15.866  2.3326 -0.0237  0.3115
11861TIP3    H257075   6.173   1.522  15.965 -1.7963 -1.3613 -0.0718
11862TIP3   OH257076   4.432   0.646  11.981  0.0846 -0.6212 -0.2565
11862TIP3    H157077   4.467   0.668  12.067 -1.5369 -3.5331  1.3098
11862TIP3    H257078   4.386   0.724  11.952  1.9381  0.9273  0.7771
11863TIP3   OH257079   3.706   0.298  12.252 -0.2358 -0.1738  0.3301
11863TIP3    H157080   3.727   0.329  12.340 -0.9888  1.1662  0.0611
11863TIP3    H257081   3.759   0.352  12.194  1.7580 -2.3425 -0.0256
11864TIP3   OH257082   6.210   0.071  11.537  0.5919 -0.5179  0.7722
11864TIP3    H157083   6.284   0.109  11.489  0.1066  0.1320  0.5334
11864TIP3    H257084   6.216   0.109  11.624  1.1484 -1.2760  1.0781
11865TIP3   OH257085   6.676   3.046  15.919  0.7337  0.4266 -0.0993
11865TIP3    H157086   6.615   3.068  15.849 -1.3253  0.1730  1.5259
11865TIP3    H257087   6.713   2.962  15.893 -1.5453 -0.6815  0.0128
11866TIP3   OH257088   4.824   3.913  14.807 -0.1592 -0.0703  0.3977
11866TIP3    H157089   4.883   3.928  14.733  0.3421 -2.5640  0.1928
11866TIP3    H257090   4.817   3.997  14.851 -0.8434  1.6500 -2.7396
11867TIP3   OH257091   0.159   4.151   5.918  0.8657  0.4469 -0.0470
11867TIP3    H157092   0.207   4.223   5.877  0.7703  1.2571  1.2056
11867TIP3    H257093   0.185   4.073   5.869  2.4373  1.0621 -0.2246
11868TIP3   OH257094   4.671   3.279  16.337 -0.8309 -0.2648 -0.9988
11868TIP3    H157095   4.708   3.367  16.348  1.0104 -0.6673 -3.2204
11868TIP3    H257096   4.672   3.265  16.243 -0.8704 -2.7660 -0.6801
11869TIP3   OH257097   4.541   2.128   0.659 -0.3128 -0.4428  0.1479
11869TIP3    H157098   4.612   2.173   0.706  1.1278 -1.3881 -1.0427
11869TIP3    H257099   4.462   2.178   0.681  0.3992 -0.3690  2.9185
11870TIP3   OH257100   2.944   5.001  15.719  0.0029 -0.8281 -0.3600
11870TIP3    H157101   3.027   4.982  15.675  0.3765 -1.2899  0.5129
11870TIP3    H257102   2.938   5.096  15.720  0.8753 -0.7662  0.1843
11871TIP3   OH257103   5.967   4.621   6.353  0.4948  0.0778 -0.3849
11871TIP3    H157104   5.950   4.648   6.262 -2.1552  0.2349  0.0722
11871TIP3    H257105   5.931   4.692   6.406  0.5261 -0.7690  0.8035
11872TIP3   OH257106   6.074   2.356   3.686  0.0506 -0.5415 -0.3464
11872TIP3    H157107   6.051   2.423   3.621  1.4449 -0.4528 -0.7869
11872TIP3    H257108   6.071   2.274   3.637 -3.4895 -1.1257  0.6218
11873TIP3   OH257109   4.322   0.116  11.783  0.1130  0.3052 -0.1830
11873TIP3    H157110   4.237   0.146  11.816 -0.0655 -0.6658  0.2711
11873TIP3    H257111   4.385   0.143  11.851 -0.1604 -1.0563  0.6513
11874TIP3   OH257112   3.283   4.701   2.157  0.2318  0.4788  0.1202
11874TIP3    H157113   3.191   4.726   2.149 -0.1606 -0.2865  1.8211
11874TIP3    H257114   3.290   4.663   2.245  2.0021 -0.2000 -0.2758
11875TIP3   OH257115   2.355   0.382  15.953 -0.4600  0.0124  0.4677
11875TIP3    H157116   2.375   0.345  16.039 -2.0455 -1.5514  0.2198
11875TIP3    H257117   2.425   0.348  15.896  0.4595  0.8608  1.0530
11876TIP3   OH257118   1.255   4.056  15.888  0.1750 -0.0017 -0.4870
11876TIP3    H157119   1.213   4.053  15.802  0.5783  0.9086 -0.7302
11876TIP3    H257120   1.333   4.001  15.879 -0.7352 -1.4111 -0.1371
11877TIP3   OH257121   3.195   5.498   4.288  0.6377  0.2835  0.3980
11877TIP3    H157122   3.141   5.423   4.266  0.1799  0.2697  1.4676
11877TIP3    H257123   3.276   5.486   4.239 -0.0022 -0.1233 -0.5949
11878TIP3   OH257124   4.006   5.847   2.693 -0.2490 -0.0838  0.0282
11878TIP3    H157125   4.059   5.867   2.770 -0.1935  2.1679 -0.5125
11878TIP3    H257126   3.923   5.892   2.708 -1.2155 -1.7104 -0.1451
11879TIP3   OH257127   4.534   0.661  14.451 -0.0777  0.0021 -0.0572
11879TIP3    H157128   4.493   0.608  14.520  0.0077  0.3176  0.2404
11879TIP3    H257129   4.562   0.741  14.496  0.8872 -0.2161 -0.2421
11880TIP3   OH257130   5.972   4.231  11.704  0.3603  0.4028  1.3447
11880TIP3    H157131   5.882   4.198  11.705 -0.2377  1.9761  1.5881
11880TIP3    H257132   6.000   4.229  11.795  0.4379  0.2716  1.3180
11881TIP3   OH257133   3.384   1.669   5.905 -0.3289 -0.2577 -0.0390
11881TIP3    H157134   3.410   1.678   5.814  0.4464 -1.0307  0.0983
11881TIP3    H257135   3.403   1.578   5.927  0.8048  0.2637  1.2783
11882TIP3   OH257136   1.039   5.572  16.865 -0.5645  0.4272 -0.0053
11882TIP3    H157137   1.122   5.618  16.875 -0.8685  0.5925  2.1572
11882TIP3    H257138   1.061   5.480  16.876 -0.1729  0.0535 -3.0045
11883TIP3   OH257139   0.161   2.108   4.569  0.2075 -0.0543 -0.3940
11883TIP3    H157140   0.247   2.149   4.561  1.2377 -2.0436 -0.1924
11883TIP3    H257141   0.127   2.106   4.479  0.0070  1.4217 -0.3707
11884TIP3   OH257142   0.378   2.862  14.698  0.1293 -0.3328 -0.3398
11884TIP3    H157143   0.426   2.935  14.738  1.0226  0.3111 -2.4460
11884TIP3    H257144   0.286   2.888  14.706  0.2341 -0.3777  1.4882
11885TIP3   OH257145   2.124   5.230  15.012  0.6676  0.4427 -0.0601
11885TIP3    H157146   2.085   5.154  15.057  0.3470  0.5218 -0.2009
11885TIP3    H257147   2.201   5.195  14.969  1.2076  0.4402  0.8778
11886TIP3   OH257148   0.259   2.241   5.054 -0.0813  0.0499 -0.1504
11886TIP3    H157149   0.347   2.266   5.026  0.0823  0.4748  0.7013
11886TIP3    H257150   0.207   2.240   4.974  0.7905 -0.6453 -0.7326
11887TIP3   OH257151   3.595   3.556  11.327  0.0364 -0.3665  0.4572
11887TIP3    H157152   3.551   3.581  11.245  1.7014  1.0012 -0.0792
11887TIP3    H257153   3.628   3.468  11.310 -0.7392 -0.6142  0.1520
11888TIP3   OH257154   4.112   6.119   5.216 -0.4595  0.4520 -0.3726
11888TIP3    H157155   4.122   6.085   5.127 -1.6430  1.0336 -0.7440
11888TIP3    H257156   4.190   6.087   5.262  0.3136  0.3545 -1.6766
11889TIP3   OH257157   6.708   2.546  12.351 -0.0581 -0.1304 -0.1399
11889TIP3    H157158   6.767   2.531  12.425 -1.6845 -2.1217  0.8913
11889TIP3    H257159   6.648   2.613  12.382 -0.1759 -0.3057  0.0197
11890TIP3   OH257160   3.070   5.892  14.142 -0.4288  0.7370  0.1218
11890TIP3    H157161   3.017   5.832  14.089  1.7760 -0.9012 -0.3675
11890TIP3    H257162   3.070   5.974  14.092 -1.2113  0.2911 -0.6430
11891TIP3   OH257163   2.163   4.940   3.305  0.4169 -0.3318 -0.5794
11891TIP3    H157164   2.108   5.018   3.307 -1.6472 -1.6750 -1.7486
11891TIP3    H257165   2.108   4.870   3.341 -0.2678 -2.5731 -5.2230
11892TIP3   OH257166   3.862   6.433  13.090 -0.0624 -0.0745  0.1530
11892TIP3    H157167   3.929   6.391  13.037 -0.4206 -1.0979  0.4918
11892TIP3    H257168   3.789   6.371  13.091 -0.1925  0.0675  1.5441
11893TIP3   OH257169   5.418   6.132   5.156  0.3685  0.1960 -0.1305
11893TIP3    H157170   5.495   6.157   5.209 -0.1691 -1.3046  1.4648
11893TIP3    H257171   5.441   6.156   5.067  2.4974  0.2497  0.3824
11894TIP3   OH257172   1.741   0.815   4.429  0.2596 -0.2346 -0.2354
11894TIP3    H157173   1.670   0.880   4.433 -0.3520 -0.8434 -0.8879
11894TIP3    H257174   1.821   0.867   4.425 -0.1509  0.4679  0.3898
11895TIP3   OH257175   2.820   1.998  14.659 -0.1097 -0.7861 -0.2064
11895TIP3    H157176   2.823   2.020  14.752  1.0936 -1.5251 -0.0521
11895TIP3    H257177   2.787   2.077  14.617  2.3703  0.7456  0.5051
11896TIP3   OH257178   5.523   0.693  16.293 -0.4700  0.3658 -0.2883
11896TIP3    H157179   5.491   0.652  16.213 -1.3722  0.3251  0.0769
11896TIP3    H257180   5.538   0.620  16.353 -1.2789  0.4960  0.0853
11897TIP3   OH257181   0.115   1.148   1.475 -0.0202  0.4243  0.1309
11897TIP3    H157182   0.056   1.216   1.443 -0.5331 -0.0365  0.0825
11897TIP3    H257183   0.189   1.151   1.415 -1.1807 -0.7414 -1.4414
11898TIP3   OH257184   1.701   3.968   4.478  0.4817  0.1166  0.4657
11898TIP3    H157185   1.690   3.888   4.529  0.9061 -0.0687  0.2756
11898TIP3    H257186   1.644   3.957   4.402 -0.3966  0.5317  1.0490
11899TIP3   OH257187   0.023   0.688   2.503  0.2558 -0.3514  0.8131
11899TIP3    H157188  -0.046   0.645   2.554 -0.5478  0.3249  0.3294
11899TIP3    H257189  -0.016   0.772   2.476  0.4057 -0.9413 -1.4304
11900TIP3   OH257190   4.007   2.146   2.646 -0.1246  0.5814 -0.8898
11900TIP3    H157191   4.014   2.221   2.587 -0.6192  2.0927  0.8645
11900TIP3    H257192   4.054   2.173   2.725 -1.1056 -0.5906  0.1442
11901TIP3   OH257193   4.544   5.285  13.025 -0.3724 -0.3464  0.1079
11901TIP3    H157194   4.524   5.206  13.075 -0.1016 -1.1057 -0.9437
11901TIP3    H257195   4.597   5.339  13.084 -1.7729 -0.2822  1.3498
11902TIP3   OH257196   2.802   3.395   1.788  0.2384 -0.1578  0.2110
11902TIP3    H157197   2.722   3.410   1.838 -1.0235 -1.3667 -1.3570
11902TIP3    H257198   2.778   3.330   1.722  2.0460  0.7617 -1.4652
11903TIP3   OH257199   4.636   2.593   0.873  0.0432  0.3570 -0.1641
11903TIP3    H157200   4.596   2.609   0.958 -1.2363 -1.2712 -0.4087
11903TIP3    H257201   4.574   2.628   0.810 -0.8356 -1.7092 -0.5259
11904TIP3   OH257202   4.102   2.622   4.077  0.0008 -0.4857 -0.3144
11904TIP3    H157203   4.147   2.539   4.097 -0.5628 -0.6703  0.2113
11904TIP3    H257204   4.152   2.688   4.127 -0.3714 -0.7062  0.3625
11905TIP3   OH257205   6.343   1.738   1.695 -0.0717 -0.2748  0.1122
11905TIP3    H157206   6.425   1.739   1.645 -0.3623 -1.0571 -0.4002
11905TIP3    H257207   6.353   1.808   1.760  0.3578  0.6966 -0.9764
11906TIP3   OH257208   2.841   4.196   5.313  0.4213 -0.2614  0.1974
11906TIP3    H157209   2.800   4.133   5.372  0.8833  0.0410  0.8747
11906TIP3    H257210   2.922   4.153   5.284  1.4456  0.5062  1.7588
11907TIP3   OH257211   3.805   6.734   1.419 -0.0213  0.6089  0.4204
11907TIP3    H157212   3.713   6.724   1.444  0.3766 -0.8871  1.4243
11907TIP3    H257213   3.804   6.740   1.324 -1.3113  2.8770  0.5164
11908TIP3   OH257214   2.988   6.249  14.123  0.2335 -0.0456 -0.5856
11908TIP3    H157215   3.057   6.259  14.189 -0.4001 -1.0430  0.2748
11908TIP3    H257216   3.027   6.191  14.057  0.7476  0.6596 -0.9066
11909TIP3   OH257217   4.039   6.328   1.487  0.3310  0.1958  0.2866
11909TIP3    H157218   4.088   6.246   1.496  1.0173  0.5198 -0.3708
11909TIP3    H257219   4.030   6.360   1.576 -0.1815 -0.7215  0.5810
11910TIP3   OH257220   4.040   4.581  10.446 -0.0961 -0.0640 -0.2315
11910TIP3    H157221   3.979   4.606  10.376 -0.5974 -0.8439 -0.0825
11910TIP3    H257222   4.101   4.654  10.451  0.5125 -0.3700 -2.1208
11911TIP3   OH257223   3.286   4.132   0.871  0.2721 -0.6049 -0.1524
11911TIP3    H157224   3.292   4.038   0.888 -5.0363 -1.2262  0.1772
11911TIP3    H257225   3.283   4.171   0.958  0.5604 -0.3867 -0.2422
11912TIP3   OH257226   4.199   4.663  16.988  0.1475  0.4671  0.0361
11912TIP3    H157227   4.141   4.697  17.055  1.2207 -0.9515  1.7938
11912TIP3    H257228   4.155   4.682  16.905 -2.4046  0.1352  1.2344
11913TIP3   OH257229   5.456   5.696  13.362 -0.2729 -0.4492  0.3732
11913TIP3    H157230   5.421   5.670  13.277  0.8700 -1.9734  0.3245
11913TIP3    H257231   5.384   5.680  13.423 -1.0733  0.5787 -0.2789
11914TIP3   OH257232   2.838   4.713  16.719  0.2307  0.5876 -0.2746
11914TIP3    H157233   2.891   4.792  16.711  2.7895 -0.9017  0.7643
11914TIP3    H257234   2.892   4.653  16.770 -2.1048 -1.4323  0.0098
11915TIP3   OH257235   6.763   3.791   1.254  0.3906 -0.3045  0.5234
11915TIP3    H157236   6.679   3.808   1.298  0.0311 -0.0139 -0.2402
11915TIP3    H257237   6.741   3.727   1.186  0.2971  1.3358 -1.0904
11916TIP3   OH257238   2.652   4.215   2.399 -0.1329 -0.5250 -0.2162
11916TIP3    H157239   2.594   4.235   2.324 -3.0696 -0.3802  1.9057
11916TIP3    H257240   2.617   4.134   2.435 -0.8612  0.9415  2.7250
11917TIP3   OH257241   4.669   5.288  14.136  0.5479 -0.1604 -0.2157
11917TIP3    H157242   4.720   5.218  14.177  0.7320 -0.2083 -0.5251
11917TIP3    H257243   4.715   5.368  14.158 -0.2197 -0.0187  1.0106
11918TIP3   OH257244   3.602   6.227  10.569 -0.6143 -0.7469 -0.1352
11918TIP3    H157245   3.647   6.263  10.645  0.3851  1.1339 -1.5482
11918TIP3    H257246   3.529   6.178  10.606 -1.2668  1.6224  2.0054
11919TIP3   OH257247   3.485   1.025   0.808  0.5173 -0.1368  0.1963
11919TIP3    H157248   3.542   1.079   0.863  0.5155 -0.8494  0.9059
11919TIP3    H257249   3.447   0.961   0.867  1.2308 -1.5120 -0.7574
11920TIP3   OH257250   6.496   4.974  13.356  0.0716 -0.4388  0.2619
11920TIP3    H157251   6.439   4.899  13.375 -1.0616  0.3282  0.0066
11920TIP3    H257252   6.552   4.982  13.433  1.8770 -2.9922 -0.6616
11921TIP3   OH257253   5.694   3.305  14.732 -0.5969 -0.1727 -0.0917
11921TIP3    H157254   5.695   3.216  14.697 -1.3761 -0.4308  0.4974
11921TIP3    H257255   5.603   3.319  14.759 -0.4842  0.8100 -0.1951
11922TIP3   OH257256   2.556   3.347   4.731  0.4100 -0.1716 -0.4229
11922TIP3    H157257   2.588   3.257   4.736  0.8499 -0.1586 -2.3751
11922TIP3    H257258   2.480   3.349   4.789  0.8787 -1.5616  0.2846
11923TIP3   OH257259   5.176   1.607   0.634  0.4672 -0.1176  0.0087
11923TIP3    H157260   5.183   1.521   0.593  0.8340  1.2803 -3.1631
11923TIP3    H257261   5.266   1.632   0.654  0.3315 -0.5686  1.2924
11924TIP3   OH257262   6.741   4.708  16.854 -0.2244 -0.4362 -0.1169
11924TIP3    H157263   6.737   4.627  16.904  0.0483  0.0184  0.6713
11924TIP3    H257264   6.830   4.710  16.818 -0.2258 -0.4804 -0.1215
11925TIP3   OH257265   3.174   4.238  15.660  0.5457  0.7672  0.2721
11925TIP3    H157266   3.156   4.152  15.697  2.6992 -0.7358 -1.8899
11925TIP3    H257267   3.088   4.276  15.643 -0.4459 -0.7183  1.6804
11926TIP3   OH257268   1.482   4.248   1.529 -0.7110 -0.2415 -0.3606
11926TIP3    H157269   1.472   4.153   1.533 -0.2762 -0.2877 -0.3231
11926TIP3    H257270   1.445   4.272   1.444 -1.9193 -0.2952  0.1249
11927TIP3   OH257271   1.176   1.822  16.674  0.3091  0.1733  0.1702
11927TIP3    H157272   1.229   1.849  16.599  0.8376 -0.7195  0.2081
11927TIP3    H257273   1.137   1.739  16.648  0.7506 -0.3094  0.9912
11928TIP3   OH257274   2.792   5.557   2.859  0.5144 -0.0399  0.0499
11928TIP3    H157275   2.863   5.588   2.803  1.1478 -1.5565 -0.0342
11928TIP3    H257276   2.833   5.542   2.944 -0.1631  1.0233  0.5814
11929TIP3   OH257277   0.453   1.154   5.353  0.2756 -0.0672 -0.6455
11929TIP3    H157278   0.439   1.235   5.403  0.8667 -0.3112 -0.0715
11929TIP3    H257279   0.482   1.090   5.419  0.5561 -0.5406 -1.2216
11930TIP3   OH257280   5.467   6.072  10.817 -0.0011 -0.6471  0.4458
11930TIP3    H157281   5.407   5.999  10.834  0.5509 -1.6859 -1.7187
11930TIP3    H257282   5.549   6.046  10.859  0.2938 -1.4886 -0.5981
11931TIP3   OH257283   5.451   6.562  15.736 -0.0447 -0.3522 -0.1591
11931TIP3    H157284   5.489   6.490  15.786  1.5890  1.7634  1.8996
11931TIP3    H257285   5.419   6.624  15.802  0.3992  1.6978 -1.7282
11932TIP3   OH257286   0.444   2.013  14.839  0.2697 -0.2425 -0.4186
11932TIP3    H157287   0.470   2.064  14.762  1.2959  0.7387  0.5412
11932TIP3    H257288   0.390   2.073  14.890  1.0654 -0.2613  0.4718
11933TIP3   OH257289   2.618   0.658  17.063 -0.1707  0.2037  0.2572
11933TIP3    H157290   2.577   0.622  16.984  0.5183  0.8110 -0.3968
11933TIP3    H257291   2.555   0.721  17.097 -1.0315 -0.9938  0.9489
11934TIP3   OH257292   4.391   6.778   3.787 -0.5165  0.1566  0.2207
11934TIP3    H157293   4.344   6.711   3.835  0.5431 -0.3715  0.5632
11934TIP3    H257294   4.411   6.845   3.852  1.0294 -0.6178  0.6054
11935TIP3   OH257295   0.114   3.630   2.867 -0.6733  0.1647 -0.0202
11935TIP3    H157296   0.048   3.574   2.908 -0.8867  0.3281 -0.1445
11935TIP3    H257297   0.121   3.597   2.778  0.2015 -0.5627  0.2986
11936TIP3   OH257298   2.527   1.471  14.961 -0.0381  0.4866  0.2047
11936TIP3    H157299   2.490   1.500  15.044 -1.7220 -0.2648 -0.2362
11936TIP3    H257300   2.614   1.437  14.983 -0.5891 -0.0101  1.7123
11937TIP3   OH257301   0.311   6.625   1.653 -0.0396  0.2543 -0.0888
11937TIP3    H157302   0.392   6.623   1.602  0.1812 -0.7179  0.2882
11937TIP3    H257303   0.321   6.700   1.712  1.3346 -0.8316  1.1314
11938TIP3   OH257304   3.632   3.039  12.242  0.1777 -0.7964  0.5080
11938TIP3    H157305   3.568   3.067  12.308  0.9343  0.1804  0.8466
11938TIP3    H257306   3.711   3.018  12.293  0.3733 -1.2645  0.0203
11939TIP3   OH257307   6.459   6.039  11.046 -0.0817 -0.0839 -0.2083
11939TIP3    H157308   6.408   6.119  11.050 -0.3081 -0.2491  0.4103
11939TIP3    H257309   6.404   5.973  11.088  1.0512 -0.0219  1.4806
11940TIP3   OH257310   0.832   0.744  13.440  0.3380  0.7955 -0.0534
11940TIP3    H157311   0.759   0.805  13.439  0.2574  0.7671  1.3649
11940TIP3    H257312   0.810   0.677  13.375 -1.1751  0.4791  0.7553
11941TIP3   OH257313   4.119   2.012   5.152  0.4211  0.5894 -0.1122
11941TIP3    H157314   4.119   1.920   5.181  1.4613  0.4412 -0.5519
11941TIP3    H257315   4.194   2.051   5.195  0.8113  0.8746 -1.0311
11942TIP3   OH257316   2.326   4.860   1.934  0.2370 -0.4210  0.2694
11942TIP3    H157317   2.379   4.889   1.861  0.1563 -2.3655 -0.6339
11942TIP3    H257318   2.337   4.927   2.001 -1.4333  2.6237 -2.2397
11943TIP3   OH257319   6.495   1.189   1.110 -0.4733  0.4569 -0.5446
11943TIP3    H157320   6.502   1.269   1.162  1.7466 -0.1850  0.2605
11943TIP3    H257321   6.468   1.219   1.023 -1.2116  1.8810  0.1393
11944TIP3   OH257322   6.347   2.957   2.541 -0.4493 -0.1198  0.4479
11944TIP3    H157323   6.262   2.978   2.503 -0.7072  0.2685  1.2289
11944TIP3    H257324   6.337   2.868   2.575 -1.2388  0.6925  2.4533
11945TIP3   OH257325   0.867   5.502  15.238  0.5990  0.0486 -0.0140
11945TIP3    H157326   0.901   5.562  15.171 -0.7577  1.0153  0.1314
11945TIP3    H257327   0.777   5.530  15.252  0.6166 -0.6469  1.6550
11946TIP3   OH257328   3.595   1.034  12.120 -0.3428 -0.1941 -0.3199
11946TIP3    H157329   3.536   1.023  12.045 -0.7183 -1.6350  0.1450
11946TIP3    H257330   3.539   1.026  12.197  0.2435 -0.1169  0.1221
11947TIP3   OH257331   0.606   3.204   2.094  0.1017  0.9381  0.3068
11947TIP3    H157332   0.515   3.230   2.104 -0.1567 -0.1977  1.0141
11947TIP3    H257333   0.627   3.225   2.003 -1.2901 -0.1223 -0.2862
11948TIP3   OH257334   0.973   4.480  15.385 -0.6694 -0.2348 -0.5857
11948TIP3    H157335   0.984   4.388  15.409  0.3762  0.4248  1.7451
11948TIP3    H257336   0.893   4.481  15.333 -1.3574 -2.3015  0.2996
11949TIP3   OH257337   2.271   5.589  14.444  0.4753  0.6370 -0.3507
11949TIP3    H157338   2.364   5.593  14.469  0.2794  0.8627  0.3621
11949TIP3    H257339   2.254   5.673  14.402  0.4562  0.8117  0.0077
11950TIP3   OH257340   0.570   4.889  12.108  0.2928 -0.2144  0.0213
11950TIP3    H157341   0.490   4.842  12.131 -1.3904  2.3675 -0.0875
11950TIP3    H257342   0.565   4.901  12.014  1.4149 -0.9998 -0.1524
11951TIP3   OH257343   6.839   4.979  12.351  0.2032  0.0751  0.1311
11951TIP3    H157344   6.873   4.989  12.440  0.0748  0.8285  0.1012
11951TIP3    H257345   6.745   4.965  12.363 -0.1579  2.0566  0.0719
11952TIP3   OH257346   1.916   5.688   2.623 -0.4211 -0.1914  0.3418
11952TIP3    H157347   2.004   5.724   2.639 -0.5662  0.4664 -0.2824
11952TIP3    H257348   1.925   5.640   2.540 -0.4796 -0.7580  0.6545
11953TIP3   OH257349   2.712   1.672  12.123 -0.2184  0.2766 -0.0051
11953TIP3    H157350   2.802   1.641  12.111 -0.0043  0.5475  0.8280
11953TIP3    H257351   2.667   1.599  12.166  0.0763  0.7851  1.2102
11954TIP3   OH257352   5.222   5.592  16.214  0.6270  0.4476  0.4820
11954TIP3    H157353   5.300   5.538  16.224  0.0661 -0.2031  1.5162
11954TIP3    H257354   5.155   5.533  16.181  1.0883  1.4732 -2.6086
11955TIP3   OH257355   2.911   2.587   5.336  0.0750  0.2278  0.2850
11955TIP3    H157356   2.978   2.596   5.404 -1.4350  0.2296  1.8484
11955TIP3    H257357   2.891   2.494   5.335  0.5583  0.1269 -0.6621
11956TIP3   OH257358   4.515   1.479  11.996  0.3173  0.4225 -0.5865
11956TIP3    H157359   4.492   1.416  12.064  0.5056 -0.1805 -1.0732
11956TIP3    H257360   4.464   1.557  12.017 -0.5441 -0.1704 -0.4475
11957TIP3   OH257361   3.420   1.511  16.026 -0.4946 -0.2259 -0.2204
11957TIP3    H157362   3.500   1.521  15.975  0.0179  0.8382  0.7253
11957TIP3    H257363   3.406   1.416  16.032 -0.1526 -0.3829 -1.6448
11958TIP3   OH257364   2.657   6.531  16.240  0.0793  0.2146 -0.3198
11958TIP3    H157365   2.584   6.472  16.223  0.9779 -0.7443 -0.9646
11958TIP3    H257366   2.709   6.487  16.307  1.8591 -0.7651 -2.2420
11959TIP3   OH257367   2.924   0.155   4.957  0.5929  0.3152 -0.3374
11959TIP3    H157368   2.895   0.234   4.911  2.8336  0.3247 -1.8951
11959TIP3    H257369   2.882   0.083   4.909  0.3633  0.4577 -0.3521
11960TIP3   OH257370   2.164   2.544   0.993 -0.2395  0.4396 -0.2981
11960TIP3    H157371   2.156   2.638   1.009  3.0069  1.1862 -2.2227
11960TIP3    H257372   2.210   2.510   1.070  0.3714  0.8243 -0.4869
11961TIP3   OH257373   5.060   6.728   5.875  0.4247  0.6221 -0.0243
11961TIP3    H157374   5.018   6.692   5.797  4.2504 -0.4627 -1.8446
11961TIP3    H257375   5.052   6.659   5.940 -0.6054  0.4817 -0.2809
11962TIP3   OH257376   3.654   4.632   1.361  0.4041  0.3269  0.3752
11962TIP3    H157377   3.643   4.697   1.429  0.2826  1.3237 -0.5664
11962TIP3    H257378   3.566   4.612   1.331  0.5247  0.7855 -0.2979
11963TIP3   OH257379   3.764   1.654  16.385  0.1915  0.4961 -0.1257
11963TIP3    H157380   3.717   1.582  16.344 -0.5547  0.1618  1.2381
11963TIP3    H257381   3.703   1.687  16.452  1.0708  1.4656  0.2250
11964TIP3   OH257382   4.920   5.664   3.154 -0.2126  0.2542  0.2789
11964TIP3    H157383   5.000   5.715   3.145 -0.4232  0.8303  1.5579
11964TIP3    H257384   4.937   5.605   3.227 -0.5231 -0.4966 -0.2362
11965TIP3   OH257385   4.582   5.599   1.523 -0.1490 -0.1897  0.4833
11965TIP3    H157386   4.619   5.515   1.495 -0.4968 -0.1294 -0.1702
11965TIP3    H257387   4.656   5.645   1.565  0.0552 -0.7899  0.7929
11966TIP3   OH257388   3.072   0.803  14.177 -0.0524  0.3833 -0.4218
11966TIP3    H157389   3.160   0.782  14.208 -0.3862 -1.5495 -0.6685
11966TIP3    H257390   3.086   0.860  14.101  1.1314 -1.5873 -1.7806
11967TIP3   OH257391   5.970   0.040  14.887  0.0261 -0.4947  0.0539
11967TIP3    H157392   5.926  -0.042  14.861 -0.6943 -1.4452  3.6412
11967TIP3    H257393   5.901   0.106  14.882 -0.1321 -0.6784 -0.2598
11968TIP3   OH257394   1.635   4.019  15.374  0.0612  0.1832 -0.2602
11968TIP3    H157395   1.543   4.014  15.397  0.4223  0.4801  1.3888
11968TIP3    H257396   1.660   3.928  15.357 -0.2876 -0.0509  0.4225
11969TIP3   OH257397   5.597   0.754  14.151 -0.1513  0.8605  0.0148
11969TIP3    H157398   5.550   0.820  14.100 -0.2230  0.1312 -0.8949
11969TIP3    H257399   5.630   0.692  14.085  4.0357  2.4882  0.2854
11970TIP3   OH257400   4.504   3.265   1.290 -0.2352 -0.3245 -0.0430
11970TIP3    H157401   4.562   3.208   1.239 -1.4885 -0.9046 -0.8717
11970TIP3    H257402   4.500   3.224   1.376  0.4259 -0.3864 -0.0355
11971TIP3   OH257403   1.078   1.787  14.415 -0.0651 -0.3446  0.1638
11971TIP3    H157404   1.071   1.825  14.502  0.4603 -0.7978  0.4083
11971TIP3    H257405   1.003   1.728  14.408 -0.4362  0.1324  0.0824
11972TIP3   OH257406   3.793   2.308  15.184 -0.6540 -0.2204  0.1290
11972TIP3    H157407   3.756   2.389  15.221 -2.0895 -0.7777 -0.0217
11972TIP3    H257408   3.842   2.269  15.257 -3.1423 -1.1253  1.4480
11973TIP3   OH257409   3.733   5.156  16.987  0.0777  0.0566 -0.3060
11973TIP3    H157410   3.638   5.153  16.985  0.0117  0.7318  0.9066
11973TIP3    H257411   3.761   5.087  16.926 -1.1727 -0.1964 -0.6151
11974TIP3   OH257412   0.428   2.141  12.911 -0.3494 -0.3847 -0.3016
11974TIP3    H157413   0.494   2.087  12.953 -0.7354 -1.3090 -0.8357
11974TIP3    H257414   0.400   2.090  12.835  1.9228  2.0990 -3.0900
11975TIP3   OH257415   2.560   5.131  13.219 -0.5165  0.0490  0.0631
11975TIP3    H157416   2.537   5.176  13.138 -1.0723 -0.5345 -0.1188
11975TIP3    H257417   2.494   5.160  13.282  0.3846  1.1130  0.5343
11976TIP3   OH257418   3.599   5.248   2.705 -0.5768  0.1697 -0.3559
11976TIP3    H157419   3.538   5.187   2.746 -2.4721  1.6479 -0.7964
11976TIP3    H257420   3.588   5.329   2.754 -0.1327  0.9050 -1.4443
11977TIP3   OH257421   2.680   5.699   1.667 -0.0817  0.1855 -0.1286
11977TIP3    H157422   2.697   5.792   1.683 -1.3688  0.1331  1.8567
11977TIP3    H257423   2.592   5.685   1.701  0.3022 -1.8901  0.1251
11978TIP3   OH257424   5.730   4.853   3.790 -0.1501 -0.1275 -0.2156
11978TIP3    H157425   5.732   4.778   3.731  2.2097 -0.1245 -0.2595
11978TIP3    H257426   5.639   4.861   3.817 -1.0677 -0.9869 -2.7437
11979TIP3   OH257427   2.177   5.162   3.844 -0.5222  0.2908 -0.4509
11979TIP3    H157428   2.196   5.252   3.869 -0.4881  0.5468 -1.3953
11979TIP3    H257429   2.196   5.158   3.750 -3.5768  0.1278 -1.1437
11980TIP3   OH257430   6.595   5.890   3.750 -0.3922  0.5983  0.2921
11980TIP3    H157431   6.565   5.806   3.785 -2.3960  0.9971 -0.2857
11980TIP3    H257432   6.517   5.946   3.755  0.4335  1.9118 -0.8798
11981TIP3   OH257433   0.114   6.525  11.819  0.0462 -0.1180  0.0247
11981TIP3    H157434   0.195   6.544  11.772  0.2563 -0.1845  0.3538
11981TIP3    H257435   0.121   6.432  11.842 -1.1361 -0.7416 -1.9049
11982TIP3   OH257436   0.784   4.275  11.937 -0.2009 -0.1040  0.4522
11982TIP3    H157437   0.750   4.263  11.848 -1.8542 -0.7193  1.1241
11982TIP3    H257438   0.783   4.187  11.974  2.8238 -0.2678  0.3264
11983TIP3   OH257439   1.011   2.579  11.680  0.2433  0.2048 -0.3979
11983TIP3    H157440   0.965   2.602  11.599 -0.8540  0.7564  0.3644
11983TIP3    H257441   1.098   2.619  11.670 -1.0629  3.4814  0.2016
11984TIP3   OH257442   3.345   5.983   1.873  0.0671  0.3704  0.4058
11984TIP3    H157443   3.259   6.021   1.889 -0.5279 -0.5428 -0.5116
11984TIP3    H257444   3.344   5.960   1.780  0.5739 -1.4067  0.8021
11985TIP3   OH257445   4.719   3.667  14.060  0.1864  0.5287 -0.3127
11985TIP3    H157446   4.772   3.588  14.073 -0.8758 -0.3862 -1.3067
11985TIP3    H257447   4.772   3.722  14.003 -0.0627 -0.5725 -1.6772
11986TIP3   OH257448   2.074   0.091   5.048  0.0088  0.2836  0.0518
11986TIP3    H157449   2.152   0.100   4.994  0.8823 -0.6597  1.1072
11986TIP3    H257450   2.107   0.085   5.138 -1.3742  1.4443  0.6928
11987TIP3   OH257451   3.607   2.632  13.883  0.0079 -0.1892 -0.1498
11987TIP3    H157452   3.628   2.593  13.968 -0.4463  1.2329  0.6477
11987TIP3    H257453   3.515   2.655  13.890 -0.5175 -1.6169 -1.6939
11988TIP3   OH257454   2.613   1.580   4.331 -0.2390  0.1212 -0.0892
11988TIP3    H157455   2.525   1.543   4.339 -0.2562  0.4210  1.4791
11988TIP3    H257456   2.665   1.510   4.293 -1.0339 -0.2401 -0.5478
11989TIP3   OH257457   1.543   0.749  14.686 -0.2480 -0.7083 -0.0276
11989TIP3    H157458   1.479   0.767  14.618  0.1557 -1.0227 -0.4999
11989TIP3    H257459   1.491   0.718  14.761 -0.8400  1.1959  0.3955
11990TIP3   OH257460   1.439   2.526   3.952 -0.0414 -0.0950  0.0052
11990TIP3    H157461   1.466   2.434   3.956  1.1146  0.2494  2.4349
11990TIP3    H257462   1.344   2.524   3.952 -0.0517 -1.2765 -1.5896
11991TIP3   OH257463   4.400   3.679   3.115 -0.2278 -0.0226  0.5565
11991TIP3    H157464   4.402   3.702   3.022  0.0325 -0.4569  0.4525
11991TIP3    H257465   4.384   3.762   3.160  2.6670  0.7741  0.3266
11992TIP3   OH257466   4.607   4.836   5.691 -0.2660 -0.3955 -0.0043
11992TIP3    H157467   4.616   4.858   5.783  2.0064  1.7220 -0.6274
11992TIP3    H257468   4.532   4.888   5.661  0.2526  0.5189  0.2392
11993TIP3   OH257469   1.545   4.499  14.304  0.0870 -0.1952 -0.5802
11993TIP3    H157470   1.584   4.533  14.223 -1.7117  1.0499 -0.9715
11993TIP3    H257471   1.570   4.406  14.305  0.4458 -0.1578 -2.3864
11994TIP3   OH257472   1.355   5.139   0.015  0.1611 -0.1858  0.3329
11994TIP3    H157473   1.310   5.056  -0.002 -2.0966  0.9032  0.6222
11994TIP3    H257474   1.309   5.176   0.090  1.8259  0.8515  0.8904
11995TIP3   OH257475   5.870   0.625   4.073 -0.0952  0.2902 -0.5337
11995TIP3    H157476   5.810   0.584   4.011 -0.9574  0.3548  0.2460
11995TIP3    H257477   5.853   0.581   4.156  1.0638  0.1858 -0.3321
11996TIP3   OH257478   5.327   3.616  15.040  0.1086 -0.0667 -0.1773
11996TIP3    H157479   5.241   3.579  15.021  0.7100 -1.6503  0.0809
11996TIP3    H257480   5.315   3.711  15.030 -2.0012 -0.1223  1.1698
11997TIP3   OH257481   4.504   3.590  11.064 -0.3391 -0.2618  0.4645
11997TIP3    H157482   4.451   3.548  10.996 -0.3545  0.7622 -0.1750
11997TIP3    H257483   4.462   3.564  11.146 -1.4882  0.0561 -0.0018
11998TIP3   OH257484   2.401   3.782   3.314  0.1202 -0.1441 -1.3743
11998TIP3    H157485   2.420   3.735   3.233 -0.9858 -0.1176 -1.6661
11998TIP3    H257486   2.338   3.726   3.360 -0.4531  0.5763 -1.2650
11999TIP3   OH257487   1.709   2.135  13.563  0.1267 -0.2184 -0.1982
11999TIP3    H157488   1.712   2.081  13.484  0.8677  0.1908 -0.4603
11999TIP3    H257489   1.757   2.085  13.628  0.3285 -0.1310 -0.2792
12000TIP3   OH257490   0.667   2.003  10.348 -0.1630  0.0900  0.1330
12000TIP3    H157491   0.668   1.926  10.404 -1.3387  0.5471  0.8092
12000TIP3    H257492   0.759   2.018  10.326 -0.0141 -2.7713 -1.8105
12001TIP3   OH257493   0.881   5.707  14.314  0.2244 -0.2747 -0.2696
12001TIP3    H157494   0.851   5.657  14.390  0.4082  0.7727  0.5215
12001TIP3    H257495   0.802   5.749  14.279  0.3543  0.4528  0.2783
12002TIP3   OH257496   3.897   3.178  12.541 -0.0919 -0.0138  0.0215
12002TIP3    H157497   3.810   3.181  12.581  0.0662  0.2138  0.3444
12002TIP3    H257498   3.935   3.263  12.560  0.7933 -0.6508  1.2003
12003TIP3   OH257499   1.635   2.244   5.939  0.0612 -0.0957 -0.2740
12003TIP3    H157500   1.654   2.335   5.963  2.2471 -0.1730 -1.3636
12003TIP3    H257501   1.640   2.244   5.843 -0.6018 -1.2352 -0.3185
12004TIP3   OH257502   6.403   4.611   4.175  0.1377  0.1363  0.0796
12004TIP3    H157503   6.325   4.647   4.132 -0.9302 -0.6287  1.3155
12004TIP3    H257504   6.429   4.679   4.237 -0.6518 -0.3473  0.9578
12005TIP3   OH257505   4.046   3.959  13.824 -0.0662  0.1829 -0.0739
12005TIP3    H157506   4.033   3.875  13.780  1.0776 -0.8645  1.5283
12005TIP3    H257507   4.101   4.009  13.764  0.6183 -0.8382 -0.3184
12006TIP3   OH257508   6.511   6.108  12.760  0.1739 -0.1624 -0.0660
12006TIP3    H157509   6.460   6.045  12.709 -0.9691  1.2545 -0.7476
12006TIP3    H257510   6.448   6.175  12.786  1.3844  0.8295  0.4276
12007TIP3   OH257511   3.236   1.734   4.115 -0.8704  0.4936 -0.2794
12007TIP3    H157512   3.202   1.783   4.190 -1.1172  0.7080 -0.5279
12007TIP3    H257513   3.200   1.646   4.125 -3.2935  1.2234 -1.6504
12008TIP3   OH257514   3.225   1.241  15.708 -0.6983  0.1430  0.3422
12008TIP3    H157515   3.266   1.224  15.792  1.1148 -0.6624 -0.6476
12008TIP3    H257516   3.150   1.181  15.705  0.7287 -1.7255  0.3615
12009TIP3   OH257517   4.841   4.829  15.489 -0.5783  0.3907  0.4535
12009TIP3    H157518   4.861   4.780  15.568  0.7360 -0.0051 -0.0952
12009TIP3    H257519   4.789   4.769  15.436  1.5107 -0.6995 -0.4654
12010TIP3   OH257520   4.205   6.251   2.800  0.8052 -0.3484  0.3276
12010TIP3    H157521   4.114   6.252   2.831  0.8354 -3.8422  0.9012
12010TIP3    H257522   4.254   6.299   2.866 -0.6076  2.0721 -0.2649
12011TIP3   OH257523   1.156   2.805   6.432 -0.1269  0.2129  0.5663
12011TIP3    H157524   1.237   2.754   6.437 -0.7172 -0.7092  0.9667
12011TIP3    H257525   1.086   2.740   6.435 -0.8852  0.8927 -1.1893
12012TIP3   OH257526   5.363   3.460   3.473  0.2721 -0.3637 -0.3759
12012TIP3    H157527   5.273   3.468   3.504 -0.1915  1.9626 -2.0394
12012TIP3    H257528   5.409   3.417   3.545 -1.6179  0.6910  1.5944
12013TIP3   OH257529   3.686   5.950   3.706 -0.4123 -0.1370  0.3011
12013TIP3    H157530   3.780   5.931   3.699 -0.9490 -3.1393 -0.0230
12013TIP3    H257531   3.665   5.935   3.798 -0.9556 -1.8021 -0.0651
12014TIP3   OH257532   4.481   1.663   3.554 -0.1081  0.3312  0.0952
12014TIP3    H157533   4.399   1.619   3.576 -0.5346  1.7417  1.5553
12014TIP3    H257534   4.456   1.728   3.488 -0.0147  0.2143 -0.0545
12015TIP3   OH257535   3.180   0.544  12.860  0.1894 -0.0986  0.1533
12015TIP3    H157536   3.235   0.509  12.790  1.5340  0.9285  0.6508
12015TIP3    H257537   3.241   0.587  12.920 -1.0930  0.5053  1.0916
12016TIP3   OH257538   1.026   2.642  12.039  0.3726 -0.2531  0.0845
12016TIP3    H157539   1.036   2.611  12.129  0.2113 -0.8807 -0.1127
12016TIP3    H257540   1.053   2.568  11.985 -0.7202 -0.3190 -0.3965
12017TIP3   OH257541   0.980   1.184   3.746  0.1215 -0.0279 -0.2666
12017TIP3    H157542   0.999   1.209   3.837  0.2083  0.7641 -0.4972
12017TIP3    H257543   1.056   1.133   3.719 -0.0666 -0.5745  0.2228
12018TIP3   OH257544   1.930   1.707  10.417  0.2111  0.1112 -0.1768
12018TIP3    H157545   1.879   1.694  10.497 -0.0783  1.6218 -0.0980
12018TIP3    H257546   1.987   1.630  10.413  0.0446 -0.1303  1.3382
12019TIP3   OH257547   4.785   0.200  14.815 -0.2138 -0.0002  0.9533
12019TIP3    H157548   4.695   0.169  14.822 -0.9691  1.8578 -0.0087
12019TIP3    H257549   4.790   0.242  14.729  1.5306  0.1174  1.0576
12020TIP3   OH257550   4.922   3.442  10.541 -0.2759  0.1605  0.1993
12020TIP3    H157551   5.008   3.479  10.559 -0.1216  0.7555 -1.5502
12020TIP3    H257552   4.868   3.467  10.616  0.7957  0.6869  0.8067
12021TIP3   OH257553   0.665   3.466   3.642 -0.2838 -0.3586 -0.4264
12021TIP3    H157554   0.587   3.500   3.597 -0.3770  1.6811  1.1362
12021TIP3    H257555   0.739   3.503   3.593 -0.3406 -0.2737 -0.4486
12022TIP3   OH257556   5.976   1.873  13.447  0.5183  0.2799 -0.0855
12022TIP3    H157557   6.025   1.884  13.365 -0.3068  1.1327 -0.4896
12022TIP3    H257558   5.949   1.782  13.448  1.6968 -0.0891 -0.0816
12023TIP3   OH257559   3.155   4.965   0.396 -0.1035  0.3111 -0.1478
12023TIP3    H157560   3.159   4.887   0.451  1.0794 -0.5413 -1.3729
12023TIP3    H257561   3.201   4.941   0.316  0.5344  2.3592 -0.4687
12024TIP3   OH257562   3.302   3.802   0.350 -0.0283  0.2756 -0.5867
12024TIP3    H157563   3.333   3.890   0.330 -0.8696  1.2881  2.0225
12024TIP3    H257564   3.280   3.806   0.444 -1.9511 -2.1383 -0.8410
12025TIP3   OH257565   6.124   2.663  14.106 -0.3842 -0.0602 -0.4670
12025TIP3    H157566   6.202   2.609  14.102  0.5887  1.2717 -0.1725
12025TIP3    H257567   6.059   2.615  14.055  0.2470 -1.7558  0.2533
12026TIP3   OH257568   6.735   1.437   1.071 -0.0201  1.0465  0.0178
12026TIP3    H157569   6.721   1.431   1.166 -0.7038 -0.6162 -0.1647
12026TIP3    H257570   6.659   1.486   1.039 -1.6437 -1.3821 -0.0467
12027TIP3   OH257571   4.124   6.324   2.480  0.1765  0.1341 -0.1152
12027TIP3    H157572   4.046   6.380   2.485  0.4534  0.4438  0.9552
12027TIP3    H257573   4.121   6.287   2.392 -1.7969 -0.7379  0.2515
12028TIP3   OH257574   1.629   5.594  14.856 -0.4546  0.3125 -0.3984
12028TIP3    H157575   1.696   5.531  14.882  0.9618  1.8041 -0.2415
12028TIP3    H257576   1.633   5.661  14.924 -1.5528  0.8374 -0.8386
12029TIP3   OH257577   1.682   5.351  14.692  0.1886  0.4340  0.1481
12029TIP3    H157578   1.679   5.332  14.785  0.2296  0.3119  0.1245
12029TIP3    H257579   1.591   5.371  14.668 -0.4611 -2.7860 -0.4662
12030TIP3   OH257580   3.112   5.904  16.221 -0.0517  0.4089 -0.2205
12030TIP3    H157581   3.147   5.818  16.243 -1.5532  0.0117  0.7183
12030TIP3    H257582   3.028   5.909  16.266  0.9935  3.3012  1.7491
12031TIP3   OH257583   0.926   1.340   4.499 -0.7320 -0.2495 -0.9029
12031TIP3    H157584   0.971   1.268   4.544 -0.4792  1.3567  1.6546
12031TIP3    H257585   0.833   1.314   4.501 -0.4311 -1.4895 -2.0507
12032TIP3   OH257586   0.154   2.659  12.726  0.6951  0.1923  0.4894
12032TIP3    H157587   0.080   2.610  12.691  2.0422 -1.6905  0.1364
12032TIP3    H257588   0.191   2.704  12.649 -0.0415  1.1024  0.6597
12033TIP3   OH257589   1.306   4.132  10.990 -0.2351  0.0111  0.0740
12033TIP3    H157590   1.351   4.164  11.068  1.0142  0.6211 -0.8637
12033TIP3    H257591   1.373   4.133  10.921 -1.5780  0.6021 -1.2941
12034TIP3   OH257592   5.038   4.728   0.594 -0.4338  0.6319  0.1989
12034TIP3    H157593   5.019   4.733   0.500  2.7535  1.6050 -0.5204
12034TIP3    H257594   4.985   4.797   0.633 -0.8578  1.0488 -1.0708
12035TIP3   OH257595   6.272   5.704   2.343 -0.3988 -0.3736  0.5972
12035TIP3    H157596   6.180   5.701   2.371 -0.9291 -2.3991 -1.0643
12035TIP3    H257597   6.315   5.637   2.396  0.1340  0.4888  1.2877
12036TIP3   OH257598   5.567   3.263   4.939 -0.3873  1.0229  0.0826
12036TIP3    H157599   5.504   3.312   4.885 -2.1451  1.4959  2.4301
12036TIP3    H257600   5.519   3.185   4.966  0.4906  0.7587  0.8879
12037TIP3   OH257601   0.250   4.902  10.391 -0.1066 -0.3304 -0.0356
12037TIP3    H157602   0.188   4.885  10.320  1.9717 -0.0766 -2.0295
12037TIP3    H257603   0.194   4.923  10.467 -2.4673  1.5226 -2.0951
12038TIP3   OH257604   3.061   3.412  12.974 -0.8340 -0.3355  0.0871
12038TIP3    H157605   3.055   3.473  12.900 -2.9151 -0.5731  0.0084
12038TIP3    H257606   3.060   3.467  13.052  1.9205 -0.0459  0.0116
12039TIP3   OH257607   2.313   5.074  16.321  0.4106  0.1643 -0.3858
12039TIP3    H157608   2.242   5.016  16.293 -0.4590  0.7944  0.4407
12039TIP3    H257609   2.339   5.040  16.406  1.3826 -0.2901 -0.8507
12040TIP3   OH257610   6.642   3.620   1.090 -0.0283 -0.2232  0.1893
12040TIP3    H157611   6.637   3.673   1.010 -1.5473  0.5534  0.7599
12040TIP3    H257612   6.562   3.568   1.090 -0.1509 -0.0651  1.2916
12041TIP3   OH257613   2.210   1.168  14.733 -0.0655  0.3450  0.3789
12041TIP3    H157614   2.128   1.121  14.749  1.2856 -1.5837  2.1632
12041TIP3    H257615   2.216   1.231  14.805  0.8557 -0.7879  1.3184
12042TIP3   OH257616   3.746   1.573  14.610 -0.0815 -0.0940 -0.1932
12042TIP3    H157617   3.807   1.510  14.648  2.0958  1.2003 -1.2992
12042TIP3    H257618   3.759   1.564  14.515 -0.4151  1.3409 -0.3962
12043TIP3   OH257619   2.754   0.322   2.422 -0.0063  0.5833 -0.2953
12043TIP3    H157620   2.841   0.358   2.437 -0.4847  0.5417  3.9011
12043TIP3    H257621   2.768   0.229   2.410  0.5911  0.2920  2.0500
12044TIP3   OH257622   2.838   3.866   4.495  0.7804  0.4959  0.8504
12044TIP3    H157623   2.833   3.776   4.529  0.9710  0.5158  0.9306
12044TIP3    H257624   2.855   3.855   4.402 -0.8861  0.4153  0.5166
12045TIP3   OH257625   0.993   4.996   3.996  0.1677 -0.5740 -0.0507
12045TIP3    H157626   0.923   4.995   3.930  0.8461 -0.6818 -0.7832
12045TIP3    H257627   0.971   4.925   4.056 -1.3134  0.5146  0.7738
12046TIP3   OH257628   1.498   6.555  17.117  0.1174  0.4295 -0.0572
12046TIP3    H157629   1.429   6.513  17.066  0.2436  0.5331 -0.3181
12046TIP3    H257630   1.464   6.559  17.206  0.3350 -0.7682  0.1073
12047TIP3   OH257631   5.964   2.179   1.458  0.0909  0.3997 -0.0734
12047TIP3    H157632   5.976   2.086   1.438 -1.9493 -0.0144  0.3368
12047TIP3    H257633   5.932   2.217   1.376  1.0669  0.7904 -0.2842
12048TIP3   OH257634   1.912   6.481   3.480 -0.1947 -0.1060 -0.0329
12048TIP3    H157635   1.874   6.555   3.527 -2.0372 -0.1456 -1.3635
12048TIP3    H257636   1.846   6.457   3.415  0.7441 -2.3557 -0.2400
12049TIP3   OH257637   3.081   5.542   2.705  0.2279  0.6444  0.4123
12049TIP3    H157638   3.174   5.529   2.688  0.1688 -1.5359  1.3799
12049TIP3    H257639   3.040   5.459   2.681 -1.3472  1.2901  0.7392
12050TIP3   OH257640   1.683   2.532  11.813 -0.6095 -0.2481 -0.5750
12050TIP3    H157641   1.604   2.546  11.761 -1.6345 -0.1378  0.9558
12050TIP3    H257642   1.654   2.478  11.887  0.3468  1.2463  0.9583
12051TIP3   OH257643   0.537   0.655   0.827 -0.0429 -0.4279 -0.0928
12051TIP3    H157644   0.593   0.723   0.865  1.7078 -2.4666  1.2149
12051TIP3    H257645   0.505   0.694   0.745  3.3479  0.9025 -0.9751
12052TIP3   OH257646   3.879   4.556   2.215 -0.3890 -0.6413 -0.0073
12052TIP3    H157647   3.974   4.553   2.206 -0.4579  1.4582 -2.8576
12052TIP3    H257648   3.846   4.511   2.137 -1.7887 -1.3352  0.9367
12053TIP3   OH257649   0.629   3.514   2.117 -0.0130 -0.1370 -0.5788
12053TIP3    H157650   0.710   3.466   2.132  0.8664  1.5033  0.1313
12053TIP3    H257651   0.637   3.546   2.027  0.0326 -0.1712 -0.5868
12054TIP3   OH257652   0.373   1.674  11.768  0.5828  0.4854 -0.4856
12054TIP3    H157653   0.317   1.623  11.827  0.1303  0.8594 -0.5918
12054TIP3    H257654   0.404   1.610  11.704 -2.0561  0.7552 -2.1989
12055TIP3   OH257655   4.944   2.519   0.274  0.3856 -0.8107  0.1503
12055TIP3    H157656   4.923   2.611   0.291 -2.1702 -1.2197 -0.3658
12055TIP3    H257657   4.891   2.470   0.337  1.1535 -1.9596 -0.0640
12056TIP3   OH257658   6.305   6.682   2.618 -0.1181 -0.0569 -0.0249
12056TIP3    H157659   6.312   6.758   2.560  0.9050  0.2043  0.4074
12056TIP3    H257660   6.211   6.675   2.638 -0.3560  0.4271 -0.9288
12057TIP3   OH257661   4.492   6.249   6.184 -0.9286 -0.4107  0.0805
12057TIP3    H157662   4.457   6.164   6.159 -1.5291  0.0790 -0.8116
12057TIP3    H257663   4.451   6.311   6.123  0.5188  0.3484 -0.1742
12058TIP3   OH257664   6.565   5.400   5.230 -0.1703 -0.4118 -0.2652
12058TIP3    H157665   6.634   5.437   5.285  0.3864  0.2596 -1.3814
12058TIP3    H257666   6.483   5.430   5.271  0.1023 -2.3869  1.8895
12059TIP3   OH257667   3.943   1.457  13.287 -0.1849  0.7427 -0.2452
12059TIP3    H157668   3.900   1.536  13.254 -0.5346  0.0245 -1.6029
12059TIP3    H257669   3.993   1.487  13.363  1.4061  2.7501 -1.9270
12060TIP3   OH257670   0.774   5.562   6.428 -0.0747  0.2118 -0.7472
12060TIP3    H157671   0.798   5.636   6.483  1.1051 -0.7887  0.1127
12060TIP3    H257672   0.690   5.532   6.463  0.5668 -0.2917  0.4122
12061TIP3   OH257673   3.854   0.234  15.570 -0.1155 -0.0295 -0.1071
12061TIP3    H157674   3.825   0.314  15.614 -1.9230 -1.6969  1.9718
12061TIP3    H257675   3.803   0.231  15.489 -0.7050  0.4771  0.2426
12062TIP3   OH257676   0.673   2.317  11.701  0.1124 -0.8505 -0.3508
12062TIP3    H157677   0.624   2.281  11.775 -1.5267  2.5627  0.4325
12062TIP3    H257678   0.724   2.388  11.739 -0.3019  0.5910 -2.3634
12063TIP3   OH257679   3.716   2.257  11.671  0.0635 -0.1689  0.1361
12063TIP3    H157680   3.765   2.283  11.749  0.4891 -0.5241 -0.0083
12063TIP3    H257681   3.625   2.275  11.693  0.3132  1.2574  0.1116
12064TIP3   OH257682   0.044   4.038   4.573 -0.0108  0.8251 -0.5034
12064TIP3    H157683  -0.012   4.111   4.550 -0.1244  1.0688  0.4949
12064TIP3    H257684   0.047   3.984   4.494  0.4880  2.1552 -1.4301
12065TIP3   OH257685   5.613   3.990   2.480  0.2418  0.4990 -0.0764
12065TIP3    H157686   5.528   3.946   2.471  0.8188 -0.4113 -1.2217
12065TIP3    H257687   5.658   3.973   2.397  1.6107  0.8454  0.5730
12066TIP3   OH257688   3.411   1.986   4.284  0.2526 -0.4104  0.5706
12066TIP3    H157689   3.480   2.002   4.348 -0.4700  2.5629  0.7667
12066TIP3    H257690   3.377   2.073   4.263 -0.5387 -1.3771 -2.7949
12067TIP3   OH257691   3.444   6.557   5.829  0.3749  0.1497  0.3262
12067TIP3    H157692   3.369   6.608   5.800 -0.4111 -0.2493  1.5869
12067TIP3    H257693   3.415   6.514   5.909  1.0176 -2.2479 -0.6261
12068TIP3   OH257694   6.223   3.990   3.481  0.1901  0.6439 -0.2205
12068TIP3    H157695   6.274   3.917   3.447  1.0727  0.9058  0.5130
12068TIP3    H257696   6.146   3.949   3.520 -0.2513  0.2583 -1.4433
12069TIP3   OH257697   2.227   1.668   0.499 -0.1280  0.0326 -0.4138
12069TIP3    H157698   2.165   1.728   0.459  1.5993  0.7560 -2.1528
12069TIP3    H257699   2.226   1.691   0.592 -1.9463  0.4278 -0.4882
12070TIP3   OH257700   1.610   4.836   3.478  0.3732  0.3541  0.0814
12070TIP3    H157701   1.646   4.916   3.441  1.1967  0.2011  0.5235
12070TIP3    H257702   1.547   4.805   3.413 -0.4154  1.6888  0.1942
12071TIP3   OH257703   3.604   0.816  11.336 -0.7108  0.3975  0.2794
12071TIP3    H157704   3.536   0.760  11.296  0.6530  1.0835 -3.3281
12071TIP3    H257705   3.568   0.904  11.330  0.6218  0.8327 -2.1805
12072TIP3   OH257706   2.361   5.742  10.901 -0.3257  0.3670 -0.1017
12072TIP3    H157707   2.408   5.741  10.818 -0.9113  3.3087 -0.5768
12072TIP3    H257708   2.280   5.693  10.884  0.8570 -1.6187 -0.3191
12073TIP3   OH257709   1.515   5.461  16.918 -0.3012  0.3417  0.1135
12073TIP3    H157710   1.446   5.420  16.865 -0.5800  1.1493 -0.1672
12073TIP3    H257711   1.595   5.416  16.892 -0.9435 -2.0437  1.9139
12074TIP3   OH257712   1.702   2.281  12.482 -0.6169  0.6570 -0.1957
12074TIP3    H157713   1.751   2.353  12.443  0.0656 -1.0255 -2.7248
12074TIP3    H257714   1.702   2.213  12.414 -1.9873 -1.3916  1.7194
12075TIP3   OH257715   2.912   5.217  15.096 -0.8343  0.0642  0.0126
12075TIP3    H157716   2.980   5.181  15.152 -0.3563  0.3316 -0.3832
12075TIP3    H257717   2.835   5.163  15.112 -0.2373 -0.8975 -0.3046
12076TIP3   OH257718   0.586   5.228  15.301 -0.5814  0.2781 -0.4358
12076TIP3    H157719   0.594   5.302  15.361 -0.5150 -1.1441  1.4244
12076TIP3    H257720   0.493   5.226  15.278 -0.6378  0.7787 -0.2576
12077TIP3   OH257721   4.570   2.700   0.341  0.4382  0.0216  0.3744
12077TIP3    H157722   4.538   2.619   0.304  0.4744 -0.1371  0.6854
12077TIP3    H257723   4.661   2.681   0.367  0.1438 -0.1408  1.3489
12078TIP3   OH257724   0.780   1.521  13.776  0.2928  0.1178 -0.2797
12078TIP3    H157725   0.703   1.549  13.727 -1.1954 -1.7530  0.8084
12078TIP3    H257726   0.785   1.581  13.850 -1.1256 -0.6701  0.4937
12079TIP3   OH257727   1.373   3.726  11.732 -0.1500 -0.2688  0.0613
12079TIP3    H157728   1.319   3.675  11.793  0.9358  0.3448  1.6062
12079TIP3    H257729   1.390   3.808  11.779  0.3832  0.4018 -1.2622
12080TIP3   OH257730   3.786   5.422  11.924  0.2121  0.4778  0.2104
12080TIP3    H157731   3.825   5.445  12.008 -0.0150  0.9796  0.1783
12080TIP3    H257732   3.771   5.328  11.930  3.0461 -0.1190 -0.4187
12081TIP3   OH257733   0.252   4.879   4.371 -0.2882 -0.0006  0.2725
12081TIP3    H157734   0.265   4.866   4.465 -0.4897  0.9444  0.4407
12081TIP3    H257735   0.194   4.807   4.345  0.6347 -0.9124  0.6408
12082TIP3   OH257736   1.632   6.213   0.116  0.1478 -0.2460 -0.2488
12082TIP3    H157737   1.648   6.297   0.159 -1.0105 -0.8073  1.3797
12082TIP3    H257738   1.633   6.233   0.023  3.4276  0.9133 -0.0918
12083TIP3   OH257739   0.997   4.949   1.418 -0.2113  0.1591  0.4098
12083TIP3    H157740   0.920   4.896   1.398  1.2478 -1.4719 -1.2651
12083TIP3    H257741   0.998   5.017   1.351  0.0823 -0.1494  0.0976
12084TIP3   OH257742   5.445   4.419  17.011  0.6182  0.2984  0.5342
12084TIP3    H157743   5.418   4.493  17.065 -0.5703  0.8316 -0.7626
12084TIP3    H257744   5.462   4.456  16.925 -0.0026 -0.9256 -0.1401
12085TIP3   OH257745   3.707   0.588  15.252 -0.7923 -0.4645  0.0131
12085TIP3    H157746   3.721   0.657  15.187 -0.1445 -0.9202 -0.3362
12085TIP3    H257747   3.695   0.634  15.335  1.4785  0.0208  0.1255
12086TIP3   OH257748   1.990   1.160  11.092 -0.1196  0.5288  0.0824
12086TIP3    H157749   2.054   1.231  11.091  0.0566  0.4722  2.2830
12086TIP3    H257750   1.977   1.138  11.000  0.4919  2.7960 -0.6083
12087TIP3   OH257751   5.242   0.470  13.496  0.1095 -0.2360 -0.2992
12087TIP3    H157752   5.165   0.447  13.444  0.4285  0.9317 -1.3315
12087TIP3    H257753   5.316   0.437  13.446  0.3314 -0.7002  0.3228
12088TIP3   OH257754   2.980   2.208  12.126  0.7701  0.4997  0.0814
12088TIP3    H157755   3.004   2.164  12.207 -0.8599  0.7877  0.7608
12088TIP3    H257756   2.978   2.137  12.061 -1.2243 -0.4054  1.0334
12089TIP3   OH257757   3.591   4.368   1.169  0.4371  0.4887  0.7723
12089TIP3    H157758   3.530   4.440   1.154 -0.1361 -0.2067 -0.3628
12089TIP3    H257759   3.603   4.328   1.083  3.4093  1.2849  0.6922
12090TIP3   OH257760   0.070   4.525   1.505  0.2801 -0.2647  0.2597
12090TIP3    H157761   0.152   4.476   1.514 -0.3382 -1.5999 -0.8124
12090TIP3    H257762   0.016   4.495   1.578  0.7468  0.6466  0.9906
12091TIP3   OH257763   0.857   2.674   1.173  0.4891 -0.3458 -0.3868
12091TIP3    H157764   0.929   2.734   1.187 -0.8267  1.1002  0.4835
12091TIP3    H257765   0.856   2.619   1.252  1.0379 -0.8271 -0.7076
12092TIP3   OH257766   0.377   3.050  16.715 -0.2815  0.5312  0.4049
12092TIP3    H157767   0.308   2.989  16.690 -0.9144  1.3554  0.1057
12092TIP3    H257768   0.331   3.122  16.757  0.5011  0.5995  1.1651
12093TIP3   OH257769   3.665   6.421   4.072  0.3626 -0.1346 -0.9953
12093TIP3    H157770   3.697   6.336   4.041 -0.8536 -0.7586 -0.5937
12093TIP3    H257771   3.668   6.476   3.994 -0.2193 -0.9704 -1.6386
12094TIP3   OH257772   2.334   4.427   3.962  0.2820  0.0961 -0.1969
12094TIP3    H157773   2.363   4.395   3.876  0.0608  0.9460 -0.6010
12094TIP3    H257774   2.239   4.421   3.959  0.1908  1.3953 -0.5453
12095TIP3   OH257775   6.026   2.923   0.028  0.3935 -0.2444 -0.0551
12095TIP3    H157776   6.031   2.940  -0.066 -0.0363 -1.7169 -0.3660
12095TIP3    H257777   5.989   2.835   0.035  1.7863 -0.7650  1.4604
12096TIP3   OH257778   5.719   1.850  12.204 -0.0113  0.2624  0.2531
12096TIP3    H157779   5.628   1.869  12.225 -0.0223  1.9319 -1.0694
12096TIP3    H257780   5.768   1.875  12.282 -0.3513  3.2205 -0.3443
12097TIP3   OH257781   1.683   3.834  15.675  0.0398 -0.5249  0.0824
12097TIP3    H157782   1.725   3.751  15.700  0.5729 -0.3711 -0.2727
12097TIP3    H257783   1.676   3.829  15.579  1.3615  0.4137 -0.0959
12098TIP3   OH257784   5.283   4.901   5.509  0.0960  1.0441 -0.3964
12098TIP3    H157785   5.263   4.860   5.593  1.0866 -1.5386 -1.3019
12098TIP3    H257786   5.351   4.965   5.529  0.3827  0.4014  0.7688
12099TIP3   OH257787   2.233   2.758  11.022  0.4019  0.1273  0.3140
12099TIP3    H157788   2.184   2.690  11.067 -1.4760  1.1307 -0.0954
12099TIP3    H257789   2.300   2.711  10.972 -1.0537 -1.4623 -0.2340
12100TIP3   OH257790   1.538   0.181   6.137 -0.0926 -0.2529  0.1057
12100TIP3    H157791   1.490   0.152   6.215 -1.2090  1.1983 -0.0122
12100TIP3    H257792   1.616   0.225   6.172 -0.4135  0.0861  0.4002
12101TIP3   OH257793   5.176   3.060   4.166  0.3167 -0.1098 -0.1122
12101TIP3    H157794   5.176   3.022   4.254  0.8367  0.3982  0.1170
12101TIP3    H257795   5.137   3.147   4.178 -1.6297 -0.8449 -0.7687
12102TIP3   OH257796   5.442   2.898  12.993 -0.3117 -0.5946 -0.0174
12102TIP3    H157797   5.489   2.919  13.073 -2.5749  2.2528  0.7730
12102TIP3    H257798   5.353   2.875  13.022 -1.2410  0.6677 -1.6424
12103TIP3   OH257799   3.029   5.401   1.092  0.2217  0.1684 -0.2451
12103TIP3    H157800   3.100   5.465   1.102 -0.4869  0.9291 -0.0303
12103TIP3    H257801   2.985   5.426   1.011 -0.1130  0.0021 -0.1164
12104TIP3   OH257802   1.308   4.000  14.194  0.3287  0.2703 -0.5739
12104TIP3    H157803   1.325   3.941  14.267  1.6244  2.8890  1.3949
12104TIP3    H257804   1.255   3.948  14.133  0.5844 -2.5534  1.4250
12105TIP3   OH257805   5.922   2.127  11.878  0.3568  0.2649  0.0850
12105TIP3    H157806   6.014   2.098  11.881  0.0464 -0.6335  2.3973
12105TIP3    H257807   5.877   2.058  11.829  1.0934  1.5502 -2.6498
12106TIP3   OH257808   6.180   6.102  14.731  0.5156 -0.0936 -0.1952
12106TIP3    H157809   6.265   6.086  14.690  0.8290 -1.1061  0.8061
12106TIP3    H257810   6.157   6.191  14.706  0.9918 -0.4512 -2.0096
12107TIP3   OH257811   0.134   4.445   2.220 -0.1558 -0.3125 -0.0533
12107TIP3    H157812   0.167   4.363   2.184 -1.1713 -1.2175  0.9985
12107TIP3    H257813   0.039   4.437   2.213 -0.2720  0.6662  0.3092
12108TIP3   OH257814   1.516   2.479   3.036  0.2214  0.1291 -0.1422
12108TIP3    H157815   1.513   2.536   3.112  1.1184  0.3215 -0.2492
12108TIP3    H257816   1.450   2.516   2.977 -1.8731 -1.1277  1.2644
12109TIP3   OH257817   6.845   6.421   2.119  0.0646 -0.1457 -0.6425
12109TIP3    H157818   6.821   6.365   2.045 -2.5050  1.1801 -0.9454
12109TIP3    H257819   6.927   6.462   2.093  0.2408 -1.2126 -1.8754
12110TIP3   OH257820   3.842   3.882   1.133 -0.0180  0.0985  0.2582
12110TIP3    H157821   3.753   3.851   1.154 -0.6849  1.0849 -0.9482
12110TIP3    H257822   3.835   3.977   1.133  0.1355  0.2469 -3.1181
12111TIP3   OH257823   5.305   3.023  13.536  0.1917  0.2452  0.0958
12111TIP3    H157824   5.285   3.116  13.527 -0.3585  0.2361  1.0949
12111TIP3    H257825   5.221   2.979  13.527  0.3768 -0.1215  0.1292
12112TIP3   OH257826   5.998   1.454  12.483  0.2848 -0.0334  0.0211
12112TIP3    H157827   5.935   1.386  12.458 -0.2577  0.6785 -0.5920
12112TIP3    H257828   5.995   1.517  12.411 -0.9855  1.8738  1.6201
12113TIP3   OH257829   5.531   6.807  11.300  0.6913 -0.4629  0.7132
12113TIP3    H157830   5.448   6.845  11.328 -0.3848  1.3131 -3.9738
12113TIP3    H257831   5.589   6.883  11.288  1.5900 -1.2422 -0.0037
12114TIP3   OH257832   1.638   0.240  15.335 -0.0525 -0.8879  0.0886
12114TIP3    H157833   1.604   0.202  15.416 -1.6499  1.3720  0.5814
12114TIP3    H257834   1.587   0.320  15.323  1.1923 -0.3713 -2.3587
12115TIP3   OH257835   3.276   0.465  11.097  0.2328 -0.5404 -0.7284
12115TIP3    H157836   3.307   0.531  11.036 -2.1807  1.6630  0.2168
12115TIP3    H257837   3.200   0.426  11.054  1.4107 -2.5528 -1.1178
12116TIP3   OH257838   6.548   0.282   0.563  0.6051 -0.0560 -0.0131
12116TIP3    H157839   6.584   0.349   0.505 -3.8829  1.7720 -1.0742
12116TIP3    H257840   6.530   0.208   0.505  0.3010  0.0274 -0.0261
12117TIP3   OH257841   3.604   0.712  12.326 -0.4288  0.1997  0.0634
12117TIP3    H157842   3.650   0.791  12.354 -1.3476  0.2832  1.4158
12117TIP3    H257843   3.588   0.726  12.233  0.1468  1.2328  0.1007
12118TIP3   OH257844   1.440   0.750  11.964 -0.3766  0.1397  0.1017
12118TIP3    H157845   1.507   0.779  12.026 -0.0282  1.8552 -1.0177
12118TIP3    H257846   1.469   0.663  11.936 -0.1912 -0.3856  1.7997
12119TIP3   OH257847   3.996   1.442  14.112  0.3751 -0.2175 -0.2398
12119TIP3    H157848   3.969   1.532  14.091  1.5877 -0.4832 -3.4949
12119TIP3    H257849   4.091   1.442  14.096  0.3362 -2.1517 -0.6152
12120TIP3   OH257850   4.529   3.379  15.804  0.0347  0.0946  0.5004
12120TIP3    H157851   4.620   3.364  15.777 -0.2760 -0.4917 -0.2691
12120TIP3    H257852   4.498   3.447  15.744  0.1880  0.8747  1.2781
12121TIP3   OH257853   4.430   0.731  16.793 -0.0608  0.1532  0.0006
12121TIP3    H157854   4.396   0.730  16.704 -1.0293  0.2920  0.3570
12121TIP3    H257855   4.425   0.823  16.820  1.5612  0.3568 -0.2787
12122TIP3   OH257856   6.058   6.035  14.969  0.4492  0.1924  0.1520
12122TIP3    H157857   6.099   6.041  14.883  0.1898 -1.2321 -0.0882
12122TIP3    H257858   6.056   5.942  14.989 -1.6331  0.2875  0.6566
12123TIP3   OH257859   0.263   3.914   1.013 -0.1769 -0.0129  0.0313
12123TIP3    H157860   0.169   3.916   0.998 -0.0741 -0.2292 -0.6728
12123TIP3    H257861   0.285   4.003   1.040 -0.6963 -0.1534  0.9415
12124TIP3   OH257862   6.497   4.590   2.209  0.4931  0.3024 -0.2084
12124TIP3    H157863   6.479   4.625   2.296  0.1502  0.0518 -0.1760
12124TIP3    H257864   6.463   4.657   2.149  1.0686  0.6502 -0.1584
12125TIP3   OH257865   3.290   2.458  13.517  0.1108 -0.5655 -0.1076
12125TIP3    H157866   3.274   2.364  13.521  1.5141 -0.7821  2.4533
12125TIP3    H257867   3.203   2.497  13.508 -0.5504 -2.0777 -0.5266
12126TIP3   OH257868   4.086   5.557  14.242 -0.2686 -0.6006 -0.0384
12126TIP3    H157869   4.007   5.587  14.286 -0.8883 -1.1260 -0.7736
12126TIP3    H257870   4.096   5.466  14.271 -0.0414 -0.5943 -0.0972
12127TIP3   OH257871   0.632   5.122  16.311 -0.1782  0.4509 -0.1899
12127TIP3    H157872   0.671   5.210  16.307  1.8866 -0.3880  0.5372
12127TIP3    H257873   0.562   5.131  16.375  0.0338  1.5643 -0.0828
12128TIP3   OH257874   4.004   1.668   2.797 -0.1936  0.0220 -0.2045
12128TIP3    H157875   3.981   1.577   2.774 -0.9979  0.2555 -0.3707
12128TIP3    H257876   3.998   1.716   2.715  2.4237 -0.1590 -0.5737
12129TIP3   OH257877   1.548   4.447   0.581  0.3457  0.1518 -0.3019
12129TIP3    H157878   1.624   4.460   0.638 -0.1709 -0.8675  0.6588
12129TIP3    H257879   1.473   4.471   0.635 -0.2621 -2.1359 -0.0264
12130TIP3   OH257880   3.864   6.141  12.474 -0.4473 -0.8262 -0.4118
12130TIP3    H157881   3.872   6.228  12.434 -3.2499  0.6646  1.8967
12130TIP3    H257882   3.802   6.094  12.419 -1.1317 -0.2840 -0.1165
12131TIP3   OH257883   3.864   5.799   6.508  0.0595  0.1384 -0.2502
12131TIP3    H157884   3.934   5.857   6.540 -0.4088  1.5559 -1.6509
12131TIP3    H257885   3.783   5.847   6.525 -0.2693  0.5357 -2.5541
12132TIP3   OH257886   6.861   4.073  14.187 -0.7537 -0.0841 -0.0975
12132TIP3    H157887   6.857   4.109  14.275  0.3401 -3.7139  1.6423
12132TIP3    H257888   6.954   4.057  14.171 -0.8817  0.8068 -2.1315
12133TIP3   OH257889   6.849   3.495   4.216  0.3891  0.0296  0.4753
12133TIP3    H157890   6.861   3.404   4.244 -1.3550 -0.7427 -1.0254
12133TIP3    H257891   6.854   3.546   4.297  2.8925 -1.1859  1.1710
12134TIP3   OH257892   4.738   5.563   4.238 -0.8448 -0.0045 -0.2527
12134TIP3    H157893   4.708   5.543   4.150 -1.7312  1.4898 -0.3352
12134TIP3    H257894   4.657   5.575   4.289 -0.4242  2.0223  0.0325
12135TIP3   OH257895   0.142   4.963   1.858  0.0608 -0.0019  0.3779
12135TIP3    H157896   0.054   4.956   1.821 -0.3846 -0.5795  1.5096
12135TIP3    H257897   0.196   4.907   1.802 -0.2024  0.6036 -0.5165
12136TIP3   OH257898   4.816   0.240   2.780 -0.5924  0.1912  0.3544
12136TIP3    H157899   4.887   0.235   2.845  0.1396 -1.2997 -0.5106
12136TIP3    H257900   4.860   0.266   2.699 -1.3333  1.0024  0.1971
12137TIP3   OH257901   1.411   0.472  11.671  0.1173  0.1400 -0.3234
12137TIP3    H157902   1.402   0.382  11.639  1.8390 -0.8341  1.6845
12137TIP3    H257903   1.369   0.525  11.604 -1.3198 -2.1723 -1.3940
12138TIP3   OH257904   2.748   0.960   3.641  0.4250  0.5525  0.4477
12138TIP3    H157905   2.789   0.966   3.727  0.4989  1.0148  0.3779
12138TIP3    H257906   2.785   0.880   3.603  1.6666  1.2330  0.1693
12139TIP3   OH257907   5.157   4.030   2.321  0.8460  0.5159 -0.3578
12139TIP3    H157908   5.143   4.112   2.369  1.3243  1.9507 -2.4996
12139TIP3    H257909   5.187   4.058   2.235  1.6906 -1.9787 -0.9574
12140TIP3   OH257910   3.686   5.911   5.281 -0.8019 -0.8809 -0.0125
12140TIP3    H157911   3.755   5.877   5.339  0.6956  0.7151 -0.8056
12140TIP3    H257912   3.730   5.929   5.198 -1.9927  0.8898 -0.3137
12141TIP3   OH257913   0.870   3.664   0.489 -0.4406 -0.0474  0.4002
12141TIP3    H157914   0.829   3.582   0.515 -0.8573  0.0896  0.1884
12141TIP3    H257915   0.953   3.638   0.448  0.4756 -0.2390  2.2750
12142TIP3   OH257916   6.755   4.883   1.791  0.2828 -0.1528 -0.2534
12142TIP3    H157917   6.721   4.815   1.732  0.7453 -0.0159 -0.6809
12142TIP3    H257918   6.709   4.868   1.873  2.7025 -3.1530  0.7749
12143TIP3   OH257919   3.243   4.408   0.464 -0.4108 -0.7820 -0.2708
12143TIP3    H157920   3.302   4.464   0.513  0.0391 -0.2328 -1.4082
12143TIP3    H257921   3.174   4.386   0.526 -0.1369  0.3220  0.4538
12144TIP3   OH257922   4.223   3.686  16.076  0.0240 -0.0980  0.4748
12144TIP3    H157923   4.310   3.724  16.066 -0.2020  0.2355 -0.3193
12144TIP3    H257924   4.219   3.618  16.009 -0.4310  0.0862  0.3130
12145TIP3   OH257925   4.715   5.108  16.023  0.3087  0.1266  0.3090
12145TIP3    H157926   4.692   5.027  15.977  0.2414 -0.1379  0.8001
12145TIP3    H257927   4.644   5.169  16.003 -0.1591 -0.2646  0.7565
12146TIP3   OH257928   5.413   0.216   3.595  0.4285 -0.1165 -0.4355
12146TIP3    H157929   5.508   0.225   3.597  0.5566 -1.3961  0.3429
12146TIP3    H257930   5.380   0.304   3.609  1.4783  0.5525 -1.9276
12147TIP3   OH257931   2.468   0.773   4.501  0.1648  0.5303  0.3249
12147TIP3    H157932   2.403   0.727   4.447 -0.6359  0.2871  1.4585
12147TIP3    H257933   2.416   0.829   4.559  1.0182  1.0303  0.6263
12148TIP3   OH257934   2.452   5.879  13.480  0.6657 -0.6259 -0.4920
12148TIP3    H157935   2.362   5.896  13.451  0.6880  0.7188  0.1312
12148TIP3    H257936   2.481   5.962  13.518  1.7586 -1.3873  0.4179
12149TIP3   OH257937   0.236   3.389  12.945  0.0417 -0.1265 -1.4764
12149TIP3    H157938   0.299   3.448  12.986  0.5683 -0.4852 -1.7456
12149TIP3    H257939   0.237   3.414  12.853  0.0910 -0.3994 -1.5502
12150TIP3   OH257940   2.411   2.216   3.740 -0.1460  0.0659  0.1296
12150TIP3    H157941   2.383   2.239   3.651 -0.5325 -1.6022 -0.2099
12150TIP3    H257942   2.468   2.141   3.728  0.6555  0.4813  1.2308
12151TIP3   OH257943   1.765   2.791   0.955 -0.0071  0.4046  0.0120
12151TIP3    H157944   1.734   2.754   1.038  0.0438  1.0488  0.3238
12151TIP3    H257945   1.839   2.735   0.930 -0.0167  0.2146  0.4061
12152TIP3   OH257946   1.070   6.352   5.336 -0.3982  0.4506 -0.0877
12152TIP3    H157947   1.015   6.364   5.414  0.5125  0.5337  0.5574
12152TIP3    H257948   1.077   6.257   5.327  1.2834  0.3954  1.2647
12153TIP3   OH257949   2.887   5.771   0.680 -0.3716 -0.5291  0.6487
12153TIP3    H157950   2.953   5.787   0.613 -1.7129 -0.2222 -0.6499
12153TIP3    H257951   2.804   5.767   0.632 -1.6539  1.7331  2.4674
12154TIP3   OH257952   0.849   5.793   4.358  0.0982  0.0313 -0.3132
12154TIP3    H157953   0.869   5.873   4.408 -0.2090 -0.7696  1.1691
12154TIP3    H257954   0.756   5.799   4.338  0.1536  0.2096 -0.5186
12155TIP3   OH257955   3.100   2.183  14.047  0.6231 -0.3476 -0.0457
12155TIP3    H157956   3.020   2.234  14.043  1.3919  0.9610  0.4784
12155TIP3    H257957   3.074   2.101  14.088 -0.8084 -0.7563 -1.6618
12156TIP3   OH257958   4.886   4.171   3.547 -0.3568 -0.2646 -0.1590
12156TIP3    H157959   4.980   4.181   3.529 -0.8253  3.2315 -1.4213
12156TIP3    H257960   4.883   4.117   3.626  2.5173 -3.0835 -1.7139
12157TIP3   OH257961   4.635   3.040   3.750  0.2807  0.2228  0.0020
12157TIP3    H157962   4.578   3.083   3.814 -0.4634 -0.0721 -0.4536
12157TIP3    H257963   4.634   2.948   3.775  0.5503  0.2163 -0.0122
12158TIP3   OH257964   6.384   0.219   1.298 -0.3953  0.3271 -1.0240
12158TIP3    H157965   6.381   0.190   1.207  0.1329  0.1089 -0.9768
12158TIP3    H257966   6.344   0.306   1.297  0.3889  0.6872 -1.6083
12159TIP3   OH257967   2.168   1.819   6.093  0.5115 -0.5258 -0.1942
12159TIP3    H157968   2.218   1.896   6.065  1.4162 -1.5714 -1.6078
12159TIP3    H257969   2.204   1.796   6.179  0.1776  0.6497  0.2770
12160TIP3   OH257970   1.397   2.742   3.759 -0.3373 -0.1130  0.0647
12160TIP3    H157971   1.332   2.743   3.830  0.1849 -1.8458  0.6121
12160TIP3    H257972   1.365   2.675   3.699  0.5110 -0.3937 -0.0821
12161TIP3   OH257973   2.033   3.291  14.765  0.2394 -0.1009  0.1839
12161TIP3    H157974   2.041   3.366  14.706 -0.4646  0.1002  0.3350
12161TIP3    H257975   1.939   3.283  14.781  0.3160 -0.9561  0.2505
12162TIP3   OH257976   3.437   5.632  11.256  0.8482  0.0079  0.0145
12162TIP3    H157977   3.495   5.674  11.321  1.1377 -1.5006  0.7766
12162TIP3    H257978   3.351   5.631  11.298  0.8285 -0.0954 -0.0292
12163TIP3   OH257979   6.734   2.304  11.799 -0.1114  0.3583  0.7135
12163TIP3    H157980   6.659   2.339  11.751 -0.5973 -3.2114 -1.5630
12163TIP3    H257981   6.807   2.310  11.737  0.1689 -0.9034  0.8862
12164TIP3   OH257982   2.786   5.515  12.700 -0.0991 -0.0509 -0.6331
12164TIP3    H157983   2.743   5.592  12.736 -1.0319  0.1598 -2.1237
12164TIP3    H257984   2.828   5.546  12.619 -1.5451 -1.3059 -1.9381
12165TIP3   OH257985   3.671   2.063  13.590 -0.5948  0.6469 -0.3188
12165TIP3    H157986   3.581   2.041  13.563 -1.0559  1.0887  0.8026
12165TIP3    H257987   3.726   2.021  13.524 -1.5690 -0.8436 -0.2311
12166TIP3   OH257988   3.731   0.219   2.260  0.1301  0.4736 -0.1698
12166TIP3    H157989   3.708   0.312   2.255  0.0190  0.4807  0.3827
12166TIP3    H257990   3.687   0.179   2.186 -0.6315  0.7019  0.1499
12167TIP3   OH257991   4.969   3.626   3.335 -0.3216  0.1357 -0.1758
12167TIP3    H157992   4.971   3.543   3.287  3.9359 -1.1548  1.6972
12167TIP3    H257993   5.051   3.669   3.312 -0.3728  1.7244  2.2295
12168TIP3   OH257994   2.366   1.273   1.479 -0.7505 -0.7512  0.1574
12168TIP3    H157995   2.349   1.367   1.479 -1.8289 -0.9196 -0.6268
12168TIP3    H257996   2.384   1.252   1.571  1.1412  0.4588  0.1237
12169TIP3   OH257997   3.100   2.343   2.875  0.1532  0.8380 -0.0315
12169TIP3    H157998   3.087   2.292   2.955 -1.5395  1.1564 -0.0721
12169TIP3    H257999   3.120   2.431   2.905  0.1455  0.8174  0.0341
12170TIP3   OH258000   1.500   1.003  13.024 -0.4917 -0.2252  0.3418
12170TIP3    H158001   1.465   0.917  13.048 -0.2442 -0.6208 -0.6723
12170TIP3    H258002   1.422   1.059  13.018 -0.8810 -0.8679 -0.9381
12171TIP3   OH258003   2.318   2.282  15.132  0.3638 -0.2707  0.1244
12171TIP3    H158004   2.350   2.227  15.060 -0.9944 -2.0097  0.7494
12171TIP3    H258005   2.352   2.240  15.211  1.0351  1.0520  0.5503
12172TIP3   OH258006   6.247   5.922  15.273  0.9044  0.2074  0.0069
12172TIP3    H158007   6.156   5.947  15.284  0.5144  0.8185 -3.3249
12172TIP3    H258008   6.296   6.003  15.285  0.4873  0.8860 -2.2279
12173TIP3   OH258009   1.491   0.610   4.228 -0.4378 -0.1048 -0.3047
12173TIP3    H158010   1.433   0.637   4.299 -2.8586 -1.1435 -1.7661
12173TIP3    H258011   1.510   0.518   4.246 -0.5176 -0.1912 -0.6469
12174TIP3   OH258012   3.845   3.976   4.401 -0.3354 -0.2522 -0.5955
12174TIP3    H158013   3.763   3.928   4.404  1.4258 -3.5473 -0.6031
12174TIP3    H258014   3.890   3.953   4.483  1.6744 -0.7930 -1.7678
12175TIP3   OH258015   1.845   5.234  11.961  0.4629  0.1576 -0.1507
12175TIP3    H158016   1.919   5.173  11.950  0.5019  0.4368 -1.7145
12175TIP3    H258017   1.780   5.203  11.897 -0.4024  0.4634  0.5744
12176TIP3   OH258018   3.218   1.546  11.314  0.1629 -0.4660  0.1653
12176TIP3    H158019   3.269   1.580  11.240 -0.9351 -0.7180 -0.7307
12176TIP3    H258020   3.193   1.624  11.364 -2.4667  0.1969 -1.9599
12177TIP3   OH258021   3.181   1.568  12.412  0.0246  0.3520  0.1700
12177TIP3    H158022   3.242   1.570  12.338 -0.8706  0.4453 -0.5800
12177TIP3    H258023   3.238   1.560  12.489  0.9840  0.4823 -0.5001
12178TIP3   OH258024   4.420   2.091  12.509 -0.0693  0.6619  0.3084
12178TIP3    H158025   4.404   1.998  12.491 -0.3355  0.4565  1.5380
12178TIP3    H258026   4.488   2.116  12.446 -0.6480 -0.1166 -0.6561
12179TIP3   OH258027   6.510   0.553  16.723  0.5928 -0.1259  0.0450
12179TIP3    H158028   6.426   0.570  16.680  0.6131 -0.3587 -0.0909
12179TIP3    H258029   6.575   0.568  16.654  0.8022  1.7676  0.6022
12180TIP3   OH258030   3.268   3.830   1.359 -0.5006 -0.5469  0.0923
12180TIP3    H158031   3.250   3.898   1.294 -1.1600 -0.9384 -0.1456
12180TIP3    H258032   3.296   3.877   1.437  1.0084 -0.0816 -0.6707
12181TIP3   OH258033   5.624   2.330  14.881 -0.0170  0.5013  0.0949
12181TIP3    H158034   5.528   2.329  14.883 -0.0277  0.8792 -0.1144
12181TIP3    H258035   5.647   2.252  14.830 -0.2518  0.9979 -0.7969
12182TIP3   OH258036   5.402   3.090  17.011  0.5143 -0.8573 -0.2904
12182TIP3    H158037   5.456   3.083  17.090 -0.6208  0.4156  0.6351
12182TIP3    H258038   5.381   3.183  17.004  0.7661 -0.9064 -2.2366
12183TIP3   OH258039   6.322   6.817  12.417  0.3800 -0.5166 -0.4885
12183TIP3    H158040   6.304   6.726  12.441 -2.4740 -0.3106 -1.4789
12183TIP3    H258041   6.363   6.811  12.331  1.1987 -0.8879 -0.0802
12184TIP3   OH258042   1.426   0.363  14.166 -0.4897  0.0498 -0.1282
12184TIP3    H158043   1.368   0.439  14.163 -1.6673 -0.8346 -0.6768
12184TIP3    H258044   1.428   0.331  14.076  0.8708  0.0540 -0.1152
12185TIP3   OH258045   2.598   5.841   5.087  0.1103  0.1814 -0.3524
12185TIP3    H158046   2.618   5.764   5.035  0.6262  0.2726 -0.2949
12185TIP3    H258047   2.594   5.913   5.024  0.4325  0.2405 -0.3079
12186TIP3   OH258048   6.657   6.190  16.916 -0.0233 -0.1236 -0.1984
12186TIP3    H158049   6.713   6.244  16.861  1.9971 -1.0736  0.8406
12186TIP3    H258050   6.662   6.231  17.003 -1.3702  0.0530 -0.1730
12187TIP3   OH258051   0.509   4.762  12.416  0.3719  0.2491 -0.6794
12187TIP3    H158052   0.491   4.739  12.324 -1.4025  1.6947 -0.7431
12187TIP3    H258053   0.460   4.843  12.431  0.6809  0.0909  1.5396
12188TIP3   OH258054   0.113   2.420   4.632 -0.3384  0.6636 -0.2242
12188TIP3    H158055   0.088   2.413   4.724 -0.2419  0.7525 -0.1919
12188TIP3    H258056   0.194   2.370   4.626 -0.7722 -0.0244 -0.4257
12189TIP3   OH258057   6.390   6.061   5.378 -0.3131  0.2227  0.5987
12189TIP3    H158058   6.371   6.098   5.292 -1.8824 -0.9484  0.3969
12189TIP3    H258059   6.484   6.042   5.375 -0.2374  0.6760 -0.6546
12190TIP3   OH258060   1.112   0.871   3.297  0.1651  0.1968 -0.2612
12190TIP3    H158061   1.120   0.927   3.374  0.1268  0.1852 -0.2488
12190TIP3    H258062   1.198   0.829   3.289  0.0503 -0.0935 -0.0010
12191TIP3   OH258063   5.180   1.942   5.722  0.0622  0.1503  0.0043
12191TIP3    H158064   5.100   1.994   5.731  0.2874  0.6373 -0.7730
12191TIP3    H258065   5.182   1.917   5.630 -0.1763 -1.4796  0.4022
12192TIP3   OH258066   4.423   1.583  13.579 -0.0116 -0.4658  0.3985
12192TIP3    H158067   4.421   1.679  13.574  0.0580 -0.4875 -0.0911
12192TIP3    H258068   4.511   1.562  13.609  0.6466 -0.4388 -1.3491
12193TIP3   OH258069   5.374   1.742   4.809  0.5992 -0.0772  0.1693
12193TIP3    H158070   5.329   1.813   4.764  1.5445  0.2757 -0.2444
12193TIP3    H258071   5.455   1.782   4.842  0.7226 -0.7468  0.7066
12194TIP3   OH258072   5.094   5.311   4.872  0.0882 -0.0108 -0.1614
12194TIP3    H158073   5.007   5.343   4.896  0.9725  2.1528  0.3532
12194TIP3    H258074   5.107   5.341   4.782  0.6628  0.4708  0.0813
12195TIP3   OH258075   2.671   3.766  11.916 -0.1919 -0.3639 -0.3181
12195TIP3    H158076   2.714   3.849  11.897 -0.8509  0.0203 -0.1380
12195TIP3    H258077   2.671   3.761  12.012 -1.9619  0.3967 -0.2502
12196TIP3   OH258078   3.421   0.861   5.980 -0.1985  0.2073  0.0119
12196TIP3    H158079   3.328   0.841   5.994 -0.5667  0.4237 -1.8641
12196TIP3    H258080   3.428   0.955   6.000 -0.2099  0.0350  0.8670
12197TIP3   OH258081   3.012   4.580  14.624  0.1189  0.0779  0.1563
12197TIP3    H158082   2.966   4.663  14.616 -0.0348 -0.0965 -0.8499
12197TIP3    H258083   3.062   4.571  14.543  0.6333 -0.5165  0.5238
12198TIP3   OH258084   0.026   1.922   0.818 -0.3647 -0.1308  0.0721
12198TIP3    H158085  -0.035   1.849   0.807  0.0575 -0.7466  1.6371
12198TIP3    H258086   0.109   1.880   0.844  0.0918  0.8539  0.2368
12199TIP3   OH258087   5.366   1.440  16.824 -0.0162 -0.4696  0.0189
12199TIP3    H158088   5.407   1.394  16.751  1.6432  0.6545  0.1813
12199TIP3    H258089   5.378   1.533  16.803  1.7165 -0.0712  2.2780
12200TIP3   OH258090   5.868   3.300   5.000  0.0416 -0.1904 -0.4484
12200TIP3    H158091   5.882   3.257   4.916  2.4091  1.5605 -1.0734
12200TIP3    H258092   5.773   3.297   5.013 -0.1693 -2.6381 -1.9528
12201TIP3   OH258093   0.346   5.554  14.464 -0.4339 -0.2710  0.3927
12201TIP3    H158094   0.322   5.472  14.422 -0.8506 -0.7337  1.5120
12201TIP3    H258095   0.353   5.616  14.391  1.7721 -1.6802 -0.7035
12202TIP3   OH258096   0.063   2.713  12.241 -0.0921 -0.1709  0.2651
12202TIP3    H158097   0.050   2.781  12.307 -0.3368 -0.6859  0.7616
12202TIP3    H258098  -0.022   2.670  12.233 -0.3215  0.4946 -1.0929
12203TIP3   OH258099   4.789   3.482  14.495  0.4225  0.0671  0.2908
12203TIP3    H158100   4.832   3.396  14.491  0.2104 -0.0170 -0.2738
12203TIP3    H258101   4.702   3.463  14.533 -0.1657 -0.1995 -1.1260
12204TIP3   OH258102   4.342   3.562  13.284 -0.5753 -0.1141 -0.2268
12204TIP3    H158103   4.415   3.567  13.346 -0.7848 -0.6282  0.0639
12204TIP3    H258104   4.327   3.469  13.272 -0.0464 -0.0348 -1.6465
12205TIP3   OH258105   2.092   3.007  11.180  0.4849 -0.4463 -0.6624
12205TIP3    H158106   2.161   2.962  11.131  0.4051  1.9431 -3.2468
12205TIP3    H258107   2.036   3.045  11.112 -1.2579  0.8029  1.3590
12206TIP3   OH258108   1.923   2.530   1.225 -0.4614 -0.0848  0.3823
12206TIP3    H158109   1.968   2.614   1.221  0.6039 -0.6809 -1.0548
12206TIP3    H258110   1.984   2.472   1.270 -0.9392 -0.2440  0.8307
12207TIP3   OH258111   4.486   5.456  12.163 -0.0589 -0.1348  0.0110
12207TIP3    H158112   4.397   5.443  12.197 -0.8296  1.5642 -1.2242
12207TIP3    H258113   4.478   5.440  12.069  0.6864  1.0861 -0.2796
12208TIP3   OH258114   1.624   4.804  14.492  0.4433  0.3813  0.0392
12208TIP3    H158115   1.717   4.792  14.508  0.1119 -0.0649  1.7492
12208TIP3    H258116   1.619   4.886  14.442  1.8736 -0.6531 -1.9300
12209TIP3   OH258117   5.798   3.748   1.993 -0.8817 -0.2861 -0.0246
12209TIP3    H158118   5.736   3.699   1.938 -3.8365  1.8356  1.1372
12209TIP3    H258119   5.766   3.735   2.082  0.3798  0.8758  0.6299
12210TIP3   OH258120   5.113   4.179   6.029  0.5036 -0.2038  0.1400
12210TIP3    H158121   5.172   4.182   6.105 -0.5660  0.3471  0.9823
12210TIP3    H258122   5.030   4.213   6.062 -0.5270 -1.6803 -0.7955
12211TIP3   OH258123   6.182   3.598   3.378  0.0284 -0.3139 -0.2834
12211TIP3    H158124   6.230   3.518   3.357 -0.6744 -0.6032 -0.7965
12211TIP3    H258125   6.248   3.656   3.416  1.0928 -0.2058 -2.1945
12212TIP3   OH258126   0.337   1.967  11.776  0.1019  0.1116 -0.5368
12212TIP3    H158127   0.332   1.871  11.781 -0.6552  0.1916  0.4932
12212TIP3    H258128   0.322   1.986  11.683 -0.6613 -0.7238 -0.5999
12213TIP3   OH258129   2.301   4.939   5.878  0.0920 -0.2527  0.5818
12213TIP3    H158130   2.347   4.964   5.958  0.0646 -0.8891  0.8017
12213TIP3    H258131   2.232   4.880   5.908  0.2003 -0.6447  0.0718
12214TIP3   OH258132   2.415   0.835  17.039 -0.4410  0.0046  0.3613
12214TIP3    H158133   2.353   0.886  17.092 -0.4245  0.7860 -0.3499
12214TIP3    H258134   2.469   0.901  16.996  1.0835 -0.6647  1.1726
12215TIP3   OH258135   3.798   6.316   2.193 -0.0079 -0.3456 -0.1686
12215TIP3    H158136   3.839   6.230   2.186 -0.4668 -0.9106  2.8007
12215TIP3    H258137   3.864   6.370   2.238 -0.0822  0.6051 -1.1710
12216TIP3   OH258138   1.799   3.111   1.748  0.3931 -0.0146  0.0287
12216TIP3    H158139   1.835   3.155   1.824 -0.0865 -0.0478  0.2818
12216TIP3    H258140   1.746   3.040   1.784  0.0394  0.0628 -0.3250
12217TIP3   OH258141   6.549   5.499   5.549 -0.0914 -0.1216 -0.4822
12217TIP3    H158142   6.620   5.497   5.485  2.0175  1.4241  1.6602
12217TIP3    H258143   6.539   5.591   5.572 -1.4772 -0.5259  0.7090
12218TIP3   OH258144   1.123   6.187   5.710  0.4348 -0.6247  0.4852
12218TIP3    H158145   1.099   6.118   5.649 -1.2934 -0.1671  0.5995
12218TIP3    H258146   1.180   6.143   5.774  2.0954 -1.1505 -1.2629
12219TIP3   OH258147   2.309   4.347  14.610  0.7030 -1.0287 -0.4924
12219TIP3    H158148   2.275   4.318  14.695 -1.0590 -0.5417 -1.0079
12219TIP3    H258149   2.404   4.336  14.618  0.7843  0.6310  2.1844
12220TIP3   OH258150   4.887   6.220   5.566 -0.1328  0.4118  0.1706
12220TIP3    H158151   4.835   6.144   5.594 -0.2508  0.2571 -0.4376
12220TIP3    H258152   4.903   6.269   5.646 -0.5890  0.0673  0.4829
12221TIP3   OH258153   2.251   2.187   5.115 -0.3083 -0.3192 -0.3762
12221TIP3    H158154   2.214   2.099   5.109  1.2731 -0.9322 -2.4145
12221TIP3    H258155   2.325   2.178   5.175  2.2703 -1.4489 -3.4479
12222TIP3   OH258156   1.215   3.038  12.866  0.0367  0.2962  0.6103
12222TIP3    H158157   1.292   3.009  12.816 -0.0145  0.4081  0.4656
12222TIP3    H258158   1.238   3.022  12.957  0.7346  1.5168  0.6625
12223TIP3   OH258159   2.018   0.999  12.235 -0.7031 -0.0485 -0.4627
12223TIP3    H158160   2.038   0.923  12.290  0.1744  1.4159  1.3337
12223TIP3    H258161   2.102   1.043  12.222 -0.8172 -0.4675 -3.3111
12224TIP3   OH258162   6.733   2.121  12.696 -0.5096 -0.1398 -0.6458
12224TIP3    H158163   6.717   2.215  12.686 -0.2915 -0.0848 -0.4661
12224TIP3    H258164   6.822   2.115  12.730 -0.5043 -0.4145 -0.7070
12225TIP3   OH258165   0.973   0.900  12.704  0.2956 -0.2316  0.1973
12225TIP3    H158166   1.008   0.818  12.668  0.8095 -0.2627  0.7538
12225TIP3    H258167   0.904   0.872  12.764  0.7156 -0.2829  0.6630
12226TIP3   OH258168   0.695   0.834  15.106 -0.4730  0.2233 -0.0921
12226TIP3    H158169   0.781   0.832  15.148 -0.4527  0.7136 -0.1035
12226TIP3    H258170   0.706   0.785  15.025 -0.4154 -0.4143  0.2980
12227TIP3   OH258171   2.685   0.617   5.711 -0.6088 -0.7985  0.1981
12227TIP3    H158172   2.716   0.668   5.786 -1.0843 -0.1297 -0.0554
12227TIP3    H258173   2.758   0.617   5.650 -0.6198 -0.3926  0.1854
12228TIP3   OH258174   1.241   2.034  16.340  0.3711  0.0976 -0.7922
12228TIP3    H158175   1.270   1.945  16.362 -0.6118  0.2771  1.4158
12228TIP3    H258176   1.167   2.021  16.281  0.9417 -0.5100 -1.3881
12229TIP3   OH258177   1.834   5.599  12.672 -0.0870  0.6686  0.2771
12229TIP3    H158178   1.923   5.570  12.694 -0.1932  0.1748  0.0808
12229TIP3    H258179   1.777   5.534  12.715 -0.2846 -1.5172 -2.9575
12230TIP3   OH258180   5.951   0.784  11.601  0.4572  0.3670 -0.0095
12230TIP3    H158181   5.886   0.854  11.608 -0.1872 -0.4029  2.7086
12230TIP3    H258182   5.901   0.706  11.578  0.3569 -0.1654  1.8126
12231TIP3   OH258183   0.347   0.678   6.132  0.3102  0.0443 -0.3400
12231TIP3    H158184   0.262   0.722   6.123 -0.9350 -1.8116  1.4752
12231TIP3    H258185   0.399   0.738   6.187 -0.7603  0.0541  0.7048
12232TIP3   OH258186   4.601   5.508  12.423 -0.6732  0.3431 -0.3942
12232TIP3    H158187   4.566   5.486  12.337 -0.2966 -2.0580 -0.0153
12232TIP3    H258188   4.526   5.501  12.482 -0.5153 -0.0794 -0.2417
12233TIP3   OH258189   2.405   6.742  12.699  0.4884 -0.0652 -0.4144
12233TIP3    H158190   2.394   6.680  12.771 -0.6449  0.8061  0.2110
12233TIP3    H258191   2.330   6.802  12.707  1.5132  1.3649 -1.0085
12234TIP3   OH258192   4.489   4.604   0.325  0.2194  0.0796  0.4571
12234TIP3    H158193   4.408   4.608   0.375  0.3132  1.1550  0.5292
12234TIP3    H258194   4.532   4.524   0.356 -0.8958 -0.6245  0.2657
12235TIP3   OH258195   5.884   5.472  11.881 -0.1490  0.7306  0.2875
12235TIP3    H158196   5.942   5.522  11.938 -0.5617 -0.0841  1.4547
12235TIP3    H258197   5.797   5.483  11.919 -0.2562 -0.8305  0.5856
12236TIP3   OH258198   3.009   3.549   3.899 -0.8222 -0.5204 -0.1540
12236TIP3    H158199   2.941   3.615   3.881  1.7637  1.6100 -3.4996
12236TIP3    H258200   3.021   3.504   3.815  2.9947  0.5264 -0.3887
12237TIP3   OH258201   2.174   3.311   0.235 -0.1916 -0.2911 -0.0146
12237TIP3    H158202   2.221   3.341   0.313 -1.8829  1.8224  0.2961
12237TIP3    H258203   2.082   3.314   0.259 -0.7580  0.2394 -2.0200
12238TIP3   OH258204   0.587   0.809  13.303 -0.7441  0.3748 -0.1347
12238TIP3    H158205   0.497   0.817  13.334 -1.0344 -1.7931 -0.2699
12238TIP3    H258206   0.580   0.764  13.219  0.5135 -1.1165  0.5079
12239TIP3   OH258207   2.937   3.632  14.440  0.8762 -0.3609  0.0253
12239TIP3    H158208   2.970   3.633  14.350  0.4032 -0.1681 -0.1483
12239TIP3    H258209   2.845   3.658  14.432  1.0436  0.4566  0.6567
12240TIP3   OH258210   1.463   4.693   5.885 -0.1009 -0.0248 -0.1809
12240TIP3    H158211   1.433   4.760   5.946 -0.0331 -0.8378  0.7613
12240TIP3    H258212   1.473   4.614   5.938  2.5320 -0.1253 -0.6868
12241TIP3   OH258213   0.795   4.329  13.314 -0.0135  0.4131  0.1928
12241TIP3    H158214   0.861   4.326  13.384  1.8404 -0.2947 -1.4867
12241TIP3    H258215   0.843   4.364  13.238 -1.6205 -0.0258 -1.0679
12242TIP3   OH258216   2.754   2.357  11.414 -0.0257 -0.1498 -0.3353
12242TIP3    H158217   2.716   2.269  11.416  1.0117 -0.6326 -1.2117
12242TIP3    H258218   2.715   2.397  11.337 -0.0234 -0.0598 -0.2888
12243TIP3   OH258219   3.530   0.064  11.110 -0.2511 -0.0629 -0.2802
12243TIP3    H158220   3.495   0.136  11.162  1.9953  0.6343  0.3824
12243TIP3    H258221   3.573   0.106  11.035  2.1801 -0.4995  0.7581
12244TIP3   OH258222   4.669   0.765  15.562  0.3778 -0.4245 -0.2232
12244TIP3    H158223   4.640   0.699  15.498  1.1697 -1.3001  0.3033
12244TIP3    H258224   4.697   0.840  15.509 -2.2964  0.2764 -0.7843
12245TIP3   OH258225   3.666   2.288   0.671 -0.0263  0.6657  0.0488
12245TIP3    H158226   3.682   2.354   0.738  0.8405 -0.2544  0.7752
12245TIP3    H258227   3.628   2.214   0.719  0.9987 -0.1665 -0.3729
12246TIP3   OH258228   4.390   3.466  11.576  0.3209  0.0161  0.3508
12246TIP3    H158229   4.428   3.378  11.586 -2.0034 -1.1421 -0.3418
12246TIP3    H258230   4.320   3.469  11.642  1.0905  1.8354  1.1566
12247TIP3   OH258231   6.863   4.984   5.823 -0.5041  0.3919  0.7320
12247TIP3    H158232   6.928   5.053   5.815 -0.3826  0.2801  0.7488
12247TIP3    H258233   6.879   4.945   5.909 -0.7162  0.4886  0.8162
12248TIP3   OH258234   6.011   2.430   0.222 -0.3754  0.1800  0.0477
12248TIP3    H158235   6.085   2.466   0.271 -0.5554  0.4803  0.1062
12248TIP3    H258236   6.013   2.336   0.241  0.0742  0.1628 -0.0667
12249TIP3   OH258237   4.794   0.013  11.415  0.6192  0.1986 -0.0624
12249TIP3    H158238   4.840  -0.042  11.352 -0.9385 -2.1054  0.6790
12249TIP3    H258239   4.796  -0.037  11.497 -1.2691  0.9706  0.5235
12250TIP3   OH258240   1.652   1.609   4.811  0.3095  0.4967 -0.4075
12250TIP3    H158241   1.591   1.682   4.802  1.0016  1.1565  0.0850
12250TIP3    H258242   1.713   1.621   4.738 -0.1394 -0.1665 -0.9040
12251TIP3   OH258243   2.707   0.194  10.729  0.7533  0.6706  0.5761
12251TIP3    H158244   2.794   0.164  10.702  0.1480 -0.1882 -0.5004
12251TIP3    H258245   2.647   0.132  10.688 -0.3530  0.8974  1.7903
12252TIP3   OH258246   3.241   6.429  13.211 -0.4499  0.8603 -0.3887
12252TIP3    H158247   3.282   6.374  13.143  3.6060  0.3896  2.1041
12252TIP3    H258248   3.232   6.371  13.286 -3.3455  1.7823  0.0853
12253TIP3   OH258249   0.034   4.401  12.535  0.0022  0.6513 -0.3872
12253TIP3    H158250   0.102   4.458  12.571  0.7294  0.3536 -1.2294
12253TIP3    H258251   0.061   4.388  12.443 -0.7100 -0.2008 -0.4859
12254TIP3   OH258252   2.203   1.019   4.714  0.0870  0.0303  0.0062
12254TIP3    H158253   2.256   1.088   4.675  1.1545  0.6103  2.3129
12254TIP3    H258254   2.183   1.052   4.802 -1.5037 -1.5409  0.2849
12255TIP3   OH258255   3.209   5.621   1.119  0.5266  0.5186 -0.2342
12255TIP3    H158256   3.281   5.559   1.111 -0.9219 -1.1198 -1.1420
12255TIP3    H258257   3.188   5.645   1.029 -0.4106  0.5599 -0.0101
12256TIP3   OH258258   3.166   2.948  14.412 -0.1425  0.2458 -0.1513
12256TIP3    H158259   3.254   2.961  14.375 -0.0800  0.9115  0.2198
12256TIP3    H258260   3.178   2.957  14.506 -0.3710 -1.0724  0.0230
12257TIP3   OH258261   1.014   1.648   4.191  0.1078 -0.1952  0.0076
12257TIP3    H158262   1.096   1.660   4.142  0.6349  0.0618  0.9405
12257TIP3    H258263   1.027   1.697   4.272 -1.1475  0.2364 -0.0209
12258TIP3   OH258264   1.890   6.690  15.322 -0.0607 -0.1298  0.7042
12258TIP3    H158265   1.848   6.738  15.251  1.8747  1.0135  0.2339
12258TIP3    H258266   1.855   6.601  15.316 -2.1701  0.6940  0.2551
12259TIP3   OH258267   3.268   5.412  15.195  0.2315  0.2949  0.0763
12259TIP3    H158268   3.327   5.476  15.236 -0.1984  1.1465 -0.6085
12259TIP3    H258269   3.322   5.334  15.183  0.3079 -0.1298  2.5498
12260TIP3   OH258270   0.260   2.727   4.764  0.5302  0.1728  0.0660
12260TIP3    H158271   0.293   2.766   4.683 -0.3341 -0.6250 -0.6870
12260TIP3    H258272   0.335   2.678   4.799  0.2157 -1.5961 -1.6089
12261TIP3   OH258273   0.773   0.848  15.584  0.2376 -0.0429 -0.6875
12261TIP3    H158274   0.704   0.877  15.643 -0.7730 -0.0703 -1.8010
12261TIP3    H258275   0.733   0.778  15.533  1.8421 -1.7172  0.2196
12262TIP3   OH258276   6.815   2.556  16.108  0.5457  1.3108  0.1688
12262TIP3    H158277   6.802   2.590  16.196 -0.9586  0.2751  0.3859
12262TIP3    H258278   6.846   2.466  16.122 -1.1842  0.5982 -0.2902
12263TIP3   OH258279   1.209   1.470   3.626  0.0829 -0.3265  0.4661
12263TIP3    H158280   1.177   1.491   3.713 -0.0034 -1.4874  0.7265
12263TIP3    H258281   1.193   1.376   3.616 -0.7054 -0.0674 -1.1269
12264TIP3   OH258282   0.582   3.299   4.269 -0.2160 -0.9671 -0.1322
12264TIP3    H158283   0.664   3.263   4.235 -0.5759 -1.1642 -0.7872
12264TIP3    H258284   0.568   3.251   4.351  0.7166 -0.3923  0.3877
12265TIP3   OH258285   1.996   0.544  16.164  0.1404 -0.1438 -0.1318
12265TIP3    H158286   2.021   0.498  16.084 -0.2243  1.0028 -0.9429
12265TIP3    H258287   1.901   0.552  16.158 -0.1887 -2.0330  1.5657
12266TIP3   OH258288   6.074   0.766  12.377 -1.0748 -0.0324 -0.0405
12266TIP3    H158289   6.157   0.751  12.421  0.8119 -2.8689 -4.0500
12266TIP3    H258290   6.008   0.743  12.443  1.3216 -0.3600  2.4316
12267TIP3   OH258291   4.201   1.253  10.972 -0.3475 -0.1011 -0.4064
12267TIP3    H158292   4.269   1.284  10.912  0.7951 -0.1762  0.8108
12267TIP3    H258293   4.135   1.214  10.915  0.9671 -0.6829 -1.5816
12268TIP3   OH258294   2.245   4.972  12.286  0.0137 -0.3030 -0.2572
12268TIP3    H158295   2.193   4.901  12.323 -0.4172  0.3474  0.4129
12268TIP3    H258296   2.200   5.052  12.314  0.9652  0.2566 -0.2771
12269TIP3   OH258297   1.085   1.037   0.296 -0.6390  0.2836 -0.0889
12269TIP3    H158298   1.015   0.994   0.346 -0.5228 -0.2385 -0.3713
12269TIP3    H258299   1.084   0.993   0.211  0.3003 -0.0008  0.0409
12270TIP3   OH258300   4.799   2.214  12.560 -1.0954  0.0170 -0.1104
12270TIP3    H158301   4.852   2.138  12.536 -0.6692  0.2844 -0.0224
12270TIP3    H258302   4.735   2.180  12.623  0.4662  0.1420  1.6229
12271TIP3   OH258303   2.107   3.330  11.554  0.3070  0.1331 -0.2930
12271TIP3    H158304   2.038   3.378  11.507  1.1862  1.2327 -0.5014
12271TIP3    H258305   2.109   3.244  11.512 -0.0058  0.5645 -1.2186
12272TIP3   OH258306   1.679   4.561   1.311  0.1635 -0.3945 -0.5529
12272TIP3    H158307   1.642   4.557   1.223 -1.9476 -1.2211  0.3108
12272TIP3    H258308   1.705   4.471   1.331  1.1991 -0.1072 -0.5276
12273TIP3   OH258309   3.096   3.966  15.750 -0.0381  0.0650 -0.1022
12273TIP3    H158310   3.023   3.929  15.700 -0.2382  0.5683 -0.1920
12273TIP3    H258311   3.074   3.948  15.841  0.5137 -1.1907 -0.2002
12274TIP3   OH258312   6.243   0.338  14.308 -0.4160  0.2629 -0.0520
12274TIP3    H158313   6.215   0.424  14.276 -1.5017 -0.2704 -0.6160
12274TIP3    H258314   6.331   0.352  14.342 -0.0841  1.3455 -1.2736
12275TIP3   OH258315   3.091   1.470  13.566 -0.4166  0.2177  0.4331
12275TIP3    H158316   3.017   1.486  13.509 -1.1262  0.3742  1.3693
12275TIP3    H258317   3.168   1.480  13.510 -1.1194 -1.2228 -0.8545
12276TIP3   OH258318   4.085   4.557  14.619 -0.1529  0.1029 -0.3222
12276TIP3    H158319   4.093   4.528  14.710 -0.7166 -1.8060 -0.8381
12276TIP3    H258320   3.994   4.586  14.611  0.6549  3.2155  0.4569
12277TIP3   OH258321   4.779   5.333   4.879 -0.0938 -0.3950  0.1350
12277TIP3    H158322   4.771   5.247   4.919  1.9769 -0.8907 -0.4043
12277TIP3    H258323   4.753   5.394   4.948  0.3634 -1.3569  1.1851
12278TIP3   OH258324   0.507   0.986   3.833 -0.1483 -0.0779 -0.2996
12278TIP3    H158325   0.455   0.927   3.887  0.8424 -1.0353 -0.3542
12278TIP3    H258326   0.598   0.963   3.853  0.2589  1.2776 -0.4961
12279TIP3   OH258327   0.268   6.032   1.518  0.3436 -0.0001 -0.2743
12279TIP3    H158328   0.356   6.019   1.481  1.4746 -1.5065  2.6571
12279TIP3    H258329   0.270   6.120   1.555  1.3788 -0.6959  1.4567
12280TIP3   OH258330   1.888   5.598  13.302  0.2891 -0.3934  0.3013
12280TIP3    H158331   1.812   5.548  13.331  0.7228 -1.8961 -1.0345
12280TIP3    H258332   1.857   5.689  13.301 -1.9001 -1.0563 -1.2499
12281TIP3   OH258333   2.513   4.526   6.450 -0.4643 -0.7595 -0.3048
12281TIP3    H158334   2.543   4.481   6.371 -0.4504  0.1534 -0.8241
12281TIP3    H258335   2.427   4.562   6.427 -0.8537 -1.2146  0.3755
12282TIP3   OH258336   0.433   4.033   2.230 -0.0892  0.5978 -0.5268
12282TIP3    H158337   0.502   4.040   2.297  0.2283  2.2282 -0.9895
12282TIP3    H258338   0.480   4.043   2.147 -0.3505 -2.2430 -1.1189
12283TIP3   OH258339   1.714   0.576  16.153  0.1383 -0.1549  0.0701
12283TIP3    H158340   1.625   0.602  16.176  0.0802  1.1087 -1.4126
12283TIP3    H258341   1.704   0.520  16.076  0.5842 -0.5704  0.3100
12284TIP3   OH258342   4.095   5.161  10.983 -0.3298 -0.7455  0.1661
12284TIP3    H158343   4.033   5.233  10.993  0.9840  0.1961  2.8135
12284TIP3    H258344   4.056   5.088  11.031 -0.0744 -0.6219  0.5691
12285TIP3   OH258345   0.497   6.296   1.829 -0.5357  0.5938  0.6666
12285TIP3    H158346   0.451   6.336   1.755  0.7921  1.1169  0.1031
12285TIP3    H258347   0.565   6.359   1.852  0.6254 -0.6570  0.7565
12286TIP3   OH258348   4.655   3.505   5.654 -0.1534  0.4928 -0.0690
12286TIP3    H158349   4.720   3.439   5.680  0.9467  1.1572 -1.0556
12286TIP3    H258350   4.615   3.470   5.575  2.3659  2.1408 -2.2219
12287TIP3   OH258351   0.140   6.208   2.278 -1.0983  0.0896  0.2359
12287TIP3    H158352   0.074   6.267   2.242 -0.4999  0.6776  0.0658
12287TIP3    H258353   0.095   6.159   2.346 -1.7641  0.3212 -0.0371
12288TIP3   OH258354   3.146   4.768   0.961 -0.7781 -0.2151 -0.6182
12288TIP3    H158355   3.186   4.686   0.988  1.5924  1.1227  0.3085
12288TIP3    H258356   3.191   4.791   0.880 -0.1570  0.9526  0.0285
12289TIP3   OH258357   4.025   5.105   6.400 -0.5207  0.3455  0.3610
12289TIP3    H158358   3.933   5.090   6.381 -0.8546 -0.0564  2.0842
12289TIP3    H258359   4.051   5.177   6.343 -2.2261  1.2697  0.7108
12290TIP3   OH258360   3.821   6.790   2.570  0.1526 -0.3643  0.1868
12290TIP3    H158361   3.743   6.767   2.620  0.4755 -1.7757  0.0813
12290TIP3    H258362   3.806   6.752   2.484 -0.3310  1.9006 -0.8187
12291TIP3   OH258363   3.607   2.077  11.258  0.3031  0.1752 -0.2426
12291TIP3    H158364   3.570   2.027  11.185  0.7517 -0.5646  0.0174
12291TIP3    H258365   3.645   2.010  11.315  2.8486  0.9106 -0.9229
12292TIP3   OH258366   5.315   3.113  15.413 -0.0551  0.4051  0.3045
12292TIP3    H158367   5.391   3.069  15.374  0.1762 -0.9272  2.1562
12292TIP3    H258368   5.266   3.044  15.457 -1.7565  1.4326  0.1095
12293TIP3   OH258369   4.592   2.195  12.850  0.0652  0.4579  0.3426
12293TIP3    H158370   4.515   2.204  12.794  1.5169 -1.4624 -2.1557
12293TIP3    H258371   4.566   2.131  12.917 -1.0619  1.2700  0.7145
12294TIP3   OH258372   1.261   5.357  11.342 -0.6855 -0.0151  0.0617
12294TIP3    H158373   1.292   5.413  11.271 -0.0715 -0.1845  0.1954
12294TIP3    H258374   1.288   5.269  11.317  0.6939  0.0765  1.1245
12295TIP3   OH258375   4.580   3.929  17.063 -0.2812  0.5551 -0.1882
12295TIP3    H158376   4.586   3.938  16.968 -0.3168  0.4133 -0.2044
12295TIP3    H258377   4.649   3.866  17.085  0.7442  1.7317  0.0569
12296TIP3   OH258378   3.384   6.699  11.316 -0.3782 -0.1665 -0.3730
12296TIP3    H158379   3.354   6.783  11.351  0.3753 -0.3399  0.7560
12296TIP3    H258380   3.321   6.635  11.349  0.1285 -0.2819  0.4011
12297TIP3   OH258381   3.859   3.677  13.384  0.0647  0.3336 -0.0669
12297TIP3    H158382   3.799   3.752  13.392  1.0831  1.0684  0.8310
12297TIP3    H258383   3.801   3.600  13.389 -0.9708  1.0265 -0.7752
12298TIP3   OH258384   6.736   4.058  11.194 -0.6678 -0.3191  0.0636
12298TIP3    H158385   6.676   3.984  11.189 -2.1834  0.8615 -0.0524
12298TIP3    H258386   6.796   4.045  11.120 -1.0732 -1.2796 -0.1111
12299TIP3   OH258387   3.271   2.082   1.512 -0.2041 -0.2828 -0.4556
12299TIP3    H158388   3.286   2.001   1.562 -1.2251 -0.8178 -0.9886
12299TIP3    H258389   3.279   2.056   1.421  1.3630  0.6364 -0.6164
12300TIP3   OH258390   5.368   5.322  11.124 -0.9516 -0.2720 -0.4035
12300TIP3    H158391   5.360   5.344  11.217  1.9139  1.9519 -0.5553
12300TIP3    H258392   5.433   5.253  11.122 -2.0044 -1.2903 -0.7303
12301TIP3   OH258393   2.749   1.989   4.007 -0.4935 -0.1971 -0.4229
12301TIP3    H158394   2.820   1.939   3.965 -1.4379 -1.2683 -0.7919
12301TIP3    H258395   2.670   1.937   3.992 -1.6732  1.7434 -1.4458
12302TIP3   OH258396   1.504   4.550  14.560 -0.2166  0.0732 -0.5522
12302TIP3    H158397   1.526   4.492  14.487  1.1099 -0.4599  0.2206
12302TIP3    H258398   1.527   4.637  14.529  0.8919 -0.2123 -0.5948
12303TIP3   OH258399   2.649   2.462  15.199 -0.1757 -0.5655 -0.4767
12303TIP3    H158400   2.632   2.514  15.121  0.9084  0.5087 -0.0338
12303TIP3    H258401   2.568   2.469  15.250 -0.3190  0.0680 -0.7779
12304TIP3   OH258402   5.561   0.413   5.300 -0.6683  0.1340  0.4334
12304TIP3    H158403   5.603   0.333   5.268 -0.3506  0.7917 -0.8404
12304TIP3    H258404   5.518   0.386   5.381 -2.4858 -1.9007 -1.0976
12305TIP3   OH258405   4.864   6.422   5.386  0.4348  0.1709 -0.5342
12305TIP3    H158406   4.848   6.378   5.470 -1.1353  2.5586  0.5155
12305TIP3    H258407   4.867   6.351   5.322 -2.7342 -1.4816  0.9244
12306TIP3   OH258408   6.613   2.108   4.000 -0.1278 -0.0507  0.4864
12306TIP3    H158409   6.609   2.015   4.019 -0.4071  0.1020  1.2099
12306TIP3    H258410   6.693   2.138   4.045 -1.4547  0.5525  2.6001
12307TIP3   OH258411   0.197   5.253   5.061 -0.7005 -0.3823 -0.2340
12307TIP3    H158412   0.158   5.183   5.113 -0.8822 -0.9642 -1.1397
12307TIP3    H258413   0.150   5.252   4.978 -0.8011  0.9161 -0.2199
12308TIP3   OH258414   2.183   2.340   6.119 -0.4466  0.5457  0.0705
12308TIP3    H158415   2.276   2.342   6.099 -0.5072 -0.0899 -0.2821
12308TIP3    H258416   2.140   2.319   6.036 -1.1158  3.2270 -0.3741
12309TIP3   OH258417   6.639   4.338  15.216 -0.0364 -0.4978  0.5021
12309TIP3    H158418   6.669   4.428  15.228 -1.9637  0.2471  0.0108
12309TIP3    H258419   6.547   4.346  15.190 -0.1556 -2.5971  0.0978
12310TIP3   OH258420   6.153   5.266   2.435 -0.1339  0.5133  0.7072
12310TIP3    H158421   6.081   5.308   2.482  0.4463  2.8586 -0.3469
12310TIP3    H258422   6.135   5.172   2.442 -4.0848  0.9955 -0.7887
12311TIP3   OH258423   4.324   5.065  11.660 -0.1737 -0.6862 -0.2742
12311TIP3    H158424   4.238   5.074  11.700 -0.0044 -0.1274 -0.0303
12311TIP3    H258425   4.313   4.995  11.596 -0.7715 -0.7167 -0.1447
12312TIP3   OH258426   3.400   1.197   2.563 -0.0762  0.3560  0.0167
12312TIP3    H158427   3.320   1.153   2.533 -0.1681 -0.3566  1.2213
12312TIP3    H258428   3.369   1.267   2.620  0.1074 -2.0519  3.3539
12313TIP3   OH258429   0.511   4.474   1.134 -0.3373  0.0817 -0.4513
12313TIP3    H158430   0.481   4.422   1.059  0.3301 -0.9751 -0.0095
12313TIP3    H258431   0.454   4.446   1.207 -1.8518  2.0275 -0.7894
12314TIP3   OH258432   1.156   5.929  15.805  0.4596 -0.6631  0.8806
12314TIP3    H158433   1.192   5.973  15.882  2.2822  0.5366 -0.5627
12314TIP3    H258434   1.107   5.997  15.759  0.7574 -0.9165  0.1722
12315TIP3   OH258435   5.959   4.742   3.526  0.2158 -0.1720  0.1169
12315TIP3    H158436   5.979   4.834   3.510  0.0406  0.1807  1.7503
12315TIP3    H258437   5.864   4.736   3.517  0.3457 -0.5032 -1.3059
12316TIP3   OH258438   5.122   4.243   1.822 -0.1120  0.0433  0.9174
12316TIP3    H158439   5.211   4.214   1.802  0.8608  3.5683 -0.5158
12316TIP3    H258440   5.133   4.306   1.894 -1.2910  1.2028  0.1215
12317TIP3   OH258441   5.900   0.597   1.486  0.1712  0.2335 -0.0682
12317TIP3    H158442   5.872   0.689   1.479  0.6222  0.3462 -0.4655
12317TIP3    H258443   5.827   0.547   1.449 -0.8138  0.2936  1.6712
12318TIP3   OH258444   6.141   2.538   4.181  0.4638 -0.4879  0.8290
12318TIP3    H158445   6.185   2.482   4.117 -2.8318  0.3375 -2.5085
12318TIP3    H258446   6.067   2.485   4.212 -0.8869  0.8322 -0.0020
12319TIP3   OH258447   5.192   5.175   2.739 -0.6590 -0.3264 -0.0229
12319TIP3    H158448   5.272   5.125   2.752 -0.4302 -0.0709 -0.4542
12319TIP3    H258449   5.218   5.251   2.687 -0.6587  1.1666  2.0358
12320TIP3   OH258450   2.093   5.359  13.856 -0.0995  0.8062 -0.0666
12320TIP3    H158451   2.189   5.348  13.856 -0.0925  0.3073 -2.3611
12320TIP3    H258452   2.080   5.454  13.855  0.4004  0.8751 -0.4544
12321TIP3   OH258453   2.054   3.442  12.058  0.2593  0.3442 -0.3523
12321TIP3    H158454   2.052   3.407  11.969 -2.6726  0.5270 -0.4410
12321TIP3    H258455   2.007   3.377  12.110 -2.0843  2.2896  0.1446
12322TIP3   OH258456   2.293   3.178  15.589 -0.0326  0.6598 -0.0364
12322TIP3    H158457   2.349   3.255  15.581 -0.4767  0.8301 -1.9649
12322TIP3    H258458   2.306   3.130  15.508  0.5907 -1.5969  1.2973
12323TIP3   OH258459   2.689   2.294  15.941 -0.2961  0.1163 -0.3544
12323TIP3    H158460   2.678   2.380  15.980 -0.7755  0.4686 -1.2375
12323TIP3    H258461   2.600   2.261  15.930 -0.0845 -1.3836  1.8323
12324TIP3   OH258462   3.815   3.581   0.903  0.0194 -0.5028 -0.1228
12324TIP3    H158463   3.794   3.494   0.936  0.7196 -0.8371 -0.5493
12324TIP3    H258464   3.910   3.586   0.906  0.0117  0.0551 -0.5896
12325TIP3   OH258465   1.969   1.156  15.822 -0.5632  0.3264 -0.9457
12325TIP3    H158466   1.956   1.067  15.857  0.0524  0.5033 -0.2380
12325TIP3    H258467   1.985   1.209  15.900 -0.5462  0.9951 -1.4027
12326TIP3   OH258468   3.032   5.383  14.761  0.0203  0.3088  0.1598
12326TIP3    H158469   3.045   5.457  14.821 -1.0819  1.0842 -0.5250
12326TIP3    H258470   2.939   5.362  14.768  0.0822 -0.2354 -0.5493
12327TIP3   OH258471   5.481   4.579   4.058  0.1450 -0.0851 -0.3241
12327TIP3    H158472   5.516   4.490   4.051  2.0886  0.7310 -2.2976
12327TIP3    H258473   5.512   4.610   4.142  2.2516 -0.2319 -0.9939
12328TIP3   OH258474   0.414   5.845  15.671  0.0851 -0.1063  0.0634
12328TIP3    H158475   0.491   5.897  15.647  0.1291 -0.2031 -0.0101
12328TIP3    H258476   0.341   5.906  15.670 -0.1389 -0.3474 -1.5636
12329TIP3   OH258477   1.563   6.244   0.488  0.4199  0.0809 -0.0812
12329TIP3    H158478   1.512   6.177   0.442  0.5147 -0.5327  0.6827
12329TIP3    H258479   1.531   6.241   0.578 -0.4013  1.8875 -0.2626
12330TIP3   OH258480   1.361   6.795  14.159 -0.4030 -0.2129 -0.5203
12330TIP3    H158481   1.407   6.862  14.210 -1.0028 -0.9803  1.1094
12330TIP3    H258482   1.396   6.804  14.070  1.4717  0.4739  0.2370
12331TIP3   OH258483   2.555   5.672   4.374 -0.4850 -0.0791  0.1052
12331TIP3    H158484   2.528   5.757   4.340 -0.2111  0.2234  0.6341
12331TIP3    H258485   2.564   5.617   4.296  1.0431  0.8621 -0.4306
12332TIP3   OH258486   3.342   5.155  11.255  0.5155  0.4812 -0.4018
12332TIP3    H158487   3.325   5.198  11.339  0.0104  0.2256 -0.3683
12332TIP3    H258488   3.436   5.137  11.256  0.5131  0.4623  0.1212
12333TIP3   OH258489   1.902   0.192  13.801  0.4261 -0.6461  0.0268
12333TIP3    H158490   1.920   0.156  13.888  0.1826  0.6618  0.6313
12333TIP3    H258491   1.861   0.119  13.754  1.0563 -1.5392  0.8128
12334TIP3   OH258492   0.250   5.198   4.369  0.2970  0.5963 -0.3882
12334TIP3    H158493   0.261   5.113   4.327  0.5124  0.5525 -0.2438
12334TIP3    H258494   0.227   5.177   4.460  0.9821  0.6950 -0.1921
12335TIP3   OH258495   5.576   1.229  11.589 -0.2188  0.0002  0.1010
12335TIP3    H158496   5.495   1.197  11.550  0.1937  0.2052 -0.9560
12335TIP3    H258497   5.559   1.321  11.608 -0.3928 -0.0807  0.3470
12336TIP3   OH258498   0.104   2.728  14.750  0.2811 -0.1963 -0.5187
12336TIP3    H158499   0.032   2.667  14.764 -0.2928  0.7280  0.7797
12336TIP3    H258500   0.095   2.756  14.659  0.3688 -1.7691 -1.0414
12337TIP3   OH258501   0.818   5.230  15.657 -0.5555 -0.2051  0.0625
12337TIP3    H158502   0.877   5.294  15.615  0.8043 -0.7256  1.0913
12337TIP3    H258503   0.763   5.198  15.586  0.5523  0.1556 -0.9990
12338TIP3   OH258504   2.662   6.694   4.472 -0.6526  0.5464 -0.3540
12338TIP3    H158505   2.723   6.766   4.485 -0.5014  0.1437  1.4270
12338TIP3    H258506   2.716   6.622   4.440 -0.4503  0.6405 -0.2281
12339TIP3   OH258507   5.603   0.469  15.008 -0.1684 -0.1833 -0.0982
12339TIP3    H158508   5.685   0.498  14.970 -0.2587 -0.3208 -0.4077
12339TIP3    H258509   5.617   0.471  15.102  0.8057 -1.9235 -0.1612
12340TIP3   OH258510   3.241   4.924  12.209  0.7605 -0.3314  0.6445
12340TIP3    H158511   3.282   4.860  12.151  0.4660 -0.9665  1.1280
12340TIP3    H258512   3.177   4.970  12.154 -0.4195 -1.7866  0.7455
12341TIP3   OH258513   2.575   6.567   2.058 -0.0964 -0.1177 -0.2745
12341TIP3    H158514   2.493   6.592   2.100 -0.0807  0.3406 -0.5102
12341TIP3    H258515   2.633   6.641   2.074 -0.5054  0.6929 -2.2635
12342TIP3   OH258516   2.038   3.086   3.829  0.5094  0.5990 -0.0522
12342TIP3    H158517   1.965   3.026   3.814  0.2441  0.5761  1.2237
12342TIP3    H258518   2.101   3.035   3.880  1.2168  0.7705 -0.7359
12343TIP3   OH258519   5.128   4.101  13.064 -0.6425  0.2796 -0.0859
12343TIP3    H158520   5.162   4.158  13.134 -0.1263  0.2631 -0.3172
12343TIP3    H258521   5.197   4.036  13.052 -2.0095 -1.5970  1.5219
12344TIP3   OH258522   3.536   0.908  13.625  0.0454 -0.0237  0.5126
12344TIP3    H158523   3.456   0.872  13.588 -0.1157 -0.8938  1.6322
12344TIP3    H258524   3.572   0.964  13.557 -0.5568 -1.0602 -0.6828
12345TIP3   OH258525   1.906   2.175  11.453  0.3220 -0.6415 -0.0852
12345TIP3    H158526   1.923   2.097  11.399 -0.0125 -0.0535 -1.0733
12345TIP3    H258527   1.849   2.229  11.398 -0.1959 -0.1153  0.9611
12346TIP3   OH258528   3.887   2.507   0.488 -0.4175  0.3942  0.2747
12346TIP3    H158529   3.938   2.587   0.474 -2.2724  1.1702 -2.9425
12346TIP3    H258530   3.808   2.537   0.533 -0.2414  0.0258  0.8309
12347TIP3   OH258531   3.298   3.282   2.682  0.5530 -0.0768 -0.7874
12347TIP3    H158532   3.324   3.200   2.640  1.4514  0.6711 -1.7308
12347TIP3    H258533   3.338   3.350   2.629  0.0127  0.9781  0.1199
12348TIP3   OH258534   0.028   4.913   0.482  0.8881  0.3056  0.1115
12348TIP3    H158535  -0.024   4.914   0.563 -1.5396 -1.1483 -1.3203
12348TIP3    H258536   0.040   5.005   0.460 -1.9709  0.7388  0.0504
12349TIP3   OH258537   6.038   0.078  14.094 -0.5626 -0.0862 -0.2966
12349TIP3    H158538   5.986  -0.002  14.089 -0.7645 -0.0376  0.8053
12349TIP3    H258539   5.980   0.147  14.064 -0.6785 -0.2331 -0.4069
12350TIP3   OH258540   3.673   5.166  14.161 -0.8477  0.5600 -0.5642
12350TIP3    H158541   3.750   5.213  14.130 -0.9368  1.1912  0.1471
12350TIP3    H258542   3.603   5.232  14.160 -0.9762  0.4554  0.4253
12351TIP3   OH258543   5.094   0.662   4.818 -0.1792 -0.3265 -0.2770
12351TIP3    H158544   5.133   0.702   4.895  2.9634 -0.7506 -1.4802
12351TIP3    H258545   5.092   0.732   4.753 -0.4209 -0.5977 -0.5640
12352TIP3   OH258546   4.931   0.937   2.492 -0.2499  0.7872  0.3099
12352TIP3    H158547   4.981   0.961   2.570 -2.0887 -0.9856  2.1498
12352TIP3    H258548   4.844   0.914   2.524 -1.2000  0.3034 -2.3201
12353TIP3   OH258549   5.768   2.321   0.707 -0.2638 -0.6872  0.2491
12353TIP3    H158550   5.724   2.264   0.644  0.7801 -0.3499 -0.8059
12353TIP3    H258551   5.861   2.304   0.696  0.0324  0.6244  0.4772
12354TIP3   OH258552   1.669   2.250   2.199  0.7110  0.3141 -0.2533
12354TIP3    H158553   1.641   2.213   2.116 -2.1948  1.9516 -0.1594
12354TIP3    H258554   1.689   2.174   2.254  2.8481 -0.7833 -2.4032
12355TIP3   OH258555   0.955   5.821   1.658  0.3871 -0.1116 -0.5539
12355TIP3    H158556   0.864   5.819   1.629  0.4581  3.5041 -1.4861
12355TIP3    H258557   0.952   5.799   1.751 -1.3043 -0.8477 -0.7590
12356TIP3   OH258558   3.762   1.774   5.482 -0.7018  0.6236 -0.2019
12356TIP3    H158559   3.845   1.729   5.498 -0.1755  2.2061  2.1647
12356TIP3    H258560   3.729   1.737   5.401  1.1485 -1.7684  0.0303
12357TIP3   OH258561   2.930   3.442   5.066  1.0150  0.0323  0.0328
12357TIP3    H158562   2.912   3.366   5.121  0.3836 -1.0174 -1.5631
12357TIP3    H258563   2.845   3.482   5.051  1.3093  0.9361  0.6304
12358TIP3   OH258564   3.090   1.372   1.698 -0.5291 -0.4842  0.3644
12358TIP3    H158565   3.051   1.459   1.705 -2.1095 -1.1691  0.4210
12358TIP3    H258566   3.183   1.389   1.678 -1.1975  1.1848 -1.7278
12359TIP3   OH258567   1.904   3.221  15.157  0.1407 -0.0117  0.4256
12359TIP3    H158568   1.948   3.283  15.100  2.1835  0.1042  2.0199
12359TIP3    H258569   1.957   3.142  15.153 -0.0500 -0.2221  1.6346
12360TIP3   OH258570   1.083   4.129  11.455 -0.1289 -0.3020  0.6142
12360TIP3    H158571   1.113   4.159  11.369 -1.9054  1.1490  0.4343
12360TIP3    H258572   1.103   4.036  11.457 -1.2636 -0.6893 -1.9522
12361TIP3   OH258573   0.932   1.595   4.573  0.3836 -0.3338 -0.0441
12361TIP3    H158574   0.905   1.552   4.655 -0.6181 -2.3004 -1.3157
12361TIP3    H258575   0.914   1.530   4.506 -1.2638  2.1266 -2.1665
12362TIP3   OH258576   0.538   6.495   4.294 -0.7782 -0.6036  0.5841
12362TIP3    H158577   0.621   6.462   4.329  0.1146 -0.0299 -0.8903
12362TIP3    H258578   0.491   6.417   4.267  0.5125 -0.8339 -1.1607
12363TIP3   OH258579   1.615   2.804   3.398  0.1886  0.4186  0.6089
12363TIP3    H158580   1.710   2.810   3.388  0.3694 -1.3064  1.0195
12363TIP3    H258581   1.595   2.866   3.469  0.9648  0.8975  0.4224
12364TIP3   OH258582   1.218   0.823  11.158  0.0909  0.2364 -0.1673
12364TIP3    H158583   1.123   0.825  11.147 -0.1043  0.9200  1.4594
12364TIP3    H258584   1.239   0.730  11.158 -0.6227  0.0636 -0.2118
12365TIP3   OH258585   6.655   2.701  10.957 -0.4246  0.2899  0.1701
12365TIP3    H158586   6.618   2.765  10.895 -0.5122 -0.9687 -1.1253
12365TIP3    H258587   6.593   2.628  10.955  0.1124 -0.1937  0.9966
12366TIP3   OH258588   5.878   3.198  12.437  0.0730 -0.3030 -0.0864
12366TIP3    H158589   5.884   3.226  12.346 -0.5529 -0.5647 -0.2105
12366TIP3    H258590   5.790   3.162  12.446 -0.0705  0.2355  0.7663
12367TIP3   OH258591   4.097   5.570   1.719  0.0876 -0.3313 -0.4217
12367TIP3    H158592   4.163   5.557   1.650  1.1379 -1.5954  0.7508
12367TIP3    H258593   4.029   5.506   1.699  0.7513 -1.2279  0.0941
12368TIP3   OH258594   4.726   6.368   0.002  0.1662 -0.4435 -0.4325
12368TIP3    H158595   4.689   6.395  -0.082  0.3301 -0.6668 -0.5758
12368TIP3    H258596   4.651   6.366   0.061  0.4643  3.0034  0.2992
12369TIP3   OH258597   4.867   6.228  16.787 -0.4761  0.7723  0.7151
12369TIP3    H158598   4.875   6.172  16.863 -2.4794  0.7915  0.9990
12369TIP3    H258599   4.845   6.168  16.715  2.7459  0.5683 -0.2368
12370TIP3   OH258600   1.021   2.116  14.843 -0.1040 -0.3852 -0.3946
12370TIP3    H158601   1.038   2.186  14.906 -0.0782 -0.6854 -0.0632
12370TIP3    H258602   0.926   2.120  14.829 -0.1189 -0.3553 -0.2891
12371TIP3   OH258603   5.930   6.557  12.057  0.3283  0.5084  0.3004
12371TIP3    H158604   5.928   6.644  12.096 -0.7274  0.7532 -0.2750
12371TIP3    H258605   5.842   6.521  12.072  0.9840 -0.8134  1.2827
12372TIP3   OH258606   3.797   4.675   5.464  0.9242  0.6696 -0.1310
12372TIP3    H158607   3.872   4.700   5.410  1.9246  1.3119  1.4679
12372TIP3    H258608   3.785   4.749   5.523  0.2977 -0.2677  0.9582
12373TIP3   OH258609   6.659   6.364   0.845  0.0745  0.0368  0.0089
12373TIP3    H158610   6.734   6.327   0.891  0.9993  1.1461 -0.5525
12373TIP3    H258611   6.585   6.311   0.873  1.0439 -0.9981  0.6862
12374TIP3   OH258612   5.554   6.029   2.695 -0.0050 -0.7001 -0.1520
12374TIP3    H158613   5.617   6.039   2.624  0.3098  0.4347  0.2650
12374TIP3    H258614   5.536   6.119   2.724 -2.2515 -0.9354 -0.6289
12375TIP3   OH258615   5.887   6.423   5.341 -0.0900  0.3386 -0.1959
12375TIP3    H158616   5.807   6.416   5.288 -0.6374 -0.6307  0.7006
12375TIP3    H258617   5.859   6.395   5.428  0.8581  1.5712  0.5323
12376TIP3   OH258618   5.445   0.236   0.417  0.8144  0.4525  0.1943
12376TIP3    H158619   5.385   0.165   0.393 -1.7203  2.4295  0.3854
12376TIP3    H258620   5.522   0.221   0.361 -0.8988 -0.6912 -2.0317
12377TIP3   OH258621   1.310   4.346  12.832 -0.1294 -0.0015  0.4635
12377TIP3    H158622   1.271   4.369  12.747 -1.3984  3.0004  1.7050
12377TIP3    H258623   1.358   4.265  12.815 -1.5511 -0.3407 -2.7477
12378TIP3   OH258624   5.516   6.419  14.631 -0.0132 -0.1987 -0.4099
12378TIP3    H158625   5.498   6.434  14.724  0.0525 -1.0028 -0.2611
12378TIP3    H258626   5.431   6.424  14.589 -0.2948 -1.6043 -0.0478
12379TIP3   OH258627   4.798   1.471  16.137 -0.4715 -0.0412  0.0479
12379TIP3    H158628   4.866   1.484  16.070 -0.3176  2.6030  0.6329
12379TIP3    H258629   4.838   1.502  16.218 -1.5776 -0.7518  0.8985
12380TIP3   OH258630   5.246   2.392  10.358  0.0326 -0.1328 -0.5286
12380TIP3    H158631   5.275   2.380  10.268 -0.3292 -2.1728 -0.4168
12380TIP3    H258632   5.319   2.437  10.401  1.1851 -1.2117 -1.2995
12381TIP3   OH258633   6.846   4.175   5.179 -0.1233 -0.5015 -0.2153
12381TIP3    H158634   6.791   4.176   5.257 -1.6036 -2.6892 -1.1112
12381TIP3    H258635   6.792   4.214   5.111  0.4854 -0.2165 -0.5425
12382TIP3   OH258636   3.858   6.070   0.321 -0.1689  0.0776 -0.3403
12382TIP3    H158637   3.896   6.132   0.383 -1.0324 -0.4018  0.7170
12382TIP3    H258638   3.764   6.091   0.321 -0.4602 -1.1261 -0.0503
12383TIP3   OH258639   3.813   1.235   1.196  0.8237 -0.0486  0.5290
12383TIP3    H158640   3.781   1.246   1.286  0.9470  0.1600  0.5492
12383TIP3    H258641   3.908   1.241   1.204  0.7748  1.5226  0.1831
12384TIP3   OH258642   3.454   1.565  11.101 -0.5277 -0.7032  0.2281
12384TIP3    H158643   3.524   1.506  11.074  1.5920  0.9756  1.6979
12384TIP3    H258644   3.469   1.645  11.051 -0.5328  0.1459  1.5397
12385TIP3   OH258645   6.762   3.817  10.778  0.1259  0.6105 -0.1665
12385TIP3    H158646   6.808   3.757  10.719  0.2428 -0.1380  0.6700
12385TIP3    H258647   6.700   3.864  10.721  1.0081  0.7084 -1.0757
12386TIP3   OH258648   4.205   4.540   3.793 -0.1078 -0.0885 -0.3910
12386TIP3    H158649   4.281   4.492   3.826 -0.7598 -1.0128 -0.1863
12386TIP3    H258650   4.241   4.623   3.761  1.0803 -0.7693 -0.9002
12387TIP3   OH258651   6.421   2.423  12.277  0.1647 -0.2770 -0.8268
12387TIP3    H158652   6.424   2.366  12.354  1.5251 -0.3322 -0.9016
12387TIP3    H258653   6.409   2.511  12.313  4.0024  0.1581 -0.2263
12388TIP3   OH258654   4.600   4.545  16.893  0.0419 -0.1721  0.1832
12388TIP3    H158655   4.591   4.451  16.906  1.5991 -0.2894  0.5815
12388TIP3    H258656   4.599   4.582  16.982 -1.5206  0.3112 -0.0072
12389TIP3   OH258657   3.685   0.615  13.582  0.0008 -0.5692 -0.6150
12389TIP3    H158658   3.731   0.555  13.639 -1.9018 -1.1943  0.3489
12389TIP3    H258659   3.678   0.696  13.632 -2.6619 -1.4555  0.6712
12390TIP3   OH258660   6.666   1.761   0.762  0.2001  0.0355  0.1930
12390TIP3    H158661   6.584   1.745   0.716 -0.4460 -0.7913  1.5803
12390TIP3    H258662   6.722   1.686   0.740  0.7011  0.6924 -0.9072
12391TIP3   OH258663   6.785   1.601   0.429 -0.0608  0.5459 -0.5627
12391TIP3    H158664   6.703   1.559   0.405 -0.9931  1.6800  0.4674
12391TIP3    H258665   6.773   1.626   0.521 -0.2074  4.3049 -1.4231
12392TIP3   OH258666   6.304   3.530  13.759  0.7451  0.4711 -0.2854
12392TIP3    H158667   6.345   3.572  13.684  1.1038 -1.3304 -1.1656
12392TIP3    H258668   6.301   3.437  13.735  1.6989 -0.2992  2.3222
12393TIP3   OH258669   5.968   2.973   3.488 -0.0523 -0.7428  0.1883
12393TIP3    H158670   6.057   2.945   3.465 -0.7050 -3.0867  0.3732
12393TIP3    H258671   5.922   2.893   3.512 -2.6853  0.1771 -1.3763
12394TIP3   OH258672   2.571   1.571  15.634  1.0116  0.1768 -0.4809
12394TIP3    H158673   2.626   1.529  15.568 -1.0954 -1.3951 -1.3346
12394TIP3    H258674   2.503   1.616  15.583  0.0097 -0.1151  0.5700
12395TIP3   OH258675   3.997   2.814   2.928  0.3180 -0.0852  0.1785
12395TIP3    H158676   4.078   2.784   2.887  0.8834  0.5008  0.8336
12395TIP3    H258677   4.010   2.798   3.022 -0.6711 -0.7741  0.2124
12396TIP3   OH258678   1.352   4.835  16.388  0.3412 -0.1975  0.0952
12396TIP3    H158679   1.266   4.852  16.424  0.0513  0.2714 -0.7760
12396TIP3    H258680   1.337   4.827  16.293  1.0910 -1.2041  0.0377
12397TIP3   OH258681   3.928   1.064  13.165 -0.2992  0.3373  0.0204
12397TIP3    H158682   3.887   1.025  13.242  0.3405 -1.7092 -0.6133
12397TIP3    H258683   4.020   1.075  13.190  0.1422 -1.3200 -0.7510
12398TIP3   OH258684   3.392   0.188   0.978  0.5143  0.0099  0.6154
12398TIP3    H158685   3.354   0.101   0.965 -1.6471  0.6934  1.8904
12398TIP3    H258686   3.377   0.233   0.895 -2.7766  0.6521  1.4114
12399TIP3   OH258687   5.780   6.685   0.284  0.6479  0.5263  0.6615
12399TIP3    H158688   5.871   6.699   0.307  0.5764  0.7040  0.8402
12399TIP3    H258689   5.761   6.751   0.217  1.0604 -0.4530 -0.4629
12400TIP3   OH258690   4.905   2.629   0.927  0.1378  0.5399 -0.4292
12400TIP3    H158691   4.930   2.615   1.018  0.2597 -0.3247 -0.5902
12400TIP3    H258692   4.810   2.621   0.926  0.2343 -0.8773 -0.5990
12401TIP3   OH258693   4.839   6.047   0.456  0.2487  0.0724  0.7381
12401TIP3    H158694   4.749   6.078   0.456  0.1774 -0.0402 -0.8643
12401TIP3    H258695   4.891   6.124   0.433  0.2611 -0.4609 -1.1880
12402TIP3   OH258696   2.942   5.814   3.072 -0.5402 -0.0911  0.4343
12402TIP3    H158697   2.944   5.725   3.108  0.5293  0.6969  2.4674
12402TIP3    H258698   2.872   5.858   3.121  0.5878  0.8622  1.2446
12403TIP3   OH258699   0.849   0.780   3.282  0.4293  0.1831  0.6042
12403TIP3    H158700   0.943   0.796   3.292  0.1540  0.9870  2.1926
12403TIP3    H258701   0.840   0.685   3.291  1.0207  0.1750  1.1817
12404TIP3   OH258702   5.505   1.024  14.304 -0.0160  0.2273  0.1527
12404TIP3    H158703   5.516   1.038  14.210  1.3481 -0.9978  0.0953
12404TIP3    H258704   5.423   1.068  14.325  0.3614  1.7681 -1.3244
12405TIP3   OH258705   6.370   2.990   3.742 -0.3314 -0.6950  0.7556
12405TIP3    H158706   6.461   2.983   3.711 -0.5018  1.0982 -0.3183
12405TIP3    H258707   6.332   2.904   3.724  0.2584 -0.4747 -1.9254
12406TIP3   OH258708   1.072   2.194  14.358 -0.0612 -0.5665 -0.5853
12406TIP3    H158709   1.143   2.179  14.421  3.2240  1.8777 -3.3051
12406TIP3    H258710   1.058   2.289  14.361 -1.9436 -0.7742 -1.4859
12407TIP3   OH258711   2.553   4.998  11.603 -0.1421  0.4005  0.0225
12407TIP3    H158712   2.533   5.056  11.676 -2.9157  0.7470 -0.9072
12407TIP3    H258713   2.469   4.961  11.577  0.8049 -0.1400 -2.6154
12408TIP3   OH258714   2.662   0.885  13.848 -0.2289  0.1337 -0.1011
12408TIP3    H158715   2.594   0.870  13.913 -0.1295  0.5728  0.1079
12408TIP3    H258716   2.684   0.977  13.857 -0.9607  0.4624 -1.5012
12409TIP3   OH258717   2.144   6.058  14.408 -0.7491 -0.6460 -0.4291
12409TIP3    H158718   2.091   6.128  14.447 -2.5880 -1.9282 -0.5231
12409TIP3    H258719   2.214   6.105  14.362 -0.1692  1.0266  1.9078
12410TIP3   OH258720   6.230   4.096   4.792 -0.0674  0.5814  0.1266
12410TIP3    H158721   6.293   4.067   4.859  0.3472  0.7494 -0.1856
12410TIP3    H258722   6.285   4.133   4.722 -0.3164 -1.4966 -1.2765
12411TIP3   OH258723   4.078   0.943  14.533 -0.1972 -0.0378  0.3315
12411TIP3    H158724   4.122   1.021  14.567  2.0622 -1.2077  0.2512
12411TIP3    H258725   4.054   0.967  14.444 -1.4702  1.2636  0.9876
12412TIP3   OH258726   0.367   6.233  14.711 -0.3468 -0.4077  0.3593
12412TIP3    H158727   0.402   6.144  14.711  1.5504  0.2651 -0.4133
12412TIP3    H258728   0.415   6.277  14.781 -1.9426 -0.1827  1.3661
12413TIP3   OH258729   2.085   0.149  12.451 -0.2652  0.2106  0.1279
12413TIP3    H158730   2.082   0.175  12.544  2.8024 -0.6129  0.5639
12413TIP3    H258731   2.174   0.171  12.423 -1.2613  0.9212 -2.8340
12414TIP3   OH258732   1.208   3.495   2.664  0.1797  0.1000  0.1209
12414TIP3    H158733   1.208   3.405   2.696  0.5370  0.0260 -0.0780
12414TIP3    H258734   1.279   3.498   2.600  1.0171  0.8613  1.0585
12415TIP3   OH258735   0.085   4.917  13.562  0.0788  0.6691  0.2126
12415TIP3    H158736   0.102   4.904  13.655  0.8144 -0.3958 -0.0470
12415TIP3    H258737   0.169   4.942  13.525 -0.0008  0.2110 -0.3005
12416TIP3   OH258738   1.163   3.275   4.327 -0.2616  0.4237  0.3340
12416TIP3    H158739   1.221   3.242   4.258 -0.6914  0.7879 -0.2099
12416TIP3    H258740   1.194   3.365   4.342  1.1835 -0.3028  2.1091
12417TIP3   OH258741   2.250   6.509   1.670  0.8547  0.0111 -0.0671
12417TIP3    H158742   2.161   6.495   1.635  0.8560 -0.5772  0.1596
12417TIP3    H258743   2.284   6.421   1.685 -0.0505  0.1672  3.7484
12418TIP3   OH258744   6.458   4.759   2.457 -0.8717  0.3505  0.5722
12418TIP3    H158745   6.400   4.831   2.480 -0.5909  0.8229 -0.1562
12418TIP3    H258746   6.420   4.682   2.499 -1.3878  0.8542  1.0358
12419TIP3   OH258747   5.942   4.440  14.174 -0.4452  0.2933  0.6498
12419TIP3    H158748   5.925   4.366  14.116  0.1260 -0.3280  1.2493
12419TIP3    H258749   5.859   4.455  14.219 -0.5589 -0.0199  0.5495
12420TIP3   OH258750   4.117   0.893   1.982 -0.2735  0.3260  0.5074
12420TIP3    H158751   4.199   0.913   1.937 -0.2908 -1.4594 -0.4064
12420TIP3    H258752   4.138   0.903   2.075  1.8541 -2.7129  0.4843
12421TIP3   OH258753   0.175   4.479  13.493 -0.1093 -0.3046 -0.5318
12421TIP3    H158754   0.112   4.444  13.430 -2.2738  2.2129  0.0636
12421TIP3    H258755   0.141   4.453  13.579  0.9899 -0.8981 -0.2551
12422TIP3   OH258756   0.736   4.653  13.592  0.4794  0.7017  0.3193
12422TIP3    H158757   0.826   4.664  13.562 -0.2208  2.2735 -1.3923
12422TIP3    H258758   0.701   4.582  13.538  0.5272  0.4550  0.6102
12423TIP3   OH258759   0.190   2.050  15.541 -0.0934 -0.0902  0.3044
12423TIP3    H158760   0.268   1.999  15.563  1.2914  0.9158 -1.8691
12423TIP3    H258761   0.211   2.139  15.570 -0.5394  0.1458 -0.0852
12424TIP3   OH258762   0.411   5.861   0.221 -0.0590  0.0580 -0.1706
12424TIP3    H158763   0.366   5.943   0.199  1.5942  1.1068  0.1608
12424TIP3    H258764   0.428   5.820   0.136  1.0859  1.1809 -0.5026
12425TIP3   OH258765   3.081   6.684   5.962 -0.1454  0.2761  0.0284
12425TIP3    H158766   3.108   6.670   6.053 -1.1444  0.6855  0.4004
12425TIP3    H258767   2.992   6.717   5.968  0.1818  1.4392 -1.0631
12426TIP3   OH258768   3.480   0.198   2.049  0.3358 -0.1242  0.2128
12426TIP3    H158769   3.422   0.221   1.976  0.2906 -1.2918 -0.1381
12426TIP3    H258770   3.456   0.260   2.119  1.7257  2.3195 -1.3512
12427TIP3   OH258771   6.207   3.960   1.301  0.7768  0.1751  0.8369
12427TIP3    H158772   6.112   3.952   1.304  0.6801  0.4173 -0.8025
12427TIP3    H258773   6.231   3.991   1.388 -0.6638  0.3459  1.2002
12428TIP3   OH258774   1.112   2.654   2.396 -0.0838  0.2555 -0.5981
12428TIP3    H158775   1.182   2.699   2.348 -0.3927  0.6511 -0.6752
12428TIP3    H258776   1.121   2.562   2.370 -0.1679  0.4463 -1.3155
12429TIP3   OH258777   4.316   5.059   3.171  0.1525 -0.1050 -0.7768
12429TIP3    H158778   4.317   5.135   3.229  1.1309  0.0174 -0.9396
12429TIP3    H258779   4.256   4.997   3.213  1.3328 -0.2835  0.7072
12430TIP3   OH258780   4.374   0.342  14.279 -0.5221  0.1267  0.6028
12430TIP3    H158781   4.333   0.304  14.358  1.5883  0.0138  1.7066
12430TIP3    H258782   4.349   0.434  14.282 -0.9470  0.0059  1.0780
12431TIP3   OH258783   4.691   4.721   2.274  0.3629  0.0897 -0.3499
12431TIP3    H158784   4.742   4.757   2.201  2.9481 -0.9375  0.8291
12431TIP3    H258785   4.682   4.794   2.335  1.8073 -0.0600  0.0914
12432TIP3   OH258786   5.849   0.330   0.623 -0.4711 -0.1151 -0.6770
12432TIP3    H158787   5.754   0.334   0.634 -0.5938  0.0197 -1.7041
12432TIP3    H258788   5.863   0.346   0.530  0.6176  0.8949 -0.3653
12433TIP3   OH258789   0.508   2.065   4.585 -0.1251  0.2901  0.2848
12433TIP3    H158790   0.573   2.017   4.533  2.0446  1.4292  1.7834
12433TIP3    H258791   0.517   2.030   4.673 -0.6227  1.3751  0.7841
12434TIP3   OH258792   1.445   3.284   2.012 -0.0114 -0.0118 -0.4371
12434TIP3    H158793   1.425   3.271   1.920 -1.7488 -0.7139 -0.0092
12434TIP3    H258794   1.396   3.215   2.057 -0.2935  1.1318  1.0929
12435TIP3   OH258795   6.014   6.567   2.045  0.0053 -0.2134 -0.3177
12435TIP3    H158796   6.095   6.617   2.051 -1.4519  2.2549  0.3073
12435TIP3    H258797   6.042   6.475   2.044  2.7879  0.5486 -0.7210
12436TIP3   OH258798   3.711   0.309  15.894 -0.2718  0.2473  0.3207
12436TIP3    H158799   3.712   0.324  15.799 -0.0179  0.5880  0.3730
12436TIP3    H258800   3.652   0.376  15.929 -1.0634 -0.4337  0.3224
12437TIP3   OH258801   1.880   4.507   2.922 -0.3352  0.2009 -0.3963
12437TIP3    H158802   1.897   4.418   2.890  1.0876 -0.6002  2.3543
12437TIP3    H258803   1.935   4.563   2.868 -0.7180 -0.6213 -1.6970
12438TIP3   OH258804   0.150   5.714  13.767 -0.0734 -0.0293  0.4037
12438TIP3    H158805   0.100   5.655  13.824  0.0972  0.9576  1.6339
12438TIP3    H258806   0.119   5.695  13.679 -0.5758 -1.4000  0.8504
12439TIP3   OH258807   0.031   0.376   3.638 -0.1296 -0.0278  0.4411
12439TIP3    H158808  -0.031   0.312   3.604  1.3248 -0.0044 -2.5547
12439TIP3    H258809   0.109   0.325   3.661  0.7945  0.4975 -1.3395
12440TIP3   OH258810   1.144   5.685   3.909 -0.0738 -0.1238  0.2735
12440TIP3    H158811   1.134   5.753   3.842  0.2196  1.7915  2.0431
12440TIP3    H258812   1.060   5.685   3.955 -0.7877 -2.4207 -0.8778
12441TIP3   OH258813   1.591   5.886   5.919  0.5285 -0.0652  0.2603
12441TIP3    H158814   1.629   5.899   6.005  0.9291 -0.7612  0.1881
12441TIP3    H258815   1.585   5.975   5.882 -2.3145  0.6294  2.0811
12442TIP3   OH258816   2.021   4.540   1.938  0.5993  0.0930  0.4871
12442TIP3    H158817   2.108   4.553   1.975 -0.3125  2.4991  2.0530
12442TIP3    H258818   2.010   4.611   1.875 -1.0650  1.5056  2.2031
12443TIP3   OH258819   6.750   3.500  12.375 -0.1137  0.4907  0.5265
12443TIP3    H158820   6.702   3.512  12.294 -0.9950 -0.6709  0.8478
12443TIP3    H258821   6.827   3.449  12.350  0.6428  1.7862  0.1225
12444TIP3   OH258822   4.738   5.200  11.513  0.4005 -0.4954  0.1589
12444TIP3    H158823   4.765   5.282  11.553 -0.8358  0.1094 -0.2063
12444TIP3    H258824   4.646   5.213  11.490 -0.0242 -2.2171  0.7229
12445TIP3   OH258825   5.728   2.744   4.771  0.0046 -0.1195  0.1018
12445TIP3    H158826   5.807   2.749   4.718  1.4593  1.4314  2.2349
12445TIP3    H258827   5.678   2.822   4.746  1.0496  1.0273  1.4618
12446TIP3   OH258828   5.191   1.166  10.642 -1.0164 -0.3962 -0.4751
12446TIP3    H158829   5.173   1.080  10.681 -0.6453 -1.1878 -1.9634
12446TIP3    H258830   5.246   1.211  10.707 -2.6340 -0.5742  1.0977
12447TIP3   OH258831   4.510   2.012  11.860 -0.3059  0.2688 -0.5603
12447TIP3    H158832   4.458   2.092  11.847  3.0943  2.8490  0.2792
12447TIP3    H258833   4.567   2.008  11.784 -0.0267 -1.0865 -0.2984
12448TIP3   OH258834   4.952   0.636   1.956 -0.3567  0.0457 -0.3987
12448TIP3    H158835   4.918   0.685   2.030  1.2783  0.1291  0.3467
12448TIP3    H258836   5.045   0.625   1.976 -0.0865 -0.7730 -1.9807
12449TIP3   OH258837   2.110   3.089   1.862  0.3872  0.0215 -0.1590
12449TIP3    H158838   2.087   3.091   1.770  1.5524 -4.5545 -0.7529
12449TIP3    H258839   2.043   3.036   1.903  1.1326  0.0690  1.2034
12450TIP3   OH258840   6.706   2.167   4.898  0.4037 -0.1932  0.3029
12450TIP3    H158841   6.702   2.173   4.803  1.2837  0.0778  0.2730
12450TIP3    H258842   6.735   2.077   4.914 -0.0316 -0.3291  0.3232
12451TIP3   OH258843   1.698   2.240  16.307 -0.4042  0.0683  0.5765
12451TIP3    H158844   1.716   2.319  16.256 -1.5056 -1.5212 -2.5174
12451TIP3    H258845   1.785   2.206  16.331  0.0901  1.7658  1.3349
12452TIP3   OH258846   2.339   5.670   3.691  0.2281 -0.3509 -0.0074
12452TIP3    H158847   2.378   5.678   3.604 -2.7909  0.8240 -1.3971
12452TIP3    H258848   2.370   5.746   3.739  1.5454 -0.7566 -0.1845
12453TIP3   OH258849   3.169   2.748   4.238  0.3038  0.1213 -0.4018
12453TIP3    H158850   3.159   2.653   4.235 -0.5189  0.0387  2.2325
12453TIP3    H258851   3.083   2.782   4.215  0.6668  0.2785 -1.6046
12454TIP3   OH258852   3.970   6.698  11.804 -0.1406 -0.4525 -0.5624
12454TIP3    H158853   4.035   6.680  11.872 -1.0839 -1.9583 -0.0109
12454TIP3    H258854   3.888   6.708  11.851 -0.1785  2.9951 -1.0810
12455TIP3   OH258855   2.057   2.141   2.614 -0.4449 -0.2410 -0.5019
12455TIP3    H158856   2.109   2.149   2.694 -0.8805  0.9205 -0.3172
12455TIP3    H258857   2.085   2.058   2.576  0.1233 -0.5831  0.6005
12456TIP3   OH258858   2.631   5.018   5.704 -0.4923 -0.0462  0.0883
12456TIP3    H158859   2.685   4.949   5.744 -0.3845  0.4009  0.7246
12456TIP3    H258860   2.687   5.056   5.637  0.1219  0.6357  0.9655
12457TIP3   OH258861   1.823   2.197   2.475  0.1549 -0.4771 -0.1058
12457TIP3    H158862   1.807   2.108   2.445  0.5530 -0.6855  0.2822
12457TIP3    H258863   1.901   2.190   2.531  0.2513  0.1280 -0.1526
12458TIP3   OH258864   6.119   4.233   2.860 -0.3754  0.1653  0.3661
12458TIP3    H158865   6.177   4.178   2.912  0.8170  1.7787  0.8109
12458TIP3    H258866   6.158   4.233   2.772  0.1064  0.9332  0.5695
12459TIP3   OH258867   4.981   0.839  11.488  0.1935  0.5590  0.8192
12459TIP3    H158868   4.932   0.890  11.553 -0.7317 -0.6514  1.1271
12459TIP3    H258869   5.008   0.760  11.536 -1.1733 -0.7247 -0.4074
12460TIP3   OH258870   3.951   6.721   0.845 -0.1204  0.4642 -0.0888
12460TIP3    H158871   3.967   6.703   0.938 -0.2979 -0.8369 -0.3007
12460TIP3    H258872   3.966   6.638   0.801  0.5694  1.2217 -1.3189
12461TIP3   OH258873   4.597   3.406  16.708  0.5885  0.1725  0.3150
12461TIP3    H158874   4.534   3.352  16.659  1.1677 -1.7431  1.5753
12461TIP3    H258875   4.563   3.495  16.700 -0.8010 -0.4461 -1.2731
12462TIP3   OH258876   2.712   3.421   6.416  0.2122 -0.1651  0.4812
12462TIP3    H158877   2.709   3.516   6.404  2.3374 -0.2473 -1.2551
12462TIP3    H258878   2.620   3.394   6.421 -0.4233  1.9541  1.0671
12463TIP3   OH258879   6.298   6.676  13.588 -0.2954 -0.0690  0.1341
12463TIP3    H158880   6.327   6.715  13.505 -2.0598 -0.0517 -0.5133
12463TIP3    H258881   6.234   6.610  13.562  0.3002 -1.2116  1.4167
12464TIP3   OH258882   1.522   3.984   4.252 -0.0794 -0.5389 -0.0730
12464TIP3    H158883   1.540   4.023   4.167 -2.5346 -0.5835 -0.6886
12464TIP3    H258884   1.496   3.894   4.233  0.8026 -1.0307  0.8990
12465TIP3   OH258885   0.328   4.175   1.318  0.2925  0.0244  0.0321
12465TIP3    H158886   0.348   4.183   1.411 -0.5554  1.4137  0.1316
12465TIP3    H258887   0.411   4.196   1.274  0.1486  1.7010  0.4737
12466TIP3   OH258888   4.630   3.479   2.562 -0.0032 -0.0183  0.1587
12466TIP3    H158889   4.584   3.395   2.561  0.0622 -0.0672 -1.2949
12466TIP3    H258890   4.652   3.493   2.654 -4.1345  0.7051  1.2240
12467TIP3   OH258891   5.150   5.463   2.031 -0.0562  0.2170 -0.0240
12467TIP3    H158892   5.116   5.539   2.078 -1.7834  0.0709 -0.9532
12467TIP3    H258893   5.235   5.491   1.996 -0.5760  1.6483 -0.1720
12468TIP3   OH258894   6.621   2.437   2.621  0.2137 -0.6750  0.7010
12468TIP3    H158895   6.715   2.452   2.615  0.6394 -3.3440 -0.2896
12468TIP3    H258896   6.610   2.377   2.695 -0.5432 -1.5279 -0.0851
12469TIP3   OH258897   6.286   4.347  12.007 -0.2473  0.2848  0.0731
12469TIP3    H158898   6.207   4.300  12.035 -1.2038  1.2024 -0.9614
12469TIP3    H258899   6.257   4.399  11.933  0.9984  1.7884  0.5914
12470TIP3   OH258900   4.542   2.355   3.074 -0.5435 -0.1500  0.3087
12470TIP3    H158901   4.594   2.363   3.154 -0.6149  1.2466  0.2401
12470TIP3    H258902   4.606   2.368   3.003 -0.9022  1.3436  0.2189
12471TIP3   OH258903   5.231   4.393  14.190  0.0234 -0.1580  0.4422
12471TIP3    H158904   5.266   4.390  14.101 -1.2895 -2.0436 -0.0629
12471TIP3    H258905   5.160   4.457  14.186  0.9728  0.9518  0.5790
12472TIP3   OH258906   4.015   1.878  13.907  0.2515  0.2481 -0.4952
12472TIP3    H158907   4.063   1.940  13.961 -0.0448 -0.0557  0.1326
12472TIP3    H258908   3.927   1.914  13.902  0.4877  0.6972 -1.4679
12473TIP3   OH258909   6.294   3.590   0.603 -0.0706 -0.7205  0.4859
12473TIP3    H158910   6.247   3.615   0.524  2.6608  2.0323 -0.4399
12473TIP3    H258911   6.239   3.621   0.675 -0.5573  0.7127 -0.4814
12474TIP3   OH258912   3.380   2.302   1.388 -0.3481  0.3047 -0.5180
12474TIP3    H158913   3.307   2.352   1.350  0.6880  3.0489  0.8225
12474TIP3    H258914   3.352   2.284   1.478  0.7023  1.8210  0.1727
12475TIP3   OH258915   1.024   6.008  13.682  0.0184 -0.1345 -0.1036
12475TIP3    H158916   0.953   6.020  13.619  0.0726  0.6039 -0.0360
12475TIP3    H258917   1.041   5.914  13.681 -0.3432 -0.2048 -0.7937
12476TIP3   OH258918   5.339   3.539   2.427  0.2118  0.0691 -0.1253
12476TIP3    H158919   5.343   3.634   2.429 -0.0991  0.1415 -1.7654
12476TIP3    H258920   5.312   3.515   2.516  1.1689  1.4367  0.5740
12477TIP3   OH258921   6.206   4.716   4.009  0.6529 -0.1073 -0.1730
12477TIP3    H158922   6.134   4.779   4.012  0.4494 -0.3712  1.0344
12477TIP3    H258923   6.182   4.655   3.939 -1.1234 -1.1143  1.2209
12478TIP3   OH258924   4.133   4.440  11.760  0.2082 -0.1854  0.2247
12478TIP3    H158925   4.165   4.375  11.696  1.4855 -0.0143  0.6686
12478TIP3    H258926   4.061   4.395  11.805 -0.0245 -0.6809 -0.6087
12479TIP3   OH258927   4.477   0.553   1.038 -0.7381 -0.0925  0.2825
12479TIP3    H158928   4.497   0.627   0.980  1.1227  0.0746  1.0674
12479TIP3    H258929   4.402   0.583   1.089 -0.3478  1.0723  0.2159
12480TIP3   OH258930   1.811   6.702  16.025 -0.2452 -0.8597 -0.2108
12480TIP3    H158931   1.751   6.713  15.951 -0.5287 -2.6531 -0.3068
12480TIP3    H258932   1.869   6.631  15.998  2.3335  1.1320 -0.3183
12481TIP3   OH258933   5.096   5.560  17.015 -0.3413  0.0071 -0.7403
12481TIP3    H158934   5.029   5.492  17.009 -0.1780 -0.3324  0.8031
12481TIP3    H258935   5.057   5.637  16.974 -2.7881  0.6255  2.3912
12482TIP3   OH258936   6.176   1.794  16.512  0.0063  0.1333 -0.4831
12482TIP3    H158937   6.229   1.714  16.515  1.0370  0.8378  1.4983
12482TIP3    H258938   6.145   1.798  16.422 -2.6659 -4.1263 -0.0371
12483TIP3   OH258939   0.799   0.964  16.222 -0.6256  0.2760  0.3453
12483TIP3    H158940   0.724   0.912  16.250  1.8711 -3.1145  1.3245
12483TIP3    H258941   0.841   0.991  16.303  0.3675  0.2972 -0.1623
12484TIP3   OH258942   2.320   2.742  16.224  0.0308  0.0150 -0.5385
12484TIP3    H158943   2.401   2.776  16.260  0.2293 -0.0801 -0.8861
12484TIP3    H258944   2.299   2.801  16.151  0.5773 -0.7957 -1.3819
12485TIP3   OH258945   5.287   2.891  13.202 -0.2582 -0.0407  0.5976
12485TIP3    H158946   5.204   2.919  13.241  0.6240  1.4790  1.4924
12485TIP3    H258947   5.350   2.957  13.231  0.9394 -0.2213 -1.4449
12486TIP3   OH258948   3.883   1.441   2.634 -0.2716 -0.6276  0.3247
12486TIP3    H158949   3.858   1.364   2.685 -0.7510 -0.8497 -0.2287
12486TIP3    H258950   3.934   1.406   2.561  1.3382 -0.2142  1.2041
12487TIP3   OH258951   2.432   1.066  12.959 -0.0951 -0.6450 -0.1771
12487TIP3    H158952   2.471   1.140  13.005  2.6005 -0.1167 -2.9519
12487TIP3    H258953   2.343   1.094  12.939  0.6195  1.5958 -0.4645
12488TIP3   OH258954   1.568   4.244  14.393 -0.5843  0.2411  0.3726
12488TIP3    H158955   1.643   4.275  14.444 -1.0429  1.0151  0.5959
12488TIP3    H258956   1.529   4.176  14.448 -2.1026  2.2520  1.9419
12489TIP3   OH258957   4.793   0.303   3.900  0.4556  0.2170 -0.0703
12489TIP3    H158958   4.828   0.380   3.946 -2.2376  1.0229  0.7762
12489TIP3    H258959   4.785   0.236   3.968 -1.3771  0.6675  0.1912
12490TIP3   OH258960   3.823   6.049   5.546 -0.1026 -0.4290  0.3726
12490TIP3    H158961   3.908   6.073   5.511  0.6189 -1.1075  1.5920
12490TIP3    H258962   3.840   5.972   5.599 -1.2722  0.0866  1.5515
12491TIP3   OH258963   3.717   3.085  15.993  0.2991  0.0162  0.2295
12491TIP3    H158964   3.733   3.073  15.899  0.0959 -0.5295  0.2658
12491TIP3    H258965   3.625   3.108  15.999  0.2936 -0.0259  0.3043
12492TIP3   OH258966   5.658   0.575  12.897  0.3437 -0.1990 -0.1225
12492TIP3    H158967   5.659   0.523  12.977  0.8732  0.1619  0.1102
12492TIP3    H258968   5.682   0.663  12.926 -1.8975  0.5143 -0.2843
12493TIP3   OH258969   0.592   0.863  16.926 -0.3286  0.1660  0.3806
12493TIP3    H158970   0.503   0.897  16.927  0.0334  1.1375  0.9745
12493TIP3    H258971   0.640   0.923  16.869  0.1865  0.3092  0.9522
12494TIP3   OH258972   0.449   4.466   2.948  0.9979  0.0850 -0.5746
12494TIP3    H158973   0.452   4.558   2.921  4.4006  0.7258  1.4544
12494TIP3    H258974   0.536   4.448   2.983  0.3803 -3.8871 -0.6208
12495TIP3   OH258975   3.690   6.060   4.911  0.4201 -0.2170  0.6348
12495TIP3    H158976   3.739   6.111   4.974  0.7831  1.5638 -0.9927
12495TIP3    H258977   3.603   6.100   4.910  0.6920  0.3937 -0.6242
12496TIP3   OH258978   1.761   1.375  12.556 -0.1012  0.5155 -0.0669
12496TIP3    H158979   1.798   1.296  12.596 -0.0012  1.2311  1.3121
12496TIP3    H258980   1.668   1.356  12.547  0.0345 -0.0159 -0.4010
12497TIP3   OH258981   4.709   2.463   6.207  0.2682 -0.2447  0.3020
12497TIP3    H158982   4.742   2.509   6.130 -0.8266 -0.7014 -0.4688
12497TIP3    H258983   4.780   2.404   6.233  0.2485 -0.8966 -1.0496
12498TIP3   OH258984   1.215   4.394  16.265  0.0515 -0.4688  0.3876
12498TIP3    H158985   1.246   4.313  16.225  0.9201  0.1021 -0.1230
12498TIP3    H258986   1.173   4.442  16.193 -2.1796 -1.2601  1.0758
12499TIP3   OH258987   0.282   5.936  15.348 -0.1804 -0.1702  0.4170
12499TIP3    H158988   0.223   5.982  15.407  0.4282  1.1533  0.0342
12499TIP3    H258989   0.233   5.928  15.266 -0.2161  0.0042  0.4207
12500TIP3   OH258990   5.962   0.245  11.524 -0.2300  0.0554  0.4791
12500TIP3    H158991   6.032   0.180  11.518 -2.7993 -2.8301 -1.5367
12500TIP3    H258992   5.897   0.205  11.582 -0.8552  2.0586  1.2518
12501TIP3   OH258993   4.913   6.318  11.422 -0.2308  0.2415  0.4796
12501TIP3    H158994   4.954   6.283  11.501 -1.6993 -1.9182  0.3584
12501TIP3    H258995   4.824   6.283  11.424 -0.6133  0.9834 -1.6306
12502TIP3   OH258996   5.349   4.074  11.001 -0.4981 -0.4001  0.1753
12502TIP3    H158997   5.409   4.046  11.070  1.9779  2.0749 -0.7726
12502TIP3    H258998   5.344   3.999  10.942  1.3395 -0.8753  0.5469
12503TIP3   OH258999   5.213   4.505  15.046  0.1171 -0.1502 -0.9827
12503TIP3    H159000   5.225   4.584  15.099  0.5327 -1.5965  1.2200
12503TIP3    H259001   5.215   4.433  15.110  1.9764 -2.1247 -3.0820
12504TIP3   OH259002   6.471   4.458  16.465  0.2358  0.0094  0.3200
12504TIP3    H159003   6.396   4.423  16.513 -1.2132  0.2512 -1.6227
12504TIP3    H259004   6.453   4.551  16.457  0.5185  0.0012 -0.5109
12505TIP3   OH259005   5.707   1.351  12.289  0.4036 -0.5077  0.6705
12505TIP3    H159006   5.729   1.265  12.324  0.6206 -0.7093  0.0478
12505TIP3    H259007   5.614   1.345  12.265 -0.3308  0.2616  3.0534
12506TIP3   OH259008   6.486   3.804   2.702  0.4467  0.0992 -0.1391
12506TIP3    H159009   6.503   3.766   2.616 -0.0689 -0.1850 -0.1207
12506TIP3    H259010   6.496   3.898   2.689 -2.5369  0.3678 -1.2637
12507TIP3   OH259011   3.368   6.747   4.790 -0.0260  1.0114  0.1864
12507TIP3    H159012   3.353   6.820   4.729  2.8867  0.5591 -1.2389
12507TIP3    H259013   3.358   6.669   4.736 -1.3041  0.3765  1.2813
12508TIP3   OH259014   0.154   1.673  14.206  1.1403  0.2038 -0.2271
12508TIP3    H159015   0.220   1.604  14.195  1.2621  0.2654  0.1036
12508TIP3    H259016   0.119   1.659  14.294 -0.8398 -1.1600 -1.1581
12509TIP3   OH259017   6.227   3.534   3.808 -0.2664 -0.2391 -0.4655
12509TIP3    H159018   6.291   3.571   3.869  0.4620  0.3400 -1.5386
12509TIP3    H259019   6.147   3.584   3.823 -0.2953 -0.5541  0.4663
12510TIP3   OH259020   1.758   2.811  13.371 -0.5563  0.2981 -0.8970
12510TIP3    H159021   1.732   2.778  13.457 -0.8895  1.3517 -0.5816
12510TIP3    H259022   1.824   2.878  13.389  0.2277 -0.2829 -1.5361
12511TIP3   OH259023   0.864   5.684   3.998  0.0556  0.0846 -0.2524
12511TIP3    H159024   0.822   5.712   3.916 -0.5151  4.1593  1.2266
12511TIP3    H259025   0.831   5.595   4.012 -1.1682 -0.1271 -3.5181
12512TIP3   OH259026   5.549   5.104  15.590 -0.2873 -0.0264 -0.2055
12512TIP3    H159027   5.510   5.179  15.635 -1.6913 -0.4739 -0.6301
12512TIP3    H259028   5.480   5.072  15.533  0.9052 -0.5087 -1.4401
12513TIP3   OH259029   4.856   1.599  14.738 -0.0474  0.2754  0.4971
12513TIP3    H159030   4.833   1.647  14.659 -1.1561  1.1814  1.3403
12513TIP3    H259031   4.775   1.555  14.764  0.1328  0.4891  1.4590
12514TIP3   OH259032   5.894   5.779  11.647  0.0306  0.2745  0.3144
12514TIP3    H159033   5.942   5.830  11.712  0.3718  1.7110 -1.0027
12514TIP3    H259034   5.955   5.709  11.623  0.6459  0.8465  0.1802
12515TIP3   OH259035   1.037   1.355   1.318 -0.5329  0.1716 -0.6262
12515TIP3    H159036   1.035   1.292   1.391 -2.3846  0.2048 -0.5856
12515TIP3    H259037   1.091   1.427   1.350 -1.1727  0.1074  0.6765
12516TIP3   OH259038   4.765   4.906   1.388  0.0028 -0.4306  0.2764
12516TIP3    H159039   4.772   4.848   1.463  1.6415  0.1469  0.6140
12516TIP3    H259040   4.854   4.936   1.373 -0.3424 -0.2783 -1.7109
12517TIP3   OH259041   3.635   0.397   5.429 -0.1585 -0.4735 -0.0492
12517TIP3    H159042   3.614   0.328   5.492 -1.0694 -0.1707  0.0029
12517TIP3    H259043   3.549   0.431   5.403  0.2779  1.3736  0.7474
12518TIP3   OH259044   6.041   2.162  15.328  0.4537  0.1015 -0.1980
12518TIP3    H159045   5.980   2.161  15.402 -0.2799 -1.0151 -0.7920
12518TIP3    H259046   6.121   2.200  15.364  0.3957 -1.1693  1.3973
12519TIP3   OH259047   6.083   5.646  15.581  0.6454  0.0241  0.7248
12519TIP3    H159048   5.993   5.625  15.560  0.8121  0.4839 -0.5304
12519TIP3    H259049   6.093   5.739  15.558  1.5308 -0.1127  0.5000
12520TIP3   OH259050   4.674   4.080  16.655  0.3530  0.3823 -0.1513
12520TIP3    H159051   4.587   4.096  16.617  0.2708 -1.0815 -0.6476
12520TIP3    H259052   4.735   4.091  16.582  0.3744 -0.6536 -0.2953
12521TIP3   OH259053   3.119   1.219  16.861  0.3364 -0.6493  0.0423
12521TIP3    H159054   3.080   1.302  16.836  0.4023 -1.0352 -1.4410
12521TIP3    H259055   3.202   1.217  16.814  2.2879  0.1670  3.1205
12522TIP3   OH259056   5.079   6.703  16.697 -0.2856 -0.5613  0.5293
12522TIP3    H159057   5.059   6.615  16.729 -0.1860 -0.8206 -0.1045
12522TIP3    H259058   5.000   6.754  16.717 -0.8019 -1.0816 -0.1361
12523TIP3   OH259059   4.623   2.741  10.296 -0.6496 -0.1156 -0.0679
12523TIP3    H159060   4.533   2.764  10.271 -0.1165  0.4604 -1.5063
12523TIP3    H259061   4.628   2.647  10.283 -1.8643 -0.6984  2.7678
12524TIP3   OH259062   0.567   6.675  12.485  0.2557 -0.7348  0.2321
12524TIP3    H159063   0.598   6.745  12.427 -0.8382  0.6290  1.2371
12524TIP3    H259064   0.634   6.606  12.478  1.5509  0.5547 -0.4919
12525TIP3   OH259065   1.763   0.195   1.483  0.3527  0.0186  0.2483
12525TIP3    H159066   1.777   0.285   1.452 -0.5376  0.1499  0.1926
12525TIP3    H259067   1.670   0.179   1.468  0.4979 -0.9097  0.2853
12526TIP3   OH259068   2.723   3.002   0.838 -0.3201  0.8169 -0.1444
12526TIP3    H159069   2.691   3.091   0.828 -1.7144  0.3170 -0.3440
12526TIP3    H259070   2.699   2.959   0.756 -1.5939 -0.2951  0.7720
12527TIP3   OH259071   0.423   4.722   5.224 -0.0092 -0.0294  0.1315
12527TIP3    H159072   0.493   4.658   5.237  1.0211  0.6966 -1.5574
12527TIP3    H259073   0.467   4.806   5.218 -1.2471  0.7272  1.2182
12528TIP3   OH259074   3.149   3.682  10.373 -0.1045  0.2176  0.1556
12528TIP3    H159075   3.075   3.742  10.383 -1.7675 -1.2674 -2.2288
12528TIP3    H259076   3.110   3.595  10.379  1.9332 -0.6812  1.4908
12529TIP3   OH259077   4.642   4.854  14.126 -0.2596  0.2894 -0.8044
12529TIP3    H159078   4.578   4.855  14.055 -0.3759 -1.1621 -0.7417
12529TIP3    H259079   4.647   4.762  14.153 -1.0719  0.9493  1.8356
12530TIP3   OH259080   4.950   4.937  16.812  0.2822  0.4889  0.3129
12530TIP3    H159081   4.855   4.953  16.815 -0.2230 -1.9432 -0.4648
12530TIP3    H259082   4.969   4.891  16.893  0.2379 -1.3196 -0.6360
12531TIP3   OH259083   5.153   1.892   1.130 -0.0680  0.6209  1.1201
12531TIP3    H159084   5.178   1.984   1.138 -2.1450  1.3200  0.0277
12531TIP3    H259085   5.209   1.857   1.061  0.4608  1.1487  1.2786
12532TIP3   OH259086   0.737   4.619  12.328  0.1774 -0.2237 -0.4214
12532TIP3    H159087   0.813   4.667  12.362  0.4077  1.4225 -3.0048
12532TIP3    H259088   0.663   4.656  12.377  0.8652 -1.0831  1.3605
12533TIP3   OH259089   3.749   0.297  16.550 -0.1288  0.8899  0.0569
12533TIP3    H159090   3.694   0.254  16.615 -1.3740 -0.6222 -1.8653
12533TIP3    H259091   3.697   0.372  16.520  0.4658  1.6183  0.8063
12534TIP3   OH259092   5.176   2.859  14.411 -0.5763 -0.1965 -0.5119
12534TIP3    H159093   5.138   2.918  14.476  0.4401 -0.9742  0.8526
12534TIP3    H259094   5.130   2.776  14.424  0.3618 -0.6540 -0.0341
12535TIP3   OH259095   5.431   6.006   3.654  0.1400 -0.3987  0.3618
12535TIP3    H159096   5.340   6.036   3.653  0.2829  0.0514  0.5456
12535TIP3    H259097   5.439   5.955   3.735  0.7210  1.7326  1.7188
12536TIP3   OH259098   1.078   6.831  16.476 -0.5899  0.0757 -0.6664
12536TIP3    H159099   1.166   6.855  16.447 -0.0043 -1.2491 -0.0464
12536TIP3    H259100   1.053   6.901  16.536 -0.1221  0.6652 -1.1463
12537TIP3   OH259101   5.009   5.940   3.559  0.1089  0.6430 -0.8731
12537TIP3    H159102   5.019   6.010   3.623  0.0141  0.9490 -1.1941
12537TIP3    H259103   5.076   5.957   3.493  0.0657  0.4501 -0.9692
12538TIP3   OH259104   3.262   4.567  16.188  0.2439  0.4876 -0.1445
12538TIP3    H159105   3.337   4.614  16.150  0.7098  0.5054  0.7860
12538TIP3    H259106   3.211   4.540  16.112 -0.4077  3.0807 -0.7228
12539TIP3   OH259107   4.286   0.554   1.262  0.2396 -0.1585 -0.3221
12539TIP3    H159108   4.238   0.487   1.213  0.3001  0.5215 -1.3463
12539TIP3    H259109   4.218   0.611   1.298  0.2388  0.1134 -0.7537
12540TIP3   OH259110   2.338   2.690   2.136 -0.2778  0.2134  0.0084
12540TIP3    H159111   2.432   2.673   2.144 -0.4999 -2.4638 -1.8268
12540TIP3    H259112   2.328   2.732   2.051 -0.7632 -0.0303 -0.0602
12541TIP3   OH259113   6.386   4.099   4.212  0.3835  0.0627  0.1088
12541TIP3    H159114   6.371   4.136   4.126  1.5230  1.4806  0.4834
12541TIP3    H259115   6.388   4.004   4.198 -0.1138  0.2465 -1.2938
12542TIP3   OH259116   6.013   3.191   1.868  0.2077  0.2973 -0.3348
12542TIP3    H159117   5.925   3.175   1.902  0.4999  1.0288  0.8250
12542TIP3    H259118   6.014   3.145   1.783 -0.8584 -0.8042  0.2022
12543TIP3   OH259119   6.317   3.038   0.007  0.1350 -0.0443 -0.0377
12543TIP3    H159120   6.316   3.069   0.098 -1.1176  0.4047 -0.1895
12543TIP3    H259121   6.252   3.091  -0.038  0.5454 -0.4465 -1.1505
12544TIP3   OH259122   2.554   2.482   4.429  0.1344 -0.3605  0.1228
12544TIP3    H159123   2.500   2.408   4.455 -1.4044  0.2595 -1.0752
12544TIP3    H259124   2.492   2.555   4.423  1.4688  0.8441  0.5292
12545TIP3   OH259125   6.273   3.432  12.662 -0.4531  0.0912 -0.5152
12545TIP3    H159126   6.366   3.456  12.669 -0.5919  0.2359  1.1612
12545TIP3    H259127   6.261   3.413  12.569  0.5331  2.9951 -1.3638
12546TIP3   OH259128   0.606   5.159   6.087 -0.1484  0.0925  0.1254
12546TIP3    H159129   0.695   5.180   6.116  0.3795 -3.2676  1.4245
12546TIP3    H259130   0.550   5.180   6.161  0.2161 -1.6171  0.9501
12547TIP3   OH259131   5.336   0.821   3.604 -0.5523 -0.3595 -0.2775
12547TIP3    H159132   5.282   0.892   3.571 -1.9341 -1.1963  0.0937
12547TIP3    H259133   5.334   0.755   3.534  1.0587  0.0872 -0.8020
12548TIP3   OH259134   5.053   2.998  14.619 -0.1566 -0.4934 -0.0261
12548TIP3    H159135   5.034   2.945  14.697 -1.0857 -0.4426 -0.2106
12548TIP3    H259136   5.044   3.088  14.648  0.4850 -0.4463  0.0474
12549TIP3   OH259137   4.717   0.218   6.332  0.3302 -0.0937  0.0345
12549TIP3    H159138   4.744   0.216   6.241  0.3057  0.1561  0.0223
12549TIP3    H259139   4.799   0.217   6.381  0.3475 -1.9390  0.0507
12550TIP3   OH259140   6.056   4.343  16.199  0.2998 -0.2170 -0.3595
12550TIP3    H159141   6.140   4.334  16.153  0.0435 -2.0996 -0.5361
12550TIP3    H259142   6.075   4.312  16.288  0.3309  1.6313  0.3337
12551TIP3   OH259143   4.964   0.615   2.758  0.1318  0.0602 -0.0985
12551TIP3    H159144   4.929   0.577   2.838 -1.5465 -0.8284 -1.2077
12551TIP3    H259145   5.038   0.669   2.788  0.8164 -1.8068  1.8184
12552TIP3   OH259146   4.543   0.390  10.341 -0.0955  0.3338  0.0330
12552TIP3    H159147   4.619   0.439  10.372 -0.0070  1.8386 -2.3156
12552TIP3    H259148   4.475   0.409  10.405  0.6710  1.4140  0.5644
12553TIP3   OH259149   0.906   3.269   0.222 -0.3712 -0.2457 -0.2666
12553TIP3    H159150   0.901   3.295   0.130  0.6014 -2.4860 -1.0374
12553TIP3    H259151   0.941   3.345   0.267  0.7832  0.3547 -2.0617
12554TIP3   OH259152   5.989   2.565  16.844 -0.8035 -0.3225 -0.6863
12554TIP3    H159153   5.938   2.538  16.920  1.3295 -2.9490 -0.0424
12554TIP3    H259154   6.056   2.623  16.878  0.7306 -2.2268 -0.2806
12555TIP3   OH259155   2.187   2.511  15.068 -0.8153 -0.2351  0.5546
12555TIP3    H159156   2.249   2.440  15.085 -0.2163  0.2187  0.3021
12555TIP3    H259157   2.146   2.526  15.153  0.0941  0.0759  0.9571
12556TIP3   OH259158   0.979   4.404   5.443  0.3850  0.0851 -0.0433
12556TIP3    H159159   0.949   4.368   5.527 -1.9852  2.7083  0.4078
12556TIP3    H259160   1.022   4.487   5.467 -0.1895  0.7990 -1.3927
12557TIP3   OH259161   5.851   0.101   3.996  0.0303 -0.2331  0.0510
12557TIP3    H159162   5.827   0.062   3.912 -0.4979  1.0884 -0.4442
12557TIP3    H259163   5.945   0.085   4.004  0.6333  1.7339 -2.0170
12558TIP3   OH259164   5.704   5.466   5.287  0.0098 -0.1130  0.0171
12558TIP3    H159165   5.711   5.371   5.277 -0.9992  0.0043 -3.0429
12558TIP3    H259166   5.792   5.495   5.308  0.6373 -1.6314 -0.3730
12559TIP3   OH259167   3.724   5.169  12.080  0.2412 -0.3479 -0.6854
12559TIP3    H159168   3.809   5.143  12.114  0.3524 -0.6626 -1.2033
12559TIP3    H259169   3.687   5.090  12.042  0.5258  0.1901 -2.1486
12560TIP3   OH259170   0.813   5.294   0.865  0.7638  0.1013  0.6061
12560TIP3    H159171   0.899   5.280   0.825  0.2498  0.8849 -0.8668
12560TIP3    H259172   0.780   5.374   0.823 -0.2227  0.4458  1.9638
12561TIP3   OH259173   2.111   2.743  11.973  0.2154  0.6130 -0.4357
12561TIP3    H159174   2.123   2.681  12.045 -2.6895 -1.2106 -1.3523
12561TIP3    H259175   2.190   2.734  11.920  1.0130 -0.3534  0.8598
12562TIP3   OH259176   0.710   1.913   3.243  0.0605  0.7054 -0.2631
12562TIP3    H159177   0.745   1.920   3.154  1.8198  0.4906  0.3848
12562TIP3    H259178   0.769   1.853   3.288 -2.4047 -1.4760  0.3095
12563TIP3   OH259179   4.415   6.382   1.648 -0.3990  0.2576  0.2797
12563TIP3    H159180   4.382   6.303   1.691 -0.3436 -0.1035 -0.3235
12563TIP3    H259181   4.479   6.349   1.584 -0.6618  0.7570 -0.2463
12564TIP3   OH259182   0.284   4.651   4.925 -0.0873 -0.0738 -0.1787
12564TIP3    H159183   0.262   4.579   4.984 -0.7825 -1.3288 -1.8721
12564TIP3    H259184   0.200   4.695   4.909  0.2780  0.9355  0.5829
12565TIP3   OH259185   4.098   5.851  15.904  0.3514  0.3677  0.1752
12565TIP3    H159186   4.091   5.763  15.867 -0.1505  0.2196  0.6183
12565TIP3    H259187   4.169   5.892  15.855  1.5666 -0.7588  0.9464
12566TIP3   OH259188   0.911   6.737   3.656  0.1632  0.0738 -0.4470
12566TIP3    H159189   0.920   6.693   3.571 -2.4536  0.1227 -0.8547
12566TIP3    H259190   0.893   6.666   3.717 -0.4457  0.2214 -0.4392
12567TIP3   OH259191   3.562   1.147   3.237  0.3362 -0.2093 -0.4378
12567TIP3    H159192   3.581   1.226   3.185 -0.6286  0.9012  0.8186
12567TIP3    H259193   3.528   1.181   3.320 -0.3027 -1.9719  0.0609
12568TIP3   OH259194   3.814   0.056   5.743  0.0799  0.0159 -0.1709
12568TIP3    H159195   3.801   0.112   5.820  1.1922  0.9610 -0.6431
12568TIP3    H259196   3.797  -0.033   5.775 -1.6975  0.5773  0.6127
12569TIP3   OH259197   4.898   1.774   1.420 -0.1294  0.1188 -0.3580
12569TIP3    H159198   4.909   1.741   1.331  2.2850 -1.3790  0.4080
12569TIP3    H259199   4.967   1.839   1.431  1.4421 -1.6972  1.2188
12570TIP3   OH259200   4.032   4.823   1.047 -0.9954  0.0729 -0.2360
12570TIP3    H159201   4.106   4.855   0.996 -0.0198 -0.8482  0.5542
12570TIP3    H259202   3.971   4.896   1.050  1.6605  2.3830  2.5878
12571TIP3   OH259203   2.311   2.644   3.054 -0.0520  0.0244 -0.3278
12571TIP3    H159204   2.264   2.607   2.979  0.6266 -0.4719 -0.5219
12571TIP3    H259205   2.392   2.593   3.059  0.0903  0.3132  0.5046
12572TIP3   OH259206   3.759   1.975  13.845  0.4503 -0.2007  0.6567
12572TIP3    H159207   3.692   2.015  13.900  0.6161 -1.2287  1.6347
12572TIP3    H259208   3.728   1.989  13.755 -0.8093 -0.1901  1.0771
12573TIP3   OH259209   1.276   3.167  16.634 -0.0941 -0.3646  0.1806
12573TIP3    H159210   1.263   3.074  16.653 -0.0350 -0.4717 -0.2849
12573TIP3    H259211   1.360   3.188  16.675  0.7370 -0.9468 -1.1332
12574TIP3   OH259212   1.432   3.571   2.492 -0.2196  0.6005 -0.6910
12574TIP3    H159213   1.456   3.661   2.516  2.1517 -0.4153  1.2970
12574TIP3    H259214   1.515   3.531   2.467 -1.3160 -0.9235 -2.0494
12575TIP3   OH259215   1.520   4.550  12.844  0.4640 -0.2506  0.0301
12575TIP3    H159216   1.593   4.494  12.816  0.0095  0.4374 -2.8491
12575TIP3    H259217   1.448   4.489  12.857  0.7259 -0.6258 -0.2381
12576TIP3   OH259218   0.817   1.212  15.687 -0.2007 -1.0669  0.4524
12576TIP3    H159219   0.907   1.240  15.703  0.2625 -2.4984  0.4581
12576TIP3    H259220   0.786   1.180  15.772 -2.1448  2.9805  1.5450
12577TIP3   OH259221   3.113   0.896  15.172 -0.0619 -0.2188 -0.5582
12577TIP3    H159222   3.162   0.856  15.100 -0.3988 -0.8051 -0.4687
12577TIP3    H259223   3.027   0.915  15.134 -0.2816 -0.6465 -0.2806
12578TIP3   OH259224   6.501   4.943  14.363  0.2621  0.4743  0.0132
12578TIP3    H159225   6.515   4.851  14.340 -1.0772 -0.0355  1.0420
12578TIP3    H259226   6.446   4.977  14.293 -0.5409  0.0211  0.3964
12579TIP3   OH259227   0.691   4.474  15.983 -0.6611 -0.9831 -0.2023
12579TIP3    H159228   0.777   4.478  15.941 -1.6247 -0.8071 -2.3089
12579TIP3    H259229   0.673   4.381  15.993  0.6422 -1.0383  2.2903
12580TIP3   OH259230   6.252   2.539   0.320 -0.0141  0.3110  0.0384
12580TIP3    H159231   6.341   2.508   0.304 -0.3164 -0.8843  0.5718
12580TIP3    H259232   6.242   2.615   0.261  1.2731  0.3401 -0.1692
12581TIP3   OH259233   5.793   0.105   5.521  0.3296 -0.4044 -0.2283
12581TIP3    H159234   5.755   0.097   5.608  0.7285 -0.5723 -0.0636
12581TIP3    H259235   5.794   0.199   5.503 -1.2455 -0.4597 -0.7375
12582TIP3   OH259236   3.678   5.564   2.264  0.0125  0.5727  0.3801
12582TIP3    H159237   3.665   5.541   2.172  0.9600  0.0495  0.3620
12582TIP3    H259238   3.594   5.602   2.291 -0.7100 -0.4384 -0.3420
12583TIP3   OH259239   2.169   0.482   1.577 -0.5986  0.4770 -0.6242
12583TIP3    H159240   2.206   0.454   1.661 -0.4946 -2.0615 -1.4270
12583TIP3    H259241   2.227   0.553   1.547  0.2799  0.3525  0.7149
12584TIP3   OH259242   4.250   4.400  10.528 -0.5624 -0.0312  0.2594
12584TIP3    H159243   4.262   4.410  10.433 -0.7651  1.7837  0.3931
12584TIP3    H259244   4.168   4.446  10.546 -2.0676 -2.7387  0.9618
12585TIP3   OH259245   3.035   4.833   4.407  0.7451 -0.0896  0.0087
12585TIP3    H159246   2.947   4.798   4.395  1.3933 -1.5142 -0.7258
12585TIP3    H259247   3.092   4.756   4.411  1.8953  0.7683  1.2046
12586TIP3   OH259248   4.749   6.463  16.052 -0.4955  0.1359 -0.2201
12586TIP3    H159249   4.788   6.541  16.013  0.1739  0.7972  1.6204
12586TIP3    H259250   4.756   6.479  16.147  0.7351 -2.6757  0.2389
12587TIP3   OH259251   3.749   2.368   3.799 -0.2873 -0.4302  0.0162
12587TIP3    H159252   3.765   2.460   3.776  0.2416 -0.8877 -1.5687
12587TIP3    H259253   3.804   2.318   3.738 -2.1688 -1.8615 -0.6088
12588TIP3   OH259254   4.004   2.414   3.340 -0.4324  0.3572  0.0619
12588TIP3    H159255   4.061   2.479   3.381 -0.0381  0.3530 -0.4553
12588TIP3    H259256   3.919   2.457   3.333  0.3276  1.7072 -2.2612
12589TIP3   OH259257   6.436   6.504   3.282 -0.5368 -0.6085  0.2435
12589TIP3    H159258   6.418   6.480   3.191 -0.0602 -0.7159  0.1739
12589TIP3    H259259   6.511   6.564   3.277 -0.2569 -0.9255  0.5907
12590TIP3   OH259260   2.424   5.059   4.473  0.3741 -0.3967 -0.0689
12590TIP3    H159261   2.375   5.059   4.391 -0.9416  1.2702  0.6484
12590TIP3    H259262   2.484   4.985   4.466  1.1946  0.4209 -3.0417
12591TIP3   OH259263   5.100   4.643   5.469 -0.4980  0.4226  0.4330
12591TIP3    H159264   5.121   4.735   5.486 -0.7395  0.1591  2.3570
12591TIP3    H259265   5.173   4.594   5.505 -0.8432 -0.1773  0.3305
12592TIP3   OH259266   6.060   3.806   1.949 -1.1724  0.3334  0.3054
12592TIP3    H159267   6.091   3.881   2.000  0.1130  0.5369 -0.7155
12592TIP3    H259268   6.001   3.760   2.008 -0.0531  0.7739  1.8471
12593TIP3   OH259269   0.632   3.351   5.640 -0.4217  0.0820 -0.3551
12593TIP3    H159270   0.606   3.437   5.674 -0.9186 -0.6168  1.0727
12593TIP3    H259271   0.555   3.296   5.651  0.8026 -1.3621  1.6139
12594TIP3   OH259272   5.286   1.858   1.724 -0.1960  0.5564 -0.0107
12594TIP3    H159273   5.207   1.809   1.744 -1.1126  1.7155 -0.6362
12594TIP3    H259274   5.311   1.899   1.807 -0.3305  0.3060  0.1549
12595TIP3   OH259275   2.963   3.769   2.036 -0.1929  0.1383 -0.1777
12595TIP3    H159276   3.028   3.837   2.054 -0.7964  0.5643  0.4324
12595TIP3    H259277   2.997   3.723   1.959  1.2233 -0.1648  0.6030
12596TIP3   OH259278   2.463   2.266   6.131 -0.0755 -0.3263 -0.1866
12596TIP3    H159279   2.530   2.199   6.115 -0.4876 -0.7509 -0.1649
12596TIP3    H259280   2.510   2.349   6.127  0.1299 -0.4909 -2.0819
12597TIP3   OH259281   3.632   2.694  13.306  0.2332  0.3976  0.0035
12597TIP3    H159282   3.723   2.666  13.298  0.5298  1.7279 -2.1090
12597TIP3    H259283   3.600   2.650  13.385  1.9918 -1.9969 -0.4961
12598TIP3   OH259284   0.101   0.430  13.068 -0.2365  0.1073  1.3314
12598TIP3    H159285   0.048   0.364  13.023  1.3277 -0.5453  0.3401
12598TIP3    H259286   0.126   0.389  13.151 -0.9816  0.2773  1.6409
12599TIP3   OH259287   2.682   2.483   4.684  0.3455  0.1558  0.7117
12599TIP3    H159288   2.631   2.503   4.605  0.3776  0.6645  0.8180
12599TIP3    H259289   2.762   2.535   4.674  0.9357 -0.7732  0.4561
12600TIP3   OH259290   2.146   1.722  13.376 -0.5378 -0.1110 -0.4409
12600TIP3    H159291   2.230   1.724  13.331 -0.6059 -0.7891 -0.6006
12600TIP3    H259292   2.091   1.663  13.324 -0.8340 -0.3622  0.1415
12601TIP3   OH259293   2.116   2.358   4.389 -0.7136  0.9269  0.1113
12601TIP3    H159294   2.098   2.264   4.386  0.9177  0.6245 -0.9426
12601TIP3    H259295   2.178   2.373   4.319  0.1717  2.5584  1.1855
12602TIP3   OH259296   5.855   0.379   5.427  0.3131  0.5483  0.0063
12602TIP3    H159297   5.849   0.384   5.332  2.2211  1.3249 -0.1119
12602TIP3    H259298   5.816   0.461   5.458 -1.1934 -0.1186 -0.0040
12603TIP3   OH259299   0.450   0.267   2.855 -0.3004  0.4778 -0.7350
12603TIP3    H159300   0.377   0.205   2.856  0.2136 -0.1307 -0.5244
12603TIP3    H259301   0.408   0.353   2.845 -1.0207  0.1075 -0.9739
12604TIP3   OH259302   3.578   3.674   2.107 -0.1208  0.3230 -0.1188
12604TIP3    H159303   3.484   3.660   2.114  0.0503 -0.7427  0.2159
12604TIP3    H259304   3.604   3.624   2.029  0.7337 -2.7181  1.9284
12605TIP3   OH259305   2.553   5.127  13.584  0.1782 -0.6115 -0.3026
12605TIP3    H159306   2.465   5.104  13.556  0.4103 -1.4365 -0.3923
12605TIP3    H259307   2.560   5.221  13.567 -1.0414 -0.3160  0.7187
12606TIP3   OH259308   4.158   3.444   0.265 -0.2796 -0.2133  0.2260
12606TIP3    H159309   4.071   3.406   0.255  0.0901 -1.5250  1.6244
12606TIP3    H259310   4.144   3.526   0.312 -0.8198  0.0423 -0.3632
12607TIP3   OH259311   5.938   1.159  10.480  0.3801  0.5949  0.4097
12607TIP3    H159312   5.956   1.103  10.404 -0.6296  0.1377  0.4973
12607TIP3    H259313   5.994   1.123  10.549  0.8534  0.6382  0.0546
12608TIP3   OH259314   6.745   1.573   5.241 -0.1070  0.0233 -0.4763
12608TIP3    H159315   6.766   1.535   5.156 -0.1138 -0.5143 -0.2375
12608TIP3    H259316   6.650   1.568   5.247 -0.0149 -1.2094  0.1478
12609TIP3   OH259317   2.466   0.021   4.387  0.3424 -0.1180  0.4549
12609TIP3    H159318   2.488  -0.062   4.428 -0.6226 -0.2336  0.7745
12609TIP3    H259319   2.419   0.069   4.455 -1.1721 -0.2587 -0.4417
12610TIP3   OH259320   1.110   0.154  15.250 -0.1951  0.1044  0.1984
12610TIP3    H159321   1.131   0.091  15.181 -1.3617 -1.0474  0.8477
12610TIP3    H259322   1.017   0.173  15.238 -0.1803  0.6560  0.8636
12611TIP3   OH259323   0.487   6.582  11.465 -0.4889  0.6443 -0.2549
12611TIP3    H159324   0.496   6.493  11.499 -2.5006 -0.4063 -2.2208
12611TIP3    H259325   0.559   6.591  11.402 -1.2170 -0.2560 -1.2573
12612TIP3   OH259326   3.904   6.360   4.228  0.2043 -0.4636  0.3975
12612TIP3    H159327   3.821   6.360   4.180  1.1223 -0.4309 -1.2795
12612TIP3    H259328   3.966   6.318   4.168  1.8881  1.4855  0.6516
12613TIP3   OH259329   4.722   5.692   2.936  0.1578 -0.1566 -0.4196
12613TIP3    H159330   4.788   5.637   2.978 -0.4762  0.1411  1.0265
12613TIP3    H259331   4.748   5.781   2.956 -0.0486  0.0006 -0.8366
12614TIP3   OH259332   6.731   3.896   3.904 -0.1762  0.8838  0.1467
12614TIP3    H159333   6.827   3.894   3.905 -0.1625 -1.0672  1.9680
12614TIP3    H259334   6.709   3.989   3.897  1.8526  1.4433  0.5069
12615TIP3   OH259335   2.856   5.855   0.067  0.7126  0.2814  0.0873
12615TIP3    H159336   2.819   5.816  -0.012  0.3897 -0.2837  0.5121
12615TIP3    H259337   2.794   5.924   0.091 -0.4165 -1.0208  1.1089
12616TIP3   OH259338   1.588   5.129  11.396 -0.3667  0.3596  0.3138
12616TIP3    H159339   1.561   5.081  11.474  0.6805 -2.5447 -0.9824
12616TIP3    H259340   1.506   5.156  11.355 -1.2474 -2.8176 -0.2952
12617TIP3   OH259341   0.304   1.122   0.736  0.2333 -0.0971 -0.5562
12617TIP3    H159342   0.352   1.204   0.724  0.1921 -0.2516 -1.9371
12617TIP3    H259343   0.326   1.069   0.659 -0.8359 -0.8335 -0.3910
12618TIP3   OH259344   0.138   3.957   3.890 -0.3634 -0.4841  0.5960
12618TIP3    H159345   0.155   3.907   3.970  1.2185  0.7186  1.0797
12618TIP3    H259346   0.225   3.978   3.856 -1.0112 -0.7681 -1.3463
12619TIP3   OH259347   6.224   4.771  16.779 -0.1541  0.3224 -0.4875
12619TIP3    H159348   6.313   4.735  16.771  0.5353  2.0713 -1.1000
12619TIP3    H259349   6.182   4.715  16.844  2.1757  0.8962  1.6630
12620TIP3   OH259350   6.154   5.424  14.936  0.6861 -0.3851 -0.3572
12620TIP3    H159351   6.079   5.365  14.938  2.1830 -2.3798  0.1885
12620TIP3    H259352   6.160   5.458  15.025 -0.3650  0.9342 -0.7475
12621TIP3   OH259353   1.751   1.877   4.848  0.0427 -0.5382 -0.5289
12621TIP3    H159354   1.747   1.812   4.918 -0.6715  0.2690  0.1963
12621TIP3    H259355   1.659   1.899   4.830  0.2855  1.4370  0.3715
12622TIP3   OH259356   6.425   4.188   5.437  0.0213  0.8654  0.7723
12622TIP3    H159357   6.385   4.255   5.493  0.8359 -0.2570  2.8188
12622TIP3    H259358   6.366   4.113   5.444 -0.7620  1.2070 -1.3165
12623TIP3   OH259359   0.448   0.215  15.224 -0.1304  0.7922 -0.1261
12623TIP3    H159360   0.383   0.223  15.294 -0.2369  1.2375 -0.2711
12623TIP3    H259361   0.402   0.171  15.153  0.0355  0.1592  0.1505
12624TIP3   OH259362   1.206   6.067  16.844 -0.3124 -0.2846  0.0448
12624TIP3    H159363   1.156   6.056  16.925  0.2053 -1.1983  0.2547
12624TIP3    H259364   1.239   6.156  16.848  1.7644 -1.0405  2.0395
12625TIP3   OH259365   4.341   6.526  14.672 -0.1445 -0.4301 -0.1240
12625TIP3    H159366   4.270   6.562  14.618  0.8192  1.0329 -0.4761
12625TIP3    H259367   4.306   6.527  14.761 -0.6756 -0.0156 -0.3315
12626TIP3   OH259368   6.817   2.138   5.550 -0.1216 -0.1418 -0.1129
12626TIP3    H159369   6.763   2.217   5.535  0.3045  0.4544  1.3396
12626TIP3    H259370   6.854   2.119   5.464 -1.9393 -0.0522 -0.9753
12627TIP3   OH259371   4.526   6.392   2.164  0.1682 -0.2783 -0.0337
12627TIP3    H159372   4.557   6.324   2.224  0.7717  0.2500  0.2623
12627TIP3    H259373   4.567   6.473   2.195  0.9217 -0.0819 -1.4608
12628TIP3   OH259374   1.944   4.522   5.345 -0.2091  0.4332 -0.5747
12628TIP3    H159375   1.856   4.558   5.358 -1.2637 -2.2675  0.6058
12628TIP3    H259376   1.993   4.550   5.422 -0.9987 -0.5068  0.3073
12629TIP3   OH259377   1.038   0.784  16.382 -0.1216 -0.3317 -0.2898
12629TIP3    H159378   1.099   0.858  16.384  0.1510 -0.5468 -0.6592
12629TIP3    H259379   0.951   0.825  16.382  0.0117  0.0531 -2.4148
12630TIP3   OH259380   5.772   4.951  16.249 -0.1738  0.1149 -0.5187
12630TIP3    H159381   5.701   4.910  16.299 -0.2553  1.3619  0.4227
12630TIP3    H259382   5.844   4.960  16.312  0.6151 -0.5710 -1.3016
12631TIP3   OH259383   5.236   0.841  16.710 -0.0197 -0.2287  0.0187
12631TIP3    H159384   5.287   0.891  16.646 -0.0210  0.6773  0.7029
12631TIP3    H259385   5.299   0.780  16.749  0.1078 -0.4000 -0.4563
12632TIP3   OH259386   2.303   4.684  16.015  0.8280  0.5444  0.1101
12632TIP3    H159387   2.263   4.770  16.011 -0.2707  0.0758  0.5909
12632TIP3    H259388   2.231   4.623  15.999  1.7983 -0.2718 -1.4295
12633TIP3   OH259389   1.257   2.055  13.115 -0.1269 -0.2619  0.2511
12633TIP3    H159390   1.303   2.137  13.133  1.3754 -0.9257 -0.3169
12633TIP3    H259391   1.237   2.019  13.201 -0.3491  0.4550  0.5033
12634TIP3   OH259392   0.735   0.109   1.963  0.1908  0.3204 -0.1707
12634TIP3    H159393   0.715   0.089   2.055  0.4758  1.2845  0.1113
12634TIP3    H259394   0.791   0.036   1.935 -1.2136 -0.8444 -0.0849
12635TIP3   OH259395   4.744   4.120   2.985  0.0264 -0.3320  0.1680
12635TIP3    H159396   4.764   4.121   2.891  0.7468  0.4875  0.3138
12635TIP3    H259397   4.725   4.212   3.006  2.7161  0.0472  1.3742
12636TIP3   OH259398   2.155   4.977   1.157 -0.6171  0.1400  0.1501
12636TIP3    H159399   2.087   5.008   1.097  0.6090  0.8140 -0.9449
12636TIP3    H259400   2.195   5.058   1.191  0.5021 -0.2396 -0.2422
12637TIP3   OH259401   2.129   6.369   0.166 -0.0688  0.3940  0.0039
12637TIP3    H159402   2.210   6.383   0.115 -0.6056  0.6031 -0.8183
12637TIP3    H259403   2.060   6.403   0.109 -0.6844  0.7046  0.9271
12638TIP3   OH259404   1.595   4.284  13.888 -0.1840 -0.4392 -0.0108
12638TIP3    H159405   1.560   4.287  13.799  1.6264 -0.8336 -0.7861
12638TIP3    H259406   1.545   4.215  13.931  2.0789 -3.7699 -2.2566
12639TIP3   OH259407   2.682   1.293  16.040 -0.4920  0.0404  0.0425
12639TIP3    H159408   2.755   1.344  16.076 -1.2832  1.8116 -0.7314
12639TIP3    H259409   2.616   1.293  16.109 -1.0480  1.3576 -0.4412
12640TIP3   OH259410   1.419   2.814   0.398 -0.9588  0.0652  0.3064
12640TIP3    H159411   1.412   2.783   0.308  4.0114  1.0609 -0.7509
12640TIP3    H259412   1.482   2.754   0.439 -1.7662  0.6894  2.6008
12641TIP3   OH259413   1.832   6.178   0.436  0.5508  0.1999  0.7226
12641TIP3    H159414   1.743   6.206   0.454  0.2869 -0.5983  0.7052
12641TIP3    H259415   1.824   6.086   0.411  1.1760  0.6036 -1.1204
12642TIP3   OH259416   0.885   2.299  15.592 -0.4247  0.1148 -0.1286
12642TIP3    H159417   0.817   2.354  15.631 -1.0398 -1.4669  1.1435
12642TIP3    H259418   0.836   2.236  15.538  0.3138  1.2531 -2.2460
12643TIP3   OH259419   3.920   1.094   1.974 -0.4377  0.1582 -0.5239
12643TIP3    H159420   3.984   1.024   1.969 -0.3029 -0.0612  2.4934
12643TIP3    H259421   3.836   1.050   1.984 -0.3847  0.3970  1.1044
12644TIP3   OH259422   2.992   0.060   4.334 -0.5680  0.6924 -0.0382
12644TIP3    H159423   2.916   0.073   4.391  0.1881 -0.6849  1.3624
12644TIP3    H259424   2.999  -0.035   4.325  0.9227  0.8015 -0.2432
12645TIP3   OH259425   4.118   6.149   6.401  0.2906  0.2969  0.2648
12645TIP3    H159426   4.036   6.145   6.353 -2.1034  2.1440  3.8038
12645TIP3    H259427   4.127   6.063   6.442  0.9412 -0.3609 -1.1703
12646TIP3   OH259428   3.906   3.077  13.102  0.4774 -0.3963  0.1259
12646TIP3    H159429   3.978   3.025  13.067  0.0958 -3.5342  3.3526
12646TIP3    H259430   3.942   3.118  13.181 -0.8166 -0.7092  0.9091
12647TIP3   OH259431   4.510   3.083   2.035  0.3235  0.0514 -0.4223
12647TIP3    H159432   4.464   3.064   2.117 -1.6876  0.0130 -1.4855
12647TIP3    H259433   4.511   3.179   2.029 -0.8240  0.0442 -0.9991
12648TIP3   OH259434   2.748   1.574  16.445 -0.6999 -0.0958 -0.7365
12648TIP3    H159435   2.725   1.611  16.360 -0.4301  0.7226 -0.4657
12648TIP3    H259436   2.669   1.587  16.499 -0.2803  1.0024 -0.3562
12649TIP3   OH259437   1.063   5.476  11.710  0.2222 -0.2663  0.2626
12649TIP3    H159438   1.013   5.470  11.628  0.4734  0.4636  0.0377
12649TIP3    H259439   1.014   5.538  11.764 -0.5749 -1.6397  1.1556
12650TIP3   OH259440   5.057   2.168   3.003 -0.1184  0.0447 -0.3115
12650TIP3    H159441   5.108   2.091   2.978  1.3371  1.4022 -1.7568
12650TIP3    H259442   4.966   2.143   2.986  0.1358 -1.9269  0.9324
12651TIP3   OH259443   5.425   0.195  14.466  0.1019 -0.3141 -0.4698
12651TIP3    H159444   5.384   0.173  14.382  1.4616  0.8512 -1.4722
12651TIP3    H259445   5.388   0.131  14.527 -2.1266 -0.2104 -1.5860
12652TIP3   OH259446   4.613   6.657  16.613  0.3665 -0.9517 -0.8305
12652TIP3    H159447   4.602   6.569  16.578 -0.0849 -1.3166  0.1783
12652TIP3    H259448   4.557   6.712  16.559  0.7214 -1.2643 -1.5276
12653TIP3   OH259449   0.082   6.187  13.703  0.3065  0.0569 -0.1276
12653TIP3    H159450   0.068   6.112  13.646  3.7744 -0.9305  0.1060
12653TIP3    H259451   0.095   6.261  13.644 -4.9099  1.1623 -0.3779
12654TIP3   OH259452   3.414   4.432   5.003 -0.4690 -0.1811  0.4833
12654TIP3    H159453   3.506   4.407   5.011  0.4220  3.0347  2.3075
12654TIP3    H259454   3.408   4.479   4.920 -1.3181 -3.0284 -1.1912
12655TIP3   OH259455   6.228   2.791  16.649  0.0240  0.3283 -0.5283
12655TIP3    H159456   6.307   2.833  16.616  1.0076  0.1348  1.4007
12655TIP3    H259457   6.229   2.810  16.743 -2.0215 -0.0314 -0.4027
12656TIP3   OH259458   0.500   1.665   5.287  0.1304  0.5719 -0.0588
12656TIP3    H159459   0.565   1.605   5.326 -0.2609  0.2471  0.1115
12656TIP3    H259460   0.470   1.718   5.361  0.1557  0.6752 -0.1233
12657TIP3   OH259461   3.641   6.645  11.137  0.1900  0.2852 -0.2639
12657TIP3    H159462   3.665   6.584  11.068 -0.2254 -1.2450  0.8712
12657TIP3    H259463   3.661   6.598  11.218 -1.4139  1.1068  0.6752
12658TIP3   OH259464   5.659   4.414  11.264  0.2997 -0.2003 -0.6009
12658TIP3    H159465   5.679   4.506  11.279 -0.1559 -0.2539  0.3720
12658TIP3    H259466   5.584   4.415  11.205  0.1736  0.0525 -0.4368
12659TIP3   OH259467   6.133   4.953   6.178 -0.1635  0.1046  0.1117
12659TIP3    H159468   6.058   4.998   6.140  0.0789  0.3860 -0.0457
12659TIP3    H259469   6.152   5.001   6.259 -0.9717 -0.7836  0.8526
12660TIP3   OH259470   2.711   2.183   4.672  0.2380 -0.5451  0.0141
12660TIP3    H159471   2.704   2.278   4.659  0.1844 -0.2848  1.7847
12660TIP3    H259472   2.797   2.171   4.714  1.4563 -1.5941 -2.5446
12661TIP3   OH259473   5.605   1.874   1.448  0.0796 -0.0464  0.0278
12661TIP3    H159474   5.611   1.860   1.542 -1.3262  1.7421  0.4509
12661TIP3    H259475   5.656   1.954   1.432 -1.2258  0.7502 -0.3708
12662TIP3   OH259476   0.643   3.990  12.037 -0.1445 -0.0643 -0.4116
12662TIP3    H159477   0.597   3.948  11.965 -1.5179  1.2072 -0.3345
12662TIP3    H259478   0.735   3.969  12.023 -0.2468  0.8581 -3.0611
12663TIP3   OH259479   4.880   3.858  13.962  0.4116  0.2948 -0.1308
12663TIP3    H159480   4.888   3.950  13.938  1.0441  0.4004  0.4339
12663TIP3    H259481   4.965   3.820  13.938 -0.7565 -0.7826 -2.9116
12664TIP3   OH259482   1.142   1.599  12.612 -0.3851 -0.2711 -0.0451
12664TIP3    H159483   1.105   1.541  12.678  1.4062 -1.5137 -0.0568
12664TIP3    H259484   1.187   1.541  12.551 -0.0568  1.0182 -1.0861
12665TIP3   OH259485   1.337   4.865  13.666 -0.1160  0.0532  0.2237
12665TIP3    H159486   1.242   4.863  13.656 -0.1607  1.9096 -0.0958
12665TIP3    H259487   1.369   4.811  13.594 -0.9236 -0.7389  0.4413
12666TIP3   OH259488   0.033   4.940   6.103  0.2215 -0.2004  0.3242
12666TIP3    H159489  -0.029   4.892   6.158  1.0184 -0.1979  1.2571
12666TIP3    H259490   0.027   5.031   6.133 -0.7593  0.1851 -0.9519
12667TIP3   OH259491   1.506   1.257  13.978  0.1236  0.1240 -0.2325
12667TIP3    H159492   1.555   1.330  14.016  0.8583 -0.2837 -0.3599
12667TIP3    H259493   1.423   1.255  14.026  0.1721  0.9295 -0.1131
12668TIP3   OH259494   6.319   5.834  10.683  0.1006  0.2719 -0.0940
12668TIP3    H159495   6.250   5.895  10.708  0.5552  0.9293 -0.3974
12668TIP3    H259496   6.399   5.873  10.717  0.0424 -2.1189  3.1990
12669TIP3   OH259497   2.832   4.525  11.705  0.3185  0.6539 -0.3557
12669TIP3    H159498   2.841   4.577  11.625 -0.5047  0.7121 -0.4255
12669TIP3    H259499   2.751   4.558  11.744  0.0938 -0.1900 -0.1073
12670TIP3   OH259500   5.939   0.795   4.419 -0.0155  1.3555  0.2352
12670TIP3    H159501   5.952   0.872   4.363  0.9782 -0.9053 -2.8648
12670TIP3    H259502   6.027   0.760   4.432 -0.6052 -0.2739 -0.0048
12671TIP3   OH259503   0.940   5.222  14.735 -0.1309 -0.2141  0.0337
12671TIP3    H159504   0.970   5.233  14.825 -0.9806  3.4259  0.0033
12671TIP3    H259505   0.854   5.180  14.745 -1.0036  1.7142  1.1064
12672TIP3   OH259506   6.279   5.778   4.661  0.1562  0.0857 -0.4485
12672TIP3    H159507   6.229   5.732   4.593 -2.8286  0.5620  1.2689
12672TIP3    H259508   6.304   5.861   4.621  1.8087 -1.1463 -2.1417
12673TIP3   OH259509   0.355   4.002   6.365 -0.1571  0.0438 -0.0716
12673TIP3    H159510   0.337   3.908   6.354 -3.2849  0.6060 -0.8694
12673TIP3    H259511   0.304   4.027   6.443 -2.7038  1.7102 -2.0942
12674TIP3   OH259512   2.174   2.039   3.704  0.4491 -0.2734 -0.3333
12674TIP3    H159513   2.260   2.080   3.691  1.6268 -2.4674  0.1058
12674TIP3    H259514   2.155   2.050   3.797 -0.4288  1.3920 -0.6755
12675TIP3   OH259515   5.176   2.430  11.417 -0.2327  0.7404 -0.0129
12675TIP3    H159516   5.178   2.348  11.465 -1.3813  0.9830  0.4983
12675TIP3    H259517   5.213   2.409  11.331 -2.3233 -0.8446 -0.6258
12676TIP3   OH259518   0.860   3.490   3.979  0.0827  0.9356  0.5042
12676TIP3    H159519   0.875   3.437   4.058 -1.1382 -0.8454 -0.3697
12676TIP3    H259520   0.874   3.580   4.007  3.7153  0.1541  1.7539
12677TIP3   OH259521   5.260   0.073  11.339  0.4749  0.3755 -0.0478
12677TIP3    H159522   5.185   0.066  11.280  1.7820  0.2232 -1.7663
12677TIP3    H259523   5.223   0.066  11.427 -1.3513 -1.1964 -0.8797
12678TIP3   OH259524   1.776   5.245  17.114  0.5110  0.1192  0.7958
12678TIP3    H159525   1.823   5.329  17.118  1.2304 -0.0630 -1.6452
12678TIP3    H259526   1.845   5.181  17.096 -0.2356 -0.7560  1.0280
12679TIP3   OH259527   3.213   0.763  10.339  0.1057  0.2936 -0.7976
12679TIP3    H159528   3.251   0.850  10.327 -0.8301  1.0846  1.3356
12679TIP3    H259529   3.121   0.779  10.358  0.0989 -1.0635  0.5561
12680TIP3   OH259530   3.046   5.386   4.632  0.2747  0.3267 -0.3102
12680TIP3    H159531   2.991   5.352   4.561 -0.1775 -1.3698  0.7889
12680TIP3    H259532   3.109   5.316   4.648 -0.0256  0.4124  1.3686
12681TIP3   OH259533   3.277   6.395  16.227 -0.3347  0.2648  0.2681
12681TIP3    H159534   3.237   6.435  16.304 -2.3257  0.9180 -1.0464
12681TIP3    H259535   3.330   6.465  16.188  1.0831 -0.2072  1.2487
12682TIP3   OH259536   3.513   4.217   0.692  0.5545 -0.2660  0.1146
12682TIP3    H159537   3.454   4.165   0.745  0.6486 -0.4608  0.0289
12682TIP3    H259538   3.464   4.298   0.673  0.3528 -0.3852  0.1235
12683TIP3   OH259539   3.554   6.848   3.484  0.0626  0.4097  0.0708
12683TIP3    H159540   3.577   6.815   3.397  2.2325 -1.6392  1.3002
12683TIP3    H259541   3.478   6.796   3.510  0.8408 -0.6652  0.2748
12684TIP3   OH259542   0.694   6.503  13.980  0.1062  0.2053  0.8096
12684TIP3    H159543   0.760   6.448  13.937 -0.5329 -0.9487  1.2562
12684TIP3    H259544   0.735   6.589  13.986  1.0624 -0.1642 -0.0994
12685TIP3   OH259545   6.592   2.806   0.915 -0.3864 -0.0103 -0.0578
12685TIP3    H159546   6.645   2.885   0.922 -0.4330  0.0136  0.0299
12685TIP3    H259547   6.527   2.826   0.848  0.7951 -0.6597 -1.4517
12686TIP3   OH259548   5.874   2.775   0.546  0.1439 -0.1622 -0.1326
12686TIP3    H159549   5.782   2.782   0.570  0.0830  1.4546 -0.7427
12686TIP3    H259550   5.901   2.864   0.525  1.9850 -0.5242  0.4635
12687TIP3   OH259551   6.196   4.412  12.352 -0.1557 -0.2468 -0.2817
12687TIP3    H159552   6.245   4.330  12.362  1.3245  0.5430 -0.7749
12687TIP3    H259553   6.236   4.472  12.414  0.9599  1.0332 -2.1504
12688TIP3   OH259554   3.974   2.101   4.103 -0.5518 -0.2145 -0.1899
12688TIP3    H159555   3.935   2.104   4.016 -2.2089  0.6695  0.5355
12688TIP3    H259556   3.911   2.146   4.160  0.5469 -0.6231  1.4475
12689TIP3   OH259557   1.812   2.959  11.743  0.3723  0.0113  0.0136
12689TIP3    H159558   1.746   3.028  11.744  1.7366  1.4060 -0.8743
12689TIP3    H259559   1.804   2.919  11.657  1.1573  0.6996 -0.3933
12690TIP3   OH259560   1.897   3.694  11.449  0.1316  0.4391 -0.0580
12690TIP3    H159561   1.834   3.732  11.510  1.9693  0.8602  1.6912
12690TIP3    H259562   1.861   3.608  11.427 -1.4205  0.9913  0.2329
12691TIP3   OH259563   2.222   5.323  14.432  0.0709 -0.1514 -0.6275
12691TIP3    H159564   2.263   5.409  14.443 -0.9493  0.1704  1.1544
12691TIP3    H259565   2.128   5.341  14.439 -0.2307 -1.2546 -1.5751
12692TIP3   OH259566   3.822   1.847  13.467  0.0655  0.4297 -0.4395
12692TIP3    H159567   3.830   1.791  13.544 -0.1300  1.0636  0.0483
12692TIP3    H259568   3.833   1.787  13.393  0.8673 -0.0866  0.0795
12693TIP3   OH259569   5.438   0.860   4.174  0.3405  0.1780  0.4406
12693TIP3    H159570   5.384   0.832   4.248  1.5330 -1.6253  0.6718
12693TIP3    H259571   5.528   0.849   4.204  0.8533  0.7198 -0.8302
12694TIP3   OH259572   6.338   0.966   1.077  0.1725 -0.7599 -0.2420
12694TIP3    H159573   6.282   0.991   1.003 -1.6256 -1.9972  0.6324
12694TIP3    H259574   6.387   1.046   1.098 -0.0450 -0.0969 -2.0808
12695TIP3   OH259575   0.689   1.599  16.872  0.5614  0.3851 -0.2391
12695TIP3    H159576   0.623   1.620  16.806  0.9483  2.9579  0.0904
12695TIP3    H259577   0.640   1.598  16.955  0.8490  2.3830  0.0165
12696TIP3   OH259578   3.793   1.287  11.538 -0.3055 -0.1183  0.1162
12696TIP3    H159579   3.722   1.265  11.599  1.5939 -0.7576  2.2324
12696TIP3    H259580   3.822   1.374  11.565 -0.2070  0.1025 -0.6793
12697TIP3   OH259581   2.930   2.905  12.168  0.0086  0.7753 -0.0155
12697TIP3    H159582   2.846   2.949  12.184 -1.3358 -0.7863 -2.1140
12697TIP3    H259583   2.969   2.955  12.096 -0.6908 -0.2960 -1.1946
12698TIP3   OH259584   5.643   1.239  13.563  0.4301  0.1131 -0.0030
12698TIP3    H159585   5.694   1.312  13.598 -2.1596  2.4302 -0.6566
12698TIP3    H259586   5.703   1.194  13.503  2.0052  1.9863  0.0805
12699TIP3   OH259587   2.884   6.249   4.368  0.2949  0.1387  0.2539
12699TIP3    H159588   2.896   6.259   4.463 -0.9128  0.7222  0.3625
12699TIP3    H259589   2.806   6.193   4.360  0.7181 -0.3698 -0.4023
12700TIP3   OH259590   2.070   2.708   0.206 -0.0601 -0.0988 -0.0570
12700TIP3    H159591   2.018   2.677   0.280  0.8716 -0.7869  0.3308
12700TIP3    H259592   2.156   2.667   0.218  0.1295 -0.1768 -1.4824
12701TIP3   OH259593   2.609   0.245   0.068 -0.3856 -0.0361 -0.4848
12701TIP3    H159594   2.520   0.265   0.097  0.2689 -0.4652  1.9951
12701TIP3    H259595   2.651   0.331   0.058 -1.1052  0.1814 -1.9455
12702TIP3   OH259596   1.567   3.803  11.261  0.3330  0.1953  0.9542
12702TIP3    H159597   1.604   3.756  11.336  0.2743 -0.7451  0.4177
12702TIP3    H259598   1.476   3.771  11.256  0.8318 -1.1332 -0.5575
12703TIP3   OH259599   2.268   6.022  12.947  0.1446 -0.5879 -0.3740
12703TIP3    H159600   2.334   6.039  12.880 -0.2604 -0.3553 -0.7192
12703TIP3    H259601   2.243   5.931  12.932 -0.0777 -0.4812 -0.6586
12704TIP3   OH259602   0.300   5.670   6.270  0.1648 -0.0517  0.0860
12704TIP3    H159603   0.298   5.712   6.184  0.5983 -1.2453 -0.5186
12704TIP3    H259604   0.244   5.593   6.261  3.5439 -2.6810 -0.5143
12705TIP3   OH259605   0.461   3.642   4.405  0.2843  0.1870  0.5924
12705TIP3    H159606   0.530   3.623   4.342  0.5525  0.4260  0.8097
12705TIP3    H259607   0.465   3.569   4.468  2.3920  1.6895  2.3523
12706TIP3   OH259608   0.550   6.467  14.488  0.4233  0.0596 -0.1890
12706TIP3    H159609   0.542   6.526  14.563 -1.1319  0.9722 -1.0009
12706TIP3    H259610   0.460   6.438  14.471  1.1349 -2.6755  0.2305
12707TIP3   OH259611   2.552   6.108   1.511  0.1452  0.4397  0.2662
12707TIP3    H159612   2.592   6.079   1.429 -1.1864 -1.7849  0.3255
12707TIP3    H259613   2.501   6.185   1.486 -0.5449 -0.4202 -1.1144
12708TIP3   OH259614   2.512   2.773  12.420 -0.5936 -0.2286  0.2754
12708TIP3    H159615   2.453   2.845  12.442 -0.7818 -0.6922  1.3292
12708TIP3    H259616   2.484   2.700  12.475 -1.1706 -1.5073 -1.6110
12709TIP3   OH259617   4.307   3.834   3.913 -0.0290 -0.0210  0.2747
12709TIP3    H159618   4.322   3.740   3.900 -1.5588 -0.0840 -1.4524
12709TIP3    H259619   4.228   3.837   3.967 -0.2561  0.2694 -0.0747
12710TIP3   OH259620   3.162   0.002   2.333  0.2965  0.1226 -0.5667
12710TIP3    H159621   3.076  -0.032   2.358  1.3841 -1.9498  0.5694
12710TIP3    H259622   3.191   0.053   2.409  0.1414  0.7340 -0.9088
12711TIP3   OH259623   2.208   6.131   1.160 -0.5638  0.3544 -0.3934
12711TIP3    H159624   2.160   6.187   1.099  0.8764 -1.0684 -3.0394
12711TIP3    H259625   2.152   6.126   1.237 -2.0606  3.0527 -1.1802
12712TIP3   OH259626   1.702   4.411   3.151 -0.5035 -0.7960 -0.0734
12712TIP3    H159627   1.661   4.325   3.161 -0.6589 -0.9006 -1.4370
12712TIP3    H259628   1.774   4.395   3.091  0.1458 -0.1664  0.5285
12713TIP3   OH259629   5.428   5.509   2.011 -0.6464 -0.1402  0.4547
12713TIP3    H159630   5.407   5.575   2.077  1.6271  1.2161 -0.0857
12713TIP3    H259631   5.496   5.549   1.957 -1.1583 -1.8853 -1.6418
12714TIP3   OH259632   0.237   0.534   0.525 -0.5748 -0.1102 -0.3267
12714TIP3    H159633   0.217   0.626   0.507  1.9214 -0.0309 -3.8085
12714TIP3    H259634   0.319   0.537   0.575 -0.8737 -0.4412  0.1864
12715TIP3   OH259635   6.482   0.245   6.067  0.0827 -0.4025 -0.5636
12715TIP3    H159636   6.399   0.205   6.043 -1.2422  1.4447  0.6828
12715TIP3    H259637   6.479   0.252   6.163  0.8828  1.2516 -0.6179
12716TIP3   OH259638   3.280   1.561  10.496  0.2934  0.0428 -0.1883
12716TIP3    H159639   3.250   1.639  10.543 -0.5840  0.6945 -1.7435
12716TIP3    H259640   3.247   1.487  10.549 -3.2386  0.7300 -1.1859
12717TIP3   OH259641   3.254   3.618   3.286  0.6214 -0.1478  0.2350
12717TIP3    H159642   3.199   3.597   3.211 -0.2820  0.5372  0.6859
12717TIP3    H259643   3.222   3.561   3.356  0.9128 -0.2021  0.3239
12718TIP3   OH259644   5.949   2.186  13.378  0.1599  0.4156  0.4920
12718TIP3    H159645   5.860   2.194  13.346 -1.1769 -0.6125  3.5751
12718TIP3    H259646   5.976   2.097  13.352 -0.1300  0.3428  0.4419
12719TIP3   OH259647   3.675   3.465  13.291 -0.3474  0.5381  0.1784
12719TIP3    H159648   3.633   3.400  13.235  1.1067 -0.3542  0.0716
12719TIP3    H259649   3.622   3.466  13.371 -1.5317  0.6895 -0.5853
12720TIP3   OH259650   5.335   1.268  14.462 -0.4724  0.0238 -0.1689
12720TIP3    H159651   5.277   1.298  14.532  1.7242  0.9731  1.3554
12720TIP3    H259652   5.393   1.204  14.505  1.1485  0.8923 -0.9917
12721TIP3   OH259653   5.998   4.517   2.656  0.0007  0.6093  0.2784
12721TIP3    H159654   5.991   4.434   2.703  1.2456  0.1704 -0.2836
12721TIP3    H259655   5.923   4.568   2.687  0.7504  0.3269  2.7037
12722TIP3   OH259656   0.923   6.538   4.906 -0.5818 -0.4888 -0.1805
12722TIP3    H159657   0.990   6.520   4.972 -1.2417  0.4931  0.7910
12722TIP3    H259658   0.905   6.453   4.865 -1.0255 -1.3588  1.7330
12723TIP3   OH259659   5.737   5.459  14.904 -0.7679  0.2736 -0.2138
12723TIP3    H159660   5.708   5.368  14.913 -2.7916  0.7468 -1.4328
12723TIP3    H259661   5.682   5.509  14.964 -1.2907  0.9685 -1.2481
12724TIP3   OH259662   4.987   1.340  10.597  0.3388  0.5317  0.0179
12724TIP3    H159663   5.070   1.296  10.619 -0.3637  0.2129  2.3208
12724TIP3    H259664   4.924   1.268  10.587  0.3126  0.7622 -1.8872
12725TIP3   OH259665   0.661   4.663   3.674 -0.1483  0.2363 -0.1213
12725TIP3    H159666   0.650   4.589   3.615  2.2653  0.3492 -0.8260
12725TIP3    H259667   0.591   4.724   3.651 -0.7379 -0.8092 -1.1438
12726TIP3   OH259668   3.401   0.082   3.174 -0.0976  0.7147 -0.1244
12726TIP3    H159669   3.400  -0.013   3.159 -0.3307  0.6940  0.0137
12726TIP3    H259670   3.380   0.092   3.267  1.0371  0.8594  0.1275
12727TIP3   OH259671   0.123   0.448  17.102 -0.0953 -0.7490  0.2218
12727TIP3    H159672   0.091   0.394  17.030 -0.4363  0.2849 -0.4266
12727TIP3    H259673   0.112   0.394  17.180 -0.2481 -1.6734 -0.4325
12728TIP3   OH259674   0.020   4.437  10.844  0.8855 -0.7350  0.3204
12728TIP3    H159675  -0.021   4.438  10.931  0.0090  0.8218 -0.0703
12728TIP3    H259676  -0.024   4.367  10.797 -0.6839  0.2559  0.2376
12729TIP3   OH259677   1.308   5.398   4.909  0.1358  0.5094  0.1456
12729TIP3    H159678   1.395   5.394   4.949  0.9518 -0.9457 -1.6361
12729TIP3    H259679   1.302   5.487   4.874  0.1343  1.2071  1.8138
12730TIP3   OH259680   5.976   1.194  14.783 -0.2774  0.0965 -0.0240
12730TIP3    H159681   5.951   1.152  14.866 -0.9572  2.1216  0.8517
12730TIP3    H259682   5.894   1.228  14.748  0.5564  3.3376  0.8761
12731TIP3   OH259683   1.557   1.961  15.468 -0.3711 -0.5225  0.6290
12731TIP3    H159684   1.540   1.867  15.460 -1.5593 -0.2423 -0.6266
12731TIP3    H259685   1.517   1.987  15.551  3.3361 -1.7436  3.0527
12732TIP3   OH259686   5.826   6.070   2.523  0.1674 -0.4660  0.6252
12732TIP3    H159687   5.895   6.017   2.483 -0.3514 -2.3914  2.1039
12732TIP3    H259688   5.868   6.108   2.600 -0.0254 -0.4565  0.7254
12733TIP3   OH259689   1.287   3.539  11.929  0.6106 -0.1474 -0.0830
12733TIP3    H159690   1.330   3.484  11.994 -1.0257 -1.0110  0.3121
12733TIP3    H259691   1.262   3.618  11.978 -1.0208 -0.9820  0.5251
12734TIP3   OH259692   0.646   2.341   2.013 -0.1268 -0.0452 -1.0557
12734TIP3    H159693   0.725   2.300   1.979 -0.7210 -0.1583 -2.3609
12734TIP3    H259694   0.578   2.274   2.003 -0.8454  0.7860 -2.0258
12735TIP3   OH259695   0.434   1.248   1.882 -0.3523  0.5528 -0.0776
12735TIP3    H159696   0.512   1.298   1.908 -0.1500  0.6112 -0.7736
12735TIP3    H259697   0.466   1.187   1.816 -0.6037 -0.5039  0.7610
12736TIP3   OH259698   6.575   3.648  16.841 -0.2845 -0.2061  1.0271
12736TIP3    H159699   6.576   3.555  16.819  0.1293 -0.1782  0.9264
12736TIP3    H259700   6.643   3.687  16.786 -1.9598  0.5519 -0.6122
12737TIP3   OH259701   4.689   0.567   2.739  0.3455  0.5987  0.4088
12737TIP3    H159702   4.686   0.534   2.649 -1.3185  3.4840 -0.7433
12737TIP3    H259703   4.772   0.615   2.744  0.0264  1.1973  0.0796
12738TIP3   OH259704   3.893   1.553  11.600 -0.0431  0.3489 -0.4492
12738TIP3    H159705   3.860   1.637  11.632  1.2734  0.8100 -0.2441
12738TIP3    H259706   3.941   1.575  11.520 -0.0127 -0.2632 -0.6010
12739TIP3   OH259707   5.002   3.139  14.251 -0.5920  0.1302 -0.4558
12739TIP3    H159708   5.067   3.175  14.312 -0.3938 -0.1154 -0.5164
12739TIP3    H259709   5.020   3.183  14.168  0.1219 -0.6188 -0.7142
12740TIP3   OH259710   6.581   3.336  15.575  0.5520 -0.6996 -0.2585
12740TIP3    H159711   6.566   3.303  15.486 -0.3393 -0.5978 -0.1576
12740TIP3    H259712   6.508   3.301  15.626  2.1534 -2.5141  0.9315
12741TIP3   OH259713   0.018   6.466   2.594 -0.1270  0.4708  0.2983
12741TIP3    H159714  -0.020   6.540   2.642 -0.2846  0.7655 -0.2583
12741TIP3    H259715  -0.047   6.447   2.526 -0.0189 -0.0896  0.3492
12742TIP3   OH259716   2.794   1.747   5.607  0.0588 -0.1851  0.0533
12742TIP3    H159717   2.792   1.738   5.702  1.2889 -0.3213  0.0760
12742TIP3    H259718   2.734   1.820   5.589  0.5483  0.4822  1.0255
12743TIP3   OH259719   5.603   6.125   2.386  0.2411  0.0159  0.0922
12743TIP3    H159720   5.691   6.131   2.424  0.4488 -0.4773 -0.3076
12743TIP3    H259721   5.598   6.036   2.352  0.3320  0.6558 -1.6905
12744TIP3   OH259722   3.278   0.098   5.140 -0.0639  0.0527  0.0989
12744TIP3    H159723   3.308   0.105   5.230 -3.1657 -2.2378  1.5104
12744TIP3    H259724   3.357   0.084   5.088  1.6887 -0.1127  2.6555
12745TIP3   OH259725   5.671   2.320   2.600 -0.7027 -0.2293  0.4236
12745TIP3    H159726   5.619   2.244   2.627 -1.1465  0.4636  1.5679
12745TIP3    H259727   5.609   2.392   2.596 -0.8063 -0.3333 -3.0575
12746TIP3   OH259728   1.183   1.233   5.114 -0.3727 -0.3146  0.0969
12746TIP3    H159729   1.141   1.319   5.117 -0.7098 -0.4956  0.5681
12746TIP3    H259730   1.212   1.217   5.203  0.5473 -0.2752 -0.1764
12747TIP3   OH259731   0.881   3.415   1.640 -0.3240 -0.0420  0.7805
12747TIP3    H159732   0.890   3.467   1.560 -0.1779 -1.4165 -0.1393
12747TIP3    H259733   0.966   3.372   1.649 -1.1715 -1.9478  0.1502
12748TIP3   OH259734   4.740   4.370  17.096  0.2294 -0.2831  0.0186
12748TIP3    H159735   4.804   4.386  17.028 -0.0740 -1.4708 -0.5753
12748TIP3    H259736   4.792   4.348  17.174  0.5496 -1.0366 -0.4031
12749TIP3   OH259737   5.444   1.540  11.992 -0.0721  1.0205  0.0936
12749TIP3    H159738   5.512   1.607  11.982  2.5716 -1.4709  0.0632
12749TIP3    H259739   5.480   1.463  11.949 -1.1343 -1.6356  3.5166
12750TIP3   OH259740   0.017   0.880   1.383 -0.1144 -0.3460  0.4867
12750TIP3    H159741   0.084   0.938   1.420  0.9494 -0.6605 -0.8713
12750TIP3    H259742  -0.059   0.936   1.373 -0.0692  0.0423  1.9997
12751TIP3   OH259743   5.724   2.142  16.009 -0.1982  0.2781  0.1209
12751TIP3    H159744   5.801   2.159  15.954  0.5310  1.6878  1.4842
12751TIP3    H259745   5.686   2.229  16.025 -2.1424 -0.3902 -0.5581
12752TIP3   OH259746   3.942   0.364   0.911 -0.0448 -0.0940  0.3387
12752TIP3    H159747   3.991   0.285   0.891 -0.5885 -0.6540  1.1439
12752TIP3    H259748   3.961   0.424   0.839  0.9034 -0.7118  0.0644
12753TIP3   OH259749   1.562   4.030  16.896  0.0684  0.5519  0.2196
12753TIP3    H159750   1.595   3.945  16.925 -0.0590  0.4405  0.0421
12753TIP3    H259751   1.596   4.092  16.959  2.2492  0.7173 -1.0282
12754TIP3   OH259752   1.058   4.076  14.312 -0.3684  0.1379  0.2313
12754TIP3    H159753   1.146   4.073  14.273 -0.9811  0.8822 -1.3197
12754TIP3    H259754   1.019   3.993  14.288 -0.2835  0.0385  0.4349
12755TIP3   OH259755   0.277   2.454  14.058 -0.4728 -0.1143  0.3085
12755TIP3    H159756   0.305   2.365  14.080 -2.2682 -0.6347  0.6641
12755TIP3    H259757   0.208   2.442  13.993 -0.9135  1.0119  0.5453
12756TIP3   OH259758   0.913   4.365   2.298  0.1192 -0.4253  0.0587
12756TIP3    H159759   0.894   4.445   2.347 -0.7801 -0.5345 -0.0783
12756TIP3    H259760   0.875   4.381   2.212 -0.9386 -1.3539  0.3269
12757TIP3   OH259761   0.909   6.851   1.578 -0.0335  0.2964  0.0433
12757TIP3    H159762   0.834   6.792   1.580 -0.6967  0.9398 -2.1851
12757TIP3    H259763   0.884   6.924   1.634 -0.9625  0.3599 -0.4345
12758TIP3   OH259764   6.178   3.401   1.276 -0.2102 -0.6192  0.8213
12758TIP3    H159765   6.137   3.374   1.193 -0.7763 -1.3167  1.3206
12758TIP3    H259766   6.133   3.483   1.298  0.7977  0.2458 -0.1677
12759TIP3   OH259767   0.097   6.060   5.921 -0.3577  0.4139 -0.2600
12759TIP3    H159768   0.059   6.101   5.843 -0.5063 -0.6389 -0.7616
12759TIP3    H259769   0.064   6.113   5.994 -0.7365  1.0310 -0.8624
12760TIP3   OH259770   3.327   5.309  16.438  0.7171 -0.0554 -0.2762
12760TIP3    H159771   3.309   5.277  16.349  1.2189 -0.0586 -0.3767
12760TIP3    H259772   3.346   5.229  16.488  1.1404  0.0101 -0.3320
12761TIP3   OH259773   5.389   3.788  14.779 -0.1305 -0.1719 -0.2304
12761TIP3    H159774   5.294   3.776  14.768 -0.0894  0.6185 -1.6781
12761TIP3    H259775   5.398   3.829  14.864 -1.0211 -0.9730  0.2741
12762TIP3   OH259776   4.250   0.480  15.385 -0.0859  0.0314 -0.1776
12762TIP3    H159777   4.220   0.426  15.312 -0.6866  1.8332 -1.3189
12762TIP3    H259778   4.190   0.459  15.456 -0.1451 -0.9761 -0.5077
12763TIP3   OH259779   3.265   1.294   5.498  0.2238  0.1088  0.3131
12763TIP3    H159780   3.358   1.282   5.515  0.1435 -1.4122 -0.1146
12763TIP3    H259781   3.228   1.319   5.583  0.7420 -1.2416  0.9645
12764TIP3   OH259782   5.640   0.605   3.191 -0.7949  0.1326  0.2328
12764TIP3    H159783   5.611   0.583   3.279 -1.4580 -1.8159 -0.4295
12764TIP3    H259784   5.727   0.644   3.204 -1.5081  1.3108  1.8337
12765TIP3   OH259785   5.996   4.719  14.127 -0.1700  0.0498 -0.2107
12765TIP3    H159786   5.978   4.628  14.149 -0.5852 -0.1306 -1.2531
12765TIP3    H259787   5.931   4.768  14.178  0.2168 -0.2069  0.5457
12766TIP3   OH259788   0.747   1.616  12.423  0.2373 -0.5858 -0.1093
12766TIP3    H159789   0.797   1.685  12.380  1.3955 -0.9498  0.5897
12766TIP3    H259790   0.673   1.600  12.365  0.7504  0.2108 -1.0180
12767TIP3   OH259791   0.064   3.582  14.468 -0.2986 -0.2788  0.4320
12767TIP3    H159792   0.134   3.519  14.453  0.0639  0.3486 -0.6336
12767TIP3    H259793   0.012   3.544  14.539  2.4283  0.3705  2.9705
12768TIP3   OH259794   4.971   1.147   2.766 -0.2881 -0.1835  1.2742
12768TIP3    H159795   4.888   1.174   2.727 -1.1575 -3.5733  0.4759
12768TIP3    H259796   4.955   1.153   2.861 -1.2924 -0.3773  1.1288
12769TIP3   OH259797   4.680   4.242  11.897  0.1334 -0.0614 -0.2257
12769TIP3    H159798   4.692   4.208  11.809  0.0661 -0.1470 -0.2021
12769TIP3    H259799   4.746   4.197  11.950 -0.5671 -0.8611 -0.0103
12770TIP3   OH259800   5.063   3.858   6.381  0.5433 -0.3619  0.0288
12770TIP3    H159801   5.072   3.890   6.470 -2.2212  0.3292  0.1529
12770TIP3    H259802   5.137   3.896   6.334  0.3697  1.8038  1.3690
12771TIP3   OH259803   0.934   4.627  16.112  0.2684 -0.3137  0.2175
12771TIP3    H159804   1.007   4.685  16.091  1.1482 -1.1171  0.9389
12771TIP3    H259805   0.937   4.559  16.045  0.1473 -0.3244  0.2211
12772TIP3   OH259806   0.712   5.616  11.323 -0.5605 -0.3850  0.0034
12772TIP3    H159807   0.636   5.560  11.338 -0.0018 -0.7864  1.4414
12772TIP3    H259808   0.752   5.582  11.243 -0.2548 -2.0503  0.8258
12773TIP3   OH259809   1.898   2.873  16.573 -0.3193  0.2761  0.3576
12773TIP3    H159810   1.993   2.873  16.562 -0.3045 -0.9352  0.3983
12773TIP3    H259811   1.866   2.937  16.509  0.2701 -1.7099 -2.0348
12774TIP3   OH259812   1.138   6.271  11.537 -0.0819  0.4001  0.1185
12774TIP3    H159813   1.230   6.268  11.510 -0.3913  1.8997 -1.2475
12774TIP3    H259814   1.093   6.315  11.465 -1.5508  1.5318  1.6413
12775TIP3   OH259815   0.262   1.885   0.926 -0.1820 -0.1365  0.3153
12775TIP3    H159816   0.261   1.862   1.019 -2.1113  1.0368  0.6514
12775TIP3    H259817   0.306   1.970   0.923 -1.1220  0.3802  0.3713
12776TIP3   OH259818   0.182   4.356   4.820  0.4001 -0.0457 -0.0925
12776TIP3    H159819   0.116   4.417   4.851 -1.0559 -1.6736  0.1863
12776TIP3    H259820   0.186   4.288   4.887  1.6235 -0.5316 -0.6138
12777TIP3   OH259821   6.612   2.351  14.922  0.3683  0.5389 -0.0276
12777TIP3    H159822   6.637   2.430  14.970 -0.8002  0.7372  0.2797
12777TIP3    H259823   6.668   2.283  14.958  1.6987  1.2903 -0.6004
12778TIP3   OH259824   2.728   0.100  15.823 -0.2093 -0.3133  0.2279
12778TIP3    H159825   2.723   0.189  15.789  1.8295  0.7634  2.4518
12778TIP3    H259826   2.780   0.052  15.758 -0.1983  0.4615 -0.3530
12779TIP3   OH259827   2.250   4.477  13.091 -0.0982 -0.1236 -0.1039
12779TIP3    H159828   2.205   4.409  13.041 -0.3053  0.3940 -0.6275
12779TIP3    H259829   2.278   4.541  13.026  1.0798 -0.2431  0.2563
12780TIP3   OH259830   1.202   3.057   6.331 -0.1294 -0.5814  0.1101
12780TIP3    H159831   1.187   2.967   6.360 -1.2995 -0.2690  0.5099
12780TIP3    H259832   1.249   3.098   6.404 -0.9431 -0.4542  0.5661
12781TIP3   OH259833   0.820   0.959   1.198 -0.1714 -0.3229  0.0222
12781TIP3    H159834   0.762   0.998   1.133  2.5328 -0.5462 -2.7259
12781TIP3    H259835   0.904   1.002   1.184  0.5606 -0.3296  3.5354
12782TIP3   OH259836   2.852   0.873   2.735 -0.9232  1.1130 -0.1588
12782TIP3    H159837   2.795   0.904   2.664  0.5731  2.7535 -0.7014
12782TIP3    H259838   2.854   0.778   2.723 -0.1872  1.3628 -2.7935
12783TIP3   OH259839   1.649   3.222  12.218 -0.6902  0.1749 -0.5181
12783TIP3    H159840   1.717   3.253  12.277  1.4955 -2.1603 -1.6280
12783TIP3    H259841   1.577   3.195  12.275 -0.0501  1.1729  0.8038
12784TIP3   OH259842   2.310   5.007   1.482 -0.6334 -0.3755  0.2557
12784TIP3    H159843   2.251   5.082   1.490  0.6743  0.8102 -0.7075
12784TIP3    H259844   2.350   5.018   1.395 -0.0345 -1.9202  0.3161
12785TIP3   OH259845   4.606   3.982  10.348 -0.7735  0.2955 -0.3619
12785TIP3    H159846   4.688   3.955  10.306  0.4260  1.1046  1.3676
12785TIP3    H259847   4.569   4.046  10.287  0.3468  0.6166 -0.7291
12786TIP3   OH259848   5.103   4.287   4.134  0.1487 -0.0531  0.0107
12786TIP3    H159849   5.136   4.262   4.221 -1.0797 -1.2456  0.1734
12786TIP3    H259850   5.031   4.348   4.152  1.8754  2.2070 -0.3268
12787TIP3   OH259851   2.153   0.146   3.373  0.1827  0.7866 -0.3442
12787TIP3    H159852   2.130   0.167   3.282 -0.4160  2.9890  0.2548
12787TIP3    H259853   2.129   0.224   3.422 -1.9025 -1.2275  2.1272
12788TIP3   OH259854   4.840   3.619   4.840  0.3352 -0.4233 -0.4633
12788TIP3    H159855   4.872   3.681   4.905 -0.6729 -0.7145  0.3420
12788TIP3    H259856   4.859   3.533   4.877 -1.0174 -0.5975 -0.1194
12789TIP3   OH259857   5.314   4.556   1.202  0.2982  0.1813  0.1908
12789TIP3    H159858   5.292   4.498   1.129  0.0645  0.7731 -0.2128
12789TIP3    H259859   5.315   4.498   1.279  1.4876 -0.6280 -0.3963
12790TIP3   OH259860   3.705   1.911   5.072 -0.1020  0.2496  0.6341
12790TIP3    H159861   3.749   1.917   4.987 -0.0217  0.6310  0.7001
12790TIP3    H259862   3.710   2.000   5.108 -1.0098  0.3190  0.6004
12791TIP3   OH259863   2.522   6.232   0.460  0.0060  0.0421 -0.5746
12791TIP3    H159864   2.566   6.236   0.375 -1.3297 -0.5077 -1.3227
12791TIP3    H259865   2.573   6.290   0.517  1.7516 -0.6715 -1.3569
12792TIP3   OH259866   4.613   0.677   4.487 -0.5318 -0.6066  0.0316
12792TIP3    H159867   4.549   0.628   4.540 -0.3963  0.0225  0.7998
12792TIP3    H259868   4.576   0.765   4.479 -0.6098 -0.7266 -1.0459
12793TIP3   OH259869   3.488   5.004  16.988 -0.9868 -0.5366 -0.3603
12793TIP3    H159870   3.463   4.915  17.013  0.6461 -1.3600 -1.4002
12793TIP3    H259871   3.406   5.048  16.967 -1.8485 -1.6967  0.4919
12794TIP3   OH259872   0.170   5.345  12.696  0.4490  0.1095  0.1803
12794TIP3    H159873   0.195   5.335  12.787 -0.0330 -1.0261  0.2024
12794TIP3    H259874   0.245   5.388  12.655  1.1781 -0.5030  0.8544
12795TIP3   OH259875   6.810   1.724   1.445 -0.4163 -0.1573 -0.1404
12795TIP3    H159876   6.900   1.752   1.463 -0.9100  0.4358  1.5994
12795TIP3    H259877   6.818   1.629   1.429  0.3379 -0.4479  1.7190
12796TIP3   OH259878   4.624   5.403  13.256 -0.0658 -0.2407  0.5609
12796TIP3    H159879   4.601   5.340  13.324 -0.5448  0.7776  1.3577
12796TIP3    H259880   4.580   5.484  13.282  0.9522  0.5710 -0.1735
12797TIP3   OH259881   4.460   5.615   2.980 -0.2018 -0.5773 -0.7973
12797TIP3    H159882   4.426   5.651   2.897  0.3751 -1.0446 -1.2404
12797TIP3    H259883   4.552   5.640   2.981 -0.8234  2.2456  1.2338
12798TIP3   OH259884   4.859   1.262   3.652  0.4227 -0.1431 -0.0384
12798TIP3    H159885   4.943   1.287   3.613  0.8077 -0.2470  0.7192
12798TIP3    H259886   4.861   1.166   3.656  0.0150 -0.1815 -0.5610
12799TIP3   OH259887   6.212   5.969   0.190  0.2249  0.0714  0.1126
12799TIP3    H159888   6.258   5.990   0.272  0.1734 -1.5895  0.6105
12799TIP3    H259889   6.280   5.971   0.123  0.4249  0.6601  0.3300
12800TIP3   OH259890   1.779   0.401   4.783 -0.4195  0.0100 -0.1913
12800TIP3    H159891   1.743   0.465   4.721  1.3052  0.6696 -0.5713
12800TIP3    H259892   1.826   0.455   4.848 -2.0359 -0.6693  1.6467
12801TIP3   OH259893   4.654   5.125  12.015  0.1761  0.6231  0.3224
12801TIP3    H159894   4.596   5.079  11.955  2.2511 -0.9338 -0.6096
12801TIP3    H259895   4.678   5.059  12.080  1.8581  0.8453 -0.0417
12802TIP3   OH259896   4.698   3.520   1.389 -0.0119  0.5922  0.1557
12802TIP3    H159897   4.722   3.428   1.403  1.0589  0.7074 -0.7829
12802TIP3    H259898   4.780   3.568   1.401 -0.1328  1.2079 -1.2439
12803TIP3   OH259899   3.450   3.343   1.374 -0.0199  0.2117 -0.1249
12803TIP3    H159900   3.413   3.431   1.370  0.9379  0.6963  0.8886
12803TIP3    H259901   3.426   3.310   1.461  1.1500  0.2104  0.2274
12804TIP3   OH259902   0.166   4.927  11.511 -0.1607  0.3806  0.4691
12804TIP3    H159903   0.141   4.853  11.566  4.2331 -0.3378  1.8481
12804TIP3    H259904   0.238   4.969  11.558  1.2739  2.1159 -2.9232
12805TIP3   OH259905   0.999   6.484   0.505  0.5103  0.2937  0.7769
12805TIP3    H159906   1.005   6.395   0.540 -0.4792 -0.0432  0.1303
12805TIP3    H259907   0.927   6.480   0.442  0.3757  1.5803  0.8259
12806TIP3   OH259908   5.035   2.027   5.066  0.0467 -0.3855  0.0840
12806TIP3    H159909   5.026   1.937   5.036  0.0195  0.0190 -1.1680
12806TIP3    H259910   4.970   2.076   5.017  2.0766  0.8279 -1.6021
12807TIP3   OH259911   3.220   4.138   2.177  0.3242 -0.0111  0.2273
12807TIP3    H159912   3.219   4.234   2.173 -0.3007  0.0049  0.6396
12807TIP3    H259913   3.292   4.113   2.118  1.6685  0.7627  1.4648
12808TIP3   OH259914   4.674   1.808   1.737 -0.3814 -0.3182  0.3942
12808TIP3    H159915   4.743   1.743   1.723  1.6493  1.6957  0.4970
12808TIP3    H259916   4.626   1.776   1.813  2.2463 -0.4053  2.1402
12809TIP3   OH259917   1.912   6.144   3.736 -0.3557  0.3858  0.0997
12809TIP3    H159918   1.960   6.222   3.710 -1.5795  1.6551  1.4179
12809TIP3    H259919   1.978   6.076   3.745  0.8322  1.4295 -0.4841
12810TIP3   OH259920   5.528   4.267   3.623  0.3840 -0.2610 -0.0906
12810TIP3    H159921   5.520   4.217   3.541 -0.1939  0.5318 -0.5329
12810TIP3    H259922   5.607   4.320   3.611  1.1691 -1.2682  0.5017
12811TIP3   OH259923   4.555   5.936  10.959  0.2615 -0.0944 -0.7995
12811TIP3    H159924   4.526   6.003  10.897 -1.7464 -2.1921 -2.3014
12811TIP3    H259925   4.516   5.963  11.043 -1.3894  0.1163 -1.5920
12812TIP3   OH259926   1.470   0.609  16.264 -0.5096  0.0876  0.1784
12812TIP3    H159927   1.402   0.543  16.248 -0.9657  0.1792  1.5787
12812TIP3    H259928   1.489   0.601  16.358  1.6422 -0.1423 -0.2279
12813TIP3   OH259929   6.382   2.144  15.011 -0.1512  0.1933 -0.3495
12813TIP3    H159930   6.379   2.139  14.916  0.5013 -1.1047 -0.3333
12813TIP3    H259931   6.466   2.186  15.031 -0.7050  1.3306 -0.3419
12814TIP3   OH259932   0.745   0.849   4.365  0.1289  0.4457  0.3390
12814TIP3    H159933   0.829   0.809   4.344 -1.3428 -2.2152 -1.0328
12814TIP3    H259934   0.734   0.917   4.299  0.6291 -0.0633 -0.2800
12815TIP3   OH259935   5.340   3.882  16.920  0.2418  0.0877  0.3341
12815TIP3    H159936   5.400   3.808  16.929  0.3310  0.0984 -0.1350
12815TIP3    H259937   5.255   3.847  16.946  0.4363  0.0498  0.9144
12816TIP3   OH259938   4.990   3.953   1.443  0.1678  0.3211 -0.1231
12816TIP3    H159939   5.046   3.973   1.368  1.0772  0.0946  0.4728
12816TIP3    H259940   5.002   4.028   1.502  1.2777 -0.5426  0.8024
12817TIP3   OH259941   5.479   2.572   4.081  0.3002  0.6704  0.0144
12817TIP3    H159942   5.558   2.579   4.135 -0.6425  1.3071  1.3669
12817TIP3    H259943   5.409   2.610   4.134 -1.1862 -0.9803 -0.6188
12818TIP3   OH259944   0.102   2.779  16.027 -0.5445 -0.1464  0.1544
12818TIP3    H159945   0.067   2.690  16.025  1.1375 -0.8327 -0.9360
12818TIP3    H259946   0.123   2.794  16.119  0.0952 -1.3025  0.2222
12819TIP3   OH259947   1.919   1.893   0.059  0.7759 -0.0429 -0.0165
12819TIP3    H159948   1.834   1.932   0.080  1.4251  0.3005  2.2259
12819TIP3    H259949   1.937   1.921  -0.030 -1.8082 -0.7728 -0.8635
12820TIP3   OH259950   6.819   6.116  13.930  0.0910  0.0364 -0.3238
12820TIP3    H159951   6.844   6.137  13.840 -1.4525 -1.5261 -1.1754
12820TIP3    H259952   6.724   6.132  13.934  0.2487  0.8455  1.2819
12821TIP3   OH259953   3.521   6.059   0.803 -0.1973 -0.5571  0.3500
12821TIP3    H159954   3.438   6.040   0.760 -0.6059 -2.1239  1.7284
12821TIP3    H259955   3.588   6.029   0.741 -0.7349 -1.3722  0.1451
12822TIP3   OH259956   3.402   2.314  13.103  0.4362 -0.2656 -0.3857
12822TIP3    H159957   3.429   2.256  13.174  2.7537  1.8355  0.5712
12822TIP3    H259958   3.400   2.401  13.142 -0.6545  0.6693 -2.3438
12823TIP3   OH259959   1.936   3.210  12.110 -0.2487  0.2962  0.0119
12823TIP3    H159960   1.955   3.118  12.125  0.4004  0.4699  0.3016
12823TIP3    H259961   1.872   3.211  12.038 -1.0851 -0.4197  0.7349
12824TIP3   OH259962   5.795   3.497   0.341 -0.1186  0.1139 -0.0582
12824TIP3    H159963   5.803   3.509   0.247 -1.7816  0.5697 -0.1713
12824TIP3    H259964   5.708   3.459   0.353 -0.8736  2.1612  1.4522
12825TIP3   OH259965   1.642   0.659  13.085 -0.5082  0.2441 -0.4176
12825TIP3    H159966   1.556   0.689  13.115 -0.0241  1.0043  0.2585
12825TIP3    H259967   1.682   0.620  13.163  0.2646  1.0795 -0.3877
12826TIP3   OH259968   3.889   0.994   4.353  0.0245  0.0894 -0.6357
12826TIP3    H159969   3.889   0.928   4.423  1.3603  0.6715 -0.0382
12826TIP3    H259970   3.849   1.071   4.393  0.2953  0.2535 -0.6797
12827TIP3   OH259971   0.472   4.783  15.674 -0.8512  0.0106  0.2610
12827TIP3    H159972   0.492   4.690  15.681 -2.6115 -0.4181 -0.0575
12827TIP3    H259973   0.551   4.827  15.707 -0.2386 -1.5797  1.0037
12828TIP3   OH259974   0.935   6.365  12.336 -0.5247  0.0899 -0.0546
12828TIP3    H159975   1.009   6.422  12.358 -0.1402 -0.7802  1.0590
12828TIP3    H259976   0.974   6.293  12.286 -0.6656 -0.1747  0.2082
12829TIP3   OH259977   1.856   5.764   0.175 -0.1458 -0.1685  0.1395
12829TIP3    H159978   1.803   5.730   0.248  1.4288 -0.5157  1.1734
12829TIP3    H259979   1.870   5.856   0.197 -0.9751  0.1292 -0.5484
12830TIP3   OH259980   3.873   4.629   4.655 -0.1848 -0.6957 -0.4569
12830TIP3    H159981   3.950   4.680   4.680 -0.2027 -0.9950  0.2328
12830TIP3    H259982   3.898   4.538   4.672 -0.9332 -0.7519  0.4932
12831TIP3   OH259983   4.276   6.755   0.738  0.0292  0.1111 -0.7006
12831TIP3    H159984   4.307   6.715   0.819  0.3631  0.0713 -0.8451
12831TIP3    H259985   4.335   6.829   0.723 -0.8006  0.8750 -0.2540
12832TIP3   OH259986   6.760   0.312  11.959 -0.2696  0.1009  0.8069
12832TIP3    H159987   6.844   0.330  11.917  0.2899 -0.9869  1.4157
12832TIP3    H259988   6.704   0.384  11.931  0.5351  0.2581 -0.4978
12833TIP3   OH259989   5.860   6.227  15.263 -0.4028  0.2347 -0.3722
12833TIP3    H159990   5.843   6.321  15.266  0.4592  0.4342 -1.1891
12833TIP3    H259991   5.796   6.193  15.200  0.6511  0.6218 -1.6883
12834TIP3   OH259992   0.918   5.323   1.881  0.3609 -0.6519 -0.4476
12834TIP3    H159993   0.887   5.413   1.875  1.3687 -0.1036  1.6884
12834TIP3    H259994   0.857   5.273   1.827 -1.5831  0.9846  0.1227
12835TIP3   OH259995   2.361   3.917   2.328  0.0759 -0.4216 -0.4226
12835TIP3    H159996   2.405   3.834   2.309  0.0121 -0.1232 -2.0164
12835TIP3    H259997   2.412   3.957   2.398  0.7936 -1.2761 -0.4481
12836TIP3   OH259998   1.666   2.634   1.286 -0.1349  0.3885  0.1486
12836TIP3    H159999   1.749   2.591   1.265 -1.1146 -1.3287 -0.4550
12836TIP3    H260000   1.672   2.655   1.379  1.1601  0.7557 -0.0045
12837TIP3   OH260001   6.825   0.066   3.674  0.1946  0.1347 -0.2440
12837TIP3    H160002   6.756   0.094   3.735 -0.3860 -1.5639 -0.0813
12837TIP3    H260003   6.906   0.074   3.724 -0.3829 -2.4432  1.2695
12838TIP3   OH260004   3.902   0.046   3.302 -0.5038  0.3805  0.9201
12838TIP3    H160005   3.852   0.063   3.382  0.0456  0.9137  1.1578
12838TIP3    H260006   3.836   0.019   3.238 -0.8311 -1.1779  1.8522
12839TIP3   OH260007   3.733   1.859  11.407  0.1681 -0.2175 -0.1132
12839TIP3    H160008   3.787   1.836  11.483  0.4527  0.1876 -0.1933
12839TIP3    H260009   3.680   1.780  11.392  1.2576 -0.9074 -0.4840
12840TIP3   OH260010   5.721   1.718   5.336 -0.1918  0.5827  0.0006
12840TIP3    H160011   5.809   1.739   5.367  0.5968 -1.2908 -0.8146
12840TIP3    H260012   5.706   1.628   5.366 -1.4640  0.5643 -0.6406
12841TIP3   OH260013   2.841   3.888  16.437 -0.1663  0.3307  0.1099
12841TIP3    H160014   2.835   3.929  16.523  0.1352  0.4761  0.0643
12841TIP3    H260015   2.763   3.917  16.390  0.0090  0.8027  0.1010
12842TIP3   OH260016   6.240   3.509   0.089  0.1287 -0.4960 -0.0313
12842TIP3    H160017   6.210   3.562   0.015 -1.4074 -0.9187  0.2585
12842TIP3    H260018   6.292   3.440   0.049 -1.9598 -1.6315 -0.9136
12843TIP3   OH260019   6.314   1.743  14.888 -0.2870 -0.1543  0.2273
12843TIP3    H160020   6.370   1.809  14.849  0.6165 -1.2444 -0.3983
12843TIP3    H260021   6.282   1.782  14.970  1.6513  0.3898  0.7657
12844TIP3   OH260022   5.280   2.200   4.218 -0.5525 -0.0667  0.3378
12844TIP3    H160023   5.191   2.218   4.189  0.3056  2.0753 -1.2218
12844TIP3    H260024   5.275   2.202   4.314 -2.0131  1.0822  0.2703
12845TIP3   OH260025   2.445   1.824   3.405  0.5400  0.2776 -0.2757
12845TIP3    H160026   2.524   1.802   3.453  0.0050  0.8326  0.9039
12845TIP3    H260027   2.373   1.805   3.466 -0.3209 -1.1644 -1.6637
12846TIP3   OH260028   2.540   3.121  13.432  0.1041  0.3034  0.3432
12846TIP3    H160029   2.548   3.083  13.345  0.5823  1.4686 -0.1328
12846TIP3    H260030   2.584   3.058  13.490 -0.3073 -0.5258 -0.2162
12847TIP3   OH260031   5.517   1.480   3.812 -0.4438  0.2659 -0.2784
12847TIP3    H160032   5.603   1.509   3.780 -0.0845  2.4639  2.3106
12847TIP3    H260033   5.460   1.555   3.799 -0.8509  0.3883  1.8315
12848TIP3   OH260034   4.344   2.813  10.315  0.1262 -0.2521 -0.8433
12848TIP3    H160035   4.257   2.794  10.279 -0.3271 -0.1089  0.1379
12848TIP3    H260036   4.332   2.809  10.410  0.8972  1.0521 -0.6617
12849TIP3   OH260037   4.790   4.708  14.801  0.0770 -0.6391  0.0530
12849TIP3    H160038   4.801   4.614  14.784 -3.5972 -1.4815  1.2667
12849TIP3    H260039   4.809   4.750  14.717 -0.3824 -2.7405 -1.1920
12850TIP3   OH260040   1.900   4.944  13.670 -0.2498 -0.0714  0.0489
12850TIP3    H160041   1.933   4.873  13.725 -0.6915 -0.5746 -0.3250
12850TIP3    H260042   1.936   4.925  13.583  0.1203  0.4989  0.0731
12851TIP3   OH260043   5.128   1.355   0.534 -0.3798 -0.0341  0.2856
12851TIP3    H160044   5.202   1.294   0.543 -0.3101 -0.4124 -2.0897
12851TIP3    H260045   5.110   1.356   0.440 -3.6588 -0.2594  0.7834
12852TIP3   OH260046   1.712   6.044  13.992  0.4567 -0.6082  0.3846
12852TIP3    H160047   1.656   6.057  13.915 -0.1923  1.3725  1.1130
12852TIP3    H260048   1.653   6.059  14.067  1.6721  0.3221  1.1931
12853TIP3   OH260049   0.398   2.238   1.564  0.5130 -0.2895 -0.4148
12853TIP3    H160050   0.389   2.215   1.657  0.9988 -0.1526 -0.3354
12853TIP3    H260051   0.349   2.319   1.555  1.4214  0.3162 -0.0291
12854TIP3   OH260052   4.773   1.911   5.905  0.3836  0.3589  0.0269
12854TIP3    H160053   4.769   1.999   5.943  2.1297  0.7363 -0.5518
12854TIP3    H260054   4.769   1.853   5.981  0.1015  0.9679  0.4932
12855TIP3   OH260055   6.332   2.935  15.879  0.4505  0.2157  0.0610
12855TIP3    H160056   6.389   2.927  15.802 -2.0299 -0.9389 -1.8076
12855TIP3    H260057   6.329   2.847  15.916  0.7401  0.5202  0.8280
12856TIP3   OH260058   2.059   3.026  11.857  0.2806 -0.1101  0.5801
12856TIP3    H160059   1.986   2.988  11.808 -0.2334 -1.2247  2.1199
12856TIP3    H260060   2.095   2.953  11.907  1.7867  0.6514  0.6655
12857TIP3   OH260061   2.679   1.751  15.835 -0.2734 -0.1886 -0.6735
12857TIP3    H160062   2.618   1.694  15.788  0.5304 -0.8996 -0.8927
12857TIP3    H260063   2.765   1.714  15.815  0.2187  0.7270 -0.2823
12858TIP3   OH260064   3.332   6.199   2.283 -0.4787  0.7444  0.2032
12858TIP3    H160065   3.339   6.285   2.324  1.6719  0.6525  0.1562
12858TIP3    H260066   3.360   6.137   2.351 -0.2765  0.2593 -0.3136
12859TIP3   OH260067   5.067   6.290  12.263  0.1601  0.5325 -0.2372
12859TIP3    H160068   5.016   6.336  12.331 -0.1602 -0.3351  0.1244
12859TIP3    H260069   5.058   6.198  12.286  0.7043  0.2839 -1.0216
12860TIP3   OH260070   0.248   0.855   5.902 -0.2293  0.2284 -0.3124
12860TIP3    H160071   0.213   0.833   5.988  2.3804 -1.0508  0.5278
12860TIP3    H260072   0.272   0.770   5.863  0.7765  0.9341 -1.2967
12861TIP3   OH260073   2.664   5.586   0.608  0.4987 -0.4968  0.2089
12861TIP3    H160074   2.588   5.599   0.664  0.2037 -1.5193  0.0792
12861TIP3    H260075   2.723   5.531   0.660  0.5202 -0.8807 -0.2101
12862TIP3   OH260076   5.640   1.074   4.836  0.4309 -0.0504 -0.0362
12862TIP3    H160077   5.574   1.067   4.905 -0.1182 -1.0010 -0.6476
12862TIP3    H260078   5.654   0.985   4.806  0.8234  0.3232 -1.0099
12863TIP3   OH260079   4.744   4.861  16.414 -0.5317  0.0002 -0.1810
12863TIP3    H160080   4.755   4.787  16.355  0.0544  1.2702 -1.7541
12863TIP3    H260081   4.797   4.931  16.375  0.8935  0.5891  2.4891
12864TIP3   OH260082   0.395   6.623   2.502 -0.3361  0.2913  0.1523
12864TIP3    H160083   0.392   6.541   2.453  1.1081  0.5220 -0.3621
12864TIP3    H260084   0.480   6.661   2.481 -0.6960  1.5987  0.9206
12865TIP3   OH260085   6.781   0.223  15.255 -0.2037  0.0046  0.4062
12865TIP3    H160086   6.814   0.150  15.307 -1.0483  0.6338  1.8866
12865TIP3    H260087   6.852   0.287  15.254 -0.2337  0.0441  0.9050
12866TIP3   OH260088   3.983   4.562  13.302 -0.6469  0.1094 -0.3957
12866TIP3    H160089   3.985   4.493  13.236  0.3730  1.3323 -1.6976
12866TIP3    H260090   4.062   4.547  13.354 -2.4251 -2.0374  1.9050
12867TIP3   OH260091   2.097   4.752   0.469 -0.2508  0.1505 -0.1401
12867TIP3    H160092   2.173   4.703   0.499 -0.8370  0.3849  1.8570
12867TIP3    H260093   2.053   4.694   0.407  0.9238 -0.4328 -0.4476
12868TIP3   OH260094   3.736   3.071  13.802  0.2055 -0.8401 -0.5019
12868TIP3    H160095   3.779   2.995  13.763 -0.2025 -1.9440  1.1027
12868TIP3    H260096   3.659   3.035  13.847 -0.0975  0.5421  0.1488
12869TIP3   OH260097   3.260   0.218   4.861  0.1997  0.3428 -0.1574
12869TIP3    H160098   3.191   0.157   4.887  0.9371 -0.5417 -0.2207
12869TIP3    H260099   3.264   0.282   4.933 -0.5095  0.2664 -0.0405
12870TIP3   OH260100   0.747   6.310   1.094  0.0469  0.4354  0.0408
12870TIP3    H160101   0.727   6.330   1.003 -0.2717  0.6780  0.1629
12870TIP3    H260102   0.662   6.311   1.138  0.3204  1.4705  0.5666
12871TIP3   OH260103   6.137   2.534   3.413  0.3524  0.1208 -0.5540
12871TIP3    H160104   6.078   2.512   3.341  0.2053  1.4159 -0.8474
12871TIP3    H260105   6.208   2.583   3.371 -0.4159  2.0945  0.3389
12872TIP3   OH260106   5.540   2.122  15.228  0.7315 -0.6894 -0.1763
12872TIP3    H160107   5.613   2.072  15.263 -0.5572 -2.0608  0.6887
12872TIP3    H260108   5.564   2.214  15.242  1.6434 -1.1323  1.4203
12873TIP3   OH260109   3.070   6.387   4.025 -0.2478 -0.7774  0.7818
12873TIP3    H160110   3.157   6.347   4.030 -0.6966 -1.7344  1.2767
12873TIP3    H260111   3.017   6.324   3.977 -0.9933 -0.8357  1.6427
12874TIP3   OH260112   0.782   1.951   2.975  0.2478  0.1155  0.4472
12874TIP3    H160113   0.781   1.944   2.879 -0.3978 -2.3336  0.5638
12874TIP3    H260114   0.824   2.035   2.992  0.0603  0.7961 -1.9833
12875TIP3   OH260115   4.090   2.919  15.145 -0.1588 -0.6169  0.4619
12875TIP3    H160116   4.115   2.829  15.123 -1.4856 -1.5122  2.3443
12875TIP3    H260117   4.110   2.928  15.238 -1.6998  0.4241  0.7361
12876TIP3   OH260118   1.539   3.059  13.287  0.7187 -0.0215 -0.0828
12876TIP3    H160119   1.599   3.131  13.304  0.0571  0.0693  2.3814
12876TIP3    H260120   1.457   3.086  13.327 -1.1044 -0.0928 -3.4593
12877TIP3   OH260121   2.518   6.576   1.258  0.0322 -0.5797 -0.0379
12877TIP3    H160122   2.440   6.539   1.215  0.7693 -1.4481 -0.6477
12877TIP3    H260123   2.586   6.572   1.192  1.0545 -1.4384  1.0376
12878TIP3   OH260124   4.214   0.030   4.697 -0.0103 -0.3421 -0.9700
12878TIP3    H160125   4.301  -0.003   4.720 -0.5020 -2.6830 -2.1434
12878TIP3    H260126   4.178   0.064   4.779  0.8939 -2.0868  0.2031
12879TIP3   OH260127   2.045   4.173  16.209  0.2338 -0.3091  0.1678
12879TIP3    H160128   1.957   4.165  16.246 -0.2740 -0.4234 -0.9970
12879TIP3    H260129   2.074   4.083  16.196 -0.6787 -0.3573 -2.0759
12880TIP3   OH260130   3.840   0.023  14.785  0.6216  0.2211  0.1252
12880TIP3    H160131   3.917  -0.033  14.774  0.8185  0.4215  0.4503
12880TIP3    H260132   3.796  -0.012  14.863  1.0583  0.8651  0.6709
12881TIP3   OH260133   5.713   2.540   0.905  0.1039 -0.2899  0.3416
12881TIP3    H160134   5.742   2.456   0.870  0.4860 -1.5132  3.3211
12881TIP3    H260135   5.794   2.587   0.925 -0.0113 -0.6905  1.8800
12882TIP3   OH260136   1.406   5.993  11.893  0.0881 -0.3034 -0.2751
12882TIP3    H160137   1.466   6.045  11.839  1.9009 -0.8399  1.1048
12882TIP3    H260138   1.329   6.049  11.905  0.9734  1.0823 -0.8040
12883TIP3   OH260139   4.064   1.239   3.708  0.3981  0.3948  0.3149
12883TIP3    H160140   4.132   1.279   3.762  1.2888 -0.3218 -0.2412
12883TIP3    H260141   4.111   1.173   3.656 -0.1850  1.7770 -2.1311
12884TIP3   OH260142   1.906   4.702   2.292 -0.5074  0.6171 -0.1005
12884TIP3    H160143   1.867   4.770   2.238 -0.5436  1.4829  0.9843
12884TIP3    H260144   1.944   4.749   2.366  0.6033 -0.4264  0.0167
12885TIP3   OH260145   0.613   5.469  10.224 -0.0311 -0.1540 -0.1709
12885TIP3    H160146   0.612   5.507  10.312  0.0640  1.0385 -0.6700
12885TIP3    H260147   0.706   5.465  10.201 -0.1096  3.6348 -1.8775
12886TIP3   OH260148   4.118   6.826  13.894 -0.3698  0.4266 -0.4498
12886TIP3    H160149   4.143   6.739  13.862  0.2542  0.4917 -0.1471
12886TIP3    H260150   4.044   6.810  13.952  1.1606 -0.1972  1.4573
12887TIP3   OH260151   1.623   4.947   2.828 -0.0636 -0.2780 -0.0850
12887TIP3    H160152   1.603   5.023   2.882 -0.0477 -0.9608  0.8995
12887TIP3    H260153   1.635   4.875   2.890  0.1436 -1.0417 -0.9814
12888TIP3   OH260154   1.340   2.996  14.007  0.2778  0.4168 -0.0045
12888TIP3    H160155   1.278   2.926  13.988  2.1369 -1.2099 -0.3983
12888TIP3    H260156   1.409   2.986  13.942  0.8419  2.3429  0.2271
12889TIP3   OH260157   6.076   4.248  15.211 -0.6076 -0.0838 -0.9301
12889TIP3    H160158   6.136   4.220  15.143 -1.2538 -0.2128 -1.4584
12889TIP3    H260159   6.030   4.324  15.174 -0.3515  0.3883 -0.3072
12890TIP3   OH260160   5.812   1.831   2.789  0.4356 -0.2731  0.1143
12890TIP3    H160161   5.736   1.881   2.817  0.8344  0.3750  0.0731
12890TIP3    H260162   5.787   1.795   2.704 -0.1089 -0.7325  0.4595
12891TIP3   OH260163   3.171   5.155  13.338  0.3956 -0.3025  0.4987
12891TIP3    H160164   3.081   5.152  13.371  0.3443 -2.7639  0.3392
12891TIP3    H260165   3.168   5.216  13.264 -1.3648 -1.0189 -0.0650
12892TIP3   OH260166   1.103   1.700  15.663 -0.3803  0.4773  0.2165
12892TIP3    H160167   1.048   1.623  15.679  0.8061  0.1028  3.2136
12892TIP3    H260168   1.127   1.693  15.571 -2.9635 -0.8919 -0.4715
12893TIP3   OH260169   3.788   2.179  16.203 -0.2917  0.2944 -0.1925
12893TIP3    H160170   3.733   2.122  16.257 -0.2590  0.8334  0.4317
12893TIP3    H260171   3.870   2.131  16.193 -1.4422 -1.3739 -2.7070
12894TIP3   OH260172   4.268   6.086   5.445  0.3432  0.0134 -0.4993
12894TIP3    H160173   4.345   6.045   5.406  2.1790  0.3814  2.4640
12894TIP3    H260174   4.295   6.109   5.534 -3.1345  0.3619  0.6225
12895TIP3   OH260175   5.886   5.366   0.722  0.3542 -0.1022  0.8417
12895TIP3    H160176   5.876   5.296   0.787  2.9771  0.0741  1.5655
12895TIP3    H260177   5.806   5.417   0.729 -1.4259 -2.6579  0.6709
12896TIP3   OH260178   3.823   5.930  11.745  0.1483  0.0015  0.1528
12896TIP3    H160179   3.767   5.882  11.806  0.1181  0.4975  0.5248
12896TIP3    H260180   3.894   5.869  11.723  0.4105 -0.0262  1.0403
12897TIP3   OH260181   1.896   4.039   5.057 -0.3426 -0.7671 -0.5546
12897TIP3    H160182   1.912   4.082   5.142  0.5122  0.3629 -1.2530
12897TIP3    H260183   1.965   3.974   5.051  0.3768  0.0078 -0.9136
12898TIP3   OH260184   6.656   5.948   5.324  0.4857 -0.3085  0.3537
12898TIP3    H160185   6.722   6.009   5.355  0.9378 -0.4292 -0.3634
12898TIP3    H260186   6.702   5.890   5.264 -0.7298  1.0786 -2.0500
12899TIP3   OH260187   3.573   0.266   5.695  0.0437  0.0163  0.8146
12899TIP3    H160188   3.522   0.293   5.771 -1.5718 -0.5459 -0.0284
12899TIP3    H260189   3.664   0.267   5.726 -0.2193  2.8838  1.8338
12900TIP3   OH260190   4.591   5.175   3.255 -1.6487 -0.2422  0.4038
12900TIP3    H160191   4.638   5.143   3.178  3.9464 -0.3308  3.3491
12900TIP3    H260192   4.552   5.097   3.293  0.5977 -1.3559  0.5947
12901TIP3   OH260193   5.047   2.086   5.979 -0.0669  0.2285 -0.4713
12901TIP3    H160194   5.005   2.123   5.901  0.0920 -2.0757 -1.7465
12901TIP3    H260195   5.139   2.110   5.969  0.0154 -0.3443 -1.2118
12902TIP3   OH260196   3.874   4.466  11.640  0.3518 -0.0440  0.0441
12902TIP3    H160197   3.949   4.525  11.631 -0.2227  0.8797  1.0394
12902TIP3    H260198   3.881   4.433  11.730 -1.5220  1.6647  0.9060
12903TIP3   OH260199   0.818   6.817  12.658  0.7222  0.1879 -0.4722
12903TIP3    H160200   0.734   6.822  12.613  0.2831  1.4831  0.4358
12903TIP3    H260201   0.876   6.772  12.597 -0.6628 -0.8723 -1.0438
12904TIP3   OH260202   5.177   6.271   3.428 -0.0531  0.9572 -0.2605
12904TIP3    H160203   5.143   6.295   3.514  0.2592 -1.1315  0.5057
12904TIP3    H260204   5.111   6.303   3.366 -0.8671  1.4406  0.8237
12905TIP3   OH260205   6.154   2.298  16.688  0.7395 -0.2392 -0.1526
12905TIP3    H160206   6.247   2.300  16.711  0.3166  0.5762  1.7106
12905TIP3    H260207   6.126   2.389  16.697 -0.3457 -0.5607 -0.2246
12906TIP3   OH260208   4.291   4.001   0.808 -0.7644  0.3502 -0.3737
12906TIP3    H160209   4.240   3.965   0.879 -0.4171 -0.3960 -0.4931
12906TIP3    H260210   4.379   4.013   0.844 -0.9327  1.3388 -0.2573
12907TIP3   OH260211   0.819   2.730  11.201  0.1422 -0.6325  0.0668
12907TIP3    H160212   0.783   2.815  11.177  0.5910 -0.5546 -0.3595
12907TIP3    H260213   0.785   2.670  11.134  1.4982 -0.3926 -0.8776
12908TIP3   OH260214   1.110   0.583   0.143 -0.2849 -0.0215  0.6190
12908TIP3    H160215   1.057   0.560   0.220 -0.9258 -0.3807  0.0847
12908TIP3    H260216   1.200   0.568   0.170 -0.6005 -2.7551  0.4920
12909TIP3   OH260217   3.361   5.607   2.133  0.1690 -0.0998  0.3899
12909TIP3    H160218   3.445   5.618   2.089 -0.0766 -0.8242 -0.2671
12909TIP3    H260219   3.366   5.665   2.209  1.5074 -0.6011  0.7020
12910TIP3   OH260220   4.213   1.521  13.440 -0.0851  0.5373  0.2168
12910TIP3    H160221   4.251   1.500  13.354 -1.3564  2.0148 -0.7610
12910TIP3    H260222   4.289   1.539  13.495  0.8106 -1.4956 -0.2547
12911TIP3   OH260223   4.646   0.341  13.621 -0.5459 -0.2541  0.2070
12911TIP3    H160224   4.705   0.413  13.598 -1.9428  1.0336  0.4334
12911TIP3    H260225   4.607   0.315  13.538 -0.7077 -0.1211  0.2403
12912TIP3   OH260226   4.680   6.091  15.417 -0.0991  0.2266  0.0712
12912TIP3    H160227   4.739   6.165  15.402 -0.6305  0.5393 -0.5644
12912TIP3    H260228   4.594   6.132  15.428 -0.0880 -0.1504  1.8837
12913TIP3   OH260229   4.477   5.514  10.769  0.4226 -0.2989 -0.3007
12913TIP3    H160230   4.545   5.576  10.744  1.9543 -1.0606  1.6743
12913TIP3    H260231   4.430   5.557  10.840  0.8928 -1.0002  0.4480
12914TIP3   OH260232   0.392   4.019   5.447 -0.2831  0.2083  0.2044
12914TIP3    H160233   0.466   4.066   5.487 -1.1278  1.4370  0.3791
12914TIP3    H260234   0.421   3.928   5.442  2.6336  1.1230 -2.9292
12915TIP3   OH260235   3.881   5.413   1.666  0.2305  0.1575  0.2705
12915TIP3    H160236   3.817   5.450   1.604 -1.9783 -0.8225  1.8581
12915TIP3    H260237   3.929   5.349   1.614  0.3199  1.2679 -1.0979
12916TIP3   OH260238   2.653   3.863   0.257  0.0667 -0.4980  0.4726
12916TIP3    H160239   2.703   3.875   0.176 -0.9976  0.4176 -0.0618
12916TIP3    H260240   2.563   3.881   0.233 -0.4579 -1.4985  1.5776
12917TIP3   OH260241   1.615   6.706  11.731  0.3360 -0.0592 -0.1282
12917TIP3    H160242   1.532   6.725  11.687 -0.8063 -0.8205  1.5969
12917TIP3    H260243   1.681   6.722  11.664 -1.1089  1.5584 -1.2747
12918TIP3   OH260244   6.222   6.570  14.299 -0.6720  0.1022 -0.6590
12918TIP3    H160245   6.223   6.511  14.223 -0.4685  0.4515 -0.9337
12918TIP3    H260246   6.129   6.590  14.312 -0.7475 -0.3394 -0.5164
12919TIP3   OH260247   2.877   3.848   1.321 -0.1117 -0.5479  0.8455
12919TIP3    H160248   2.964   3.879   1.343  0.4513 -1.9104  0.6551
12919TIP3    H260249   2.817   3.913   1.358  0.9916  1.8910 -1.3293
12920TIP3   OH260250   2.770   6.054  13.358  0.1605 -0.1698 -0.6398
12920TIP3    H160251   2.690   6.101  13.336 -0.3758 -0.8167 -0.1137
12920TIP3    H260252   2.763   5.971  13.310  0.0491 -0.6331  0.1477
12921TIP3   OH260253   4.659   4.583   1.353  0.0326  0.0104  0.1236
12921TIP3    H160254   4.605   4.534   1.416 -0.2431 -0.8806 -0.7794
12921TIP3    H260255   4.701   4.651   1.406  0.0528 -0.8961  1.3353
12922TIP3   OH260256   6.564   1.819   5.647  0.0645 -0.2761 -0.2150
12922TIP3    H160257   6.560   1.726   5.667 -3.3284 -0.7276 -2.2635
12922TIP3    H260258   6.637   1.827   5.585 -0.6803 -1.9200 -1.3661
12923TIP3   OH260259   2.182   4.299  13.613  0.4469 -0.5452  0.3046
12923TIP3    H160260   2.259   4.311  13.557  1.3221 -0.3133  1.5300
12923TIP3    H260261   2.199   4.216  13.659  0.0603 -0.3850  0.7395
12924TIP3   OH260262   0.377   2.741   2.368  0.0559 -0.3536 -0.3828
12924TIP3    H160263   0.413   2.677   2.306  3.3192  0.4730  0.4546
12924TIP3    H260264   0.453   2.773   2.416 -1.9958  1.0670  2.1838
12925TIP3   OH260265   3.087   0.473   4.424 -0.0978 -0.1565  0.1315
12925TIP3    H160266   3.124   0.490   4.337  0.2835 -1.8297 -0.0726
12925TIP3    H260267   2.992   0.466   4.408 -0.4963  2.9714  0.4696
12926TIP3   OH260268   2.614   2.688   0.837 -0.1570 -0.2005  0.3732
12926TIP3    H160269   2.570   2.622   0.783 -0.1455  0.3081 -0.2772
12926TIP3    H260270   2.622   2.764   0.779 -0.3490  0.4372  1.1639
12927TIP3   OH260271   0.800   1.370  16.741 -0.1674 -0.1945  0.6019
12927TIP3    H160272   0.754   1.366  16.657 -2.1738 -1.6152  1.7040
12927TIP3    H260273   0.739   1.414  16.800  0.6714 -0.4111  1.6662
12928TIP3   OH260274   1.018   4.472   6.371 -0.6867  0.1002 -0.0440
12928TIP3    H160275   0.945   4.511   6.322  0.1177  1.1277 -0.4653
12928TIP3    H260276   1.005   4.378   6.362 -1.2800  0.2700 -1.1493
12929TIP3   OH260277   0.361   3.717  12.450 -0.3869 -0.1129 -0.5896
12929TIP3    H160278   0.451   3.697  12.473 -0.1512  0.4611 -0.9670
12929TIP3    H260279   0.328   3.639  12.406 -0.0875 -0.3435 -0.3977
12930TIP3   OH260280   4.385   3.909  15.656 -0.3054  0.2591  0.0144
12930TIP3    H160281   4.378   4.002  15.680 -1.0494 -0.2788  2.1988
12930TIP3    H260282   4.296   3.875  15.669 -0.5472 -0.4018 -2.7639
12931TIP3   OH260283   2.352   3.629   5.597 -0.1501 -0.0734  0.1335
12931TIP3    H160284   2.286   3.598   5.536 -1.4377 -0.7493  1.7889
12931TIP3    H260285   2.302   3.670   5.668  1.2899  0.9158  0.6245
12932TIP3   OH260286   0.375   2.209  16.809  0.4029  0.0054  0.0459
12932TIP3    H160287   0.400   2.116  16.801  0.8401  0.2410 -1.9519
12932TIP3    H260288   0.280   2.207  16.819  0.4780 -0.6704  0.7532
12933TIP3   OH260289   3.654   5.019  14.885 -0.5897  0.6717  0.6262
12933TIP3    H160290   3.587   4.983  14.826 -0.3110  0.1572  0.6198
12933TIP3    H260291   3.633   4.981  14.970 -2.1507  2.8599  1.3329
12934TIP3   OH260292   1.410   5.036   1.280 -0.3331  0.3246  0.4063
12934TIP3    H160293   1.409   4.977   1.356  0.8592  1.5435  1.4224
12934TIP3    H260294   1.364   4.988   1.212  0.8197 -1.8833  1.0932
12935TIP3   OH260295   3.098   5.392  13.195 -0.2530 -0.3145  0.9876
12935TIP3    H160296   3.011   5.427  13.216 -0.2363 -1.0120  2.3671
12935TIP3    H260297   3.128   5.444  13.121 -1.1646  1.0671  1.5440
12936TIP3   OH260298   6.842   3.337   2.763 -0.1928  0.2335 -0.3484
12936TIP3    H160299   6.847   3.411   2.703  0.4386 -0.4497 -1.1668
12936TIP3    H260300   6.843   3.260   2.706 -0.0003 -0.4194  0.5179
12937TIP3   OH260301   0.925   1.731   1.853 -0.0515  0.2965  0.0636
12937TIP3    H160302   0.948   1.804   1.910 -0.7638 -0.7380  1.7542
12937TIP3    H260303   0.830   1.732   1.848  0.0013  1.2570 -2.4170
12938TIP3   OH260304   4.055   2.327   5.705  0.3772  0.3362 -0.4078
12938TIP3    H160305   4.076   2.324   5.798 -2.0898  0.8551  0.2500
12938TIP3    H260306   4.049   2.235   5.678 -1.5028  0.0967  0.6682
12939TIP3   OH260307   1.492   5.612   0.531  0.0336 -0.5306 -0.1292
12939TIP3    H160308   1.464   5.700   0.557  0.5718 -0.4067  0.0333
12939TIP3    H260309   1.567   5.592   0.587  1.5873 -0.0358 -1.9085
12940TIP3   OH260310   3.312   4.214  13.298 -0.1792  0.0105  0.4636
12940TIP3    H160311   3.258   4.222  13.219 -0.3650 -1.3559  0.4195
12940TIP3    H260312   3.284   4.131  13.337  1.8662 -0.7253  0.4619
12941TIP3   OH260313   5.997   2.220  14.421  0.0267 -0.4361 -0.1016
12941TIP3    H160314   5.950   2.147  14.462 -2.2363 -0.0712 -1.8474
12941TIP3    H260315   6.025   2.275  14.494  0.8804 -2.4823  1.2017
12942TIP3   OH260316   0.422   4.258   6.723  0.1855  0.2712  0.1691
12942TIP3    H160317   0.390   4.261   6.633  1.5334 -0.6102 -0.3612
12942TIP3    H260318   0.492   4.194   6.722  1.3282  1.4278  1.4950
12943TIP3   OH260319   2.828   3.712  15.837  0.5224 -0.3300 -0.3616
12943TIP3    H160320   2.804   3.796  15.797  2.8670  0.7670  0.3300
12943TIP3    H260321   2.843   3.653  15.762 -0.4466  0.0677 -0.8798
12944TIP3   OH260322   2.114   4.531  11.238 -0.0896  0.5575 -0.1416
12944TIP3    H160323   2.159   4.597  11.186  0.3060  0.8656  0.5687
12944TIP3    H260324   2.047   4.581  11.286  0.6148  0.5621  0.8640
12945TIP3   OH260325   4.176   0.767  15.337 -0.0705  0.0278  0.4908
12945TIP3    H160326   4.262   0.795  15.307 -0.8124 -0.0355 -1.9097
12945TIP3    H260327   4.192   0.684  15.382  1.1846  0.3880  0.7590
12946TIP3   OH260328   6.614   5.078  11.312 -0.1767 -0.3710  0.5480
12946TIP3    H160329   6.686   5.109  11.367  0.4357 -0.5858 -0.1146
12946TIP3    H260330   6.604   4.986  11.337  0.7602 -0.7400 -0.3719
12947TIP3   OH260331   3.199   4.870  15.990  0.0131  0.0784  0.3134
12947TIP3    H160332   3.273   4.835  15.940  1.0009  0.6530  1.3249
12947TIP3    H260333   3.127   4.810  15.972  1.1982 -1.5024  0.6642
12948TIP3   OH260334   5.289   6.846   3.044  0.3112 -0.0465 -0.0887
12948TIP3    H160335   5.199   6.879   3.033 -0.4627 -1.7711  0.6799
12948TIP3    H260336   5.277   6.754   3.069  2.3219 -0.4411 -0.4636
12949TIP3   OH260337   5.816   3.933  11.294  0.2588  0.4356 -0.1450
12949TIP3    H160338   5.808   3.939  11.199  1.1297  0.5157 -0.2152
12949TIP3    H260339   5.771   3.852  11.317  0.8297 -0.0478 -0.7224
12950TIP3   OH260340   3.406   3.504  16.377 -0.0470 -0.0499 -0.2453
12950TIP3    H160341   3.425   3.568  16.445 -0.7396  0.1837 -0.2651
12950TIP3    H260342   3.484   3.448  16.374  0.4806  0.6710 -0.0997
12951TIP3   OH260343   0.501   1.303  14.365 -0.1531  0.0891  0.0644
12951TIP3    H160344   0.516   1.229  14.306 -2.5494 -2.0614  1.9493
12951TIP3    H260345   0.564   1.290  14.436  1.0232  1.2644 -0.7200
12952TIP3   OH260346   5.821   4.257  13.199 -0.1384 -0.5152  0.8366
12952TIP3    H160347   5.850   4.190  13.137 -0.1201 -0.3425  0.6566
12952TIP3    H260348   5.872   4.335  13.175 -1.4832  0.0982 -0.1711
12953TIP3   OH260349   6.335   2.498  14.050  0.4184  0.2197 -0.0971
12953TIP3    H160350   6.407   2.556  14.025 -0.1900  0.8178 -0.5187
12953TIP3    H260351   6.325   2.438  13.976  0.9964 -0.3799  0.3060
12954TIP3   OH260352   0.132   2.977  11.523 -0.1237  0.4425  0.4429
12954TIP3    H160353   0.109   2.965  11.431 -1.7810  1.8074  0.6256
12954TIP3    H260354   0.214   3.026  11.521  1.1374 -1.5577 -0.2481
12955TIP3   OH260355   3.594   2.604   2.076  0.3824  0.3869 -0.4274
12955TIP3    H160356   3.587   2.651   1.993 -0.8218  0.6684 -0.1911
12955TIP3    H260357   3.506   2.608   2.113 -0.0169 -2.6760 -0.7363
12956TIP3   OH260358   2.946   1.262  11.779 -0.0336  0.3773  0.3732
12956TIP3    H160359   2.892   1.251  11.701  0.5705  0.1467 -0.0189
12956TIP3    H260360   2.999   1.339  11.759 -0.2450  0.6298  0.7769
12957TIP3   OH260361   6.094   6.823  11.206  0.0697 -0.6937 -0.5928
12957TIP3    H160362   6.046   6.761  11.150  1.0430  0.3793 -2.7623
12957TIP3    H260363   6.175   6.777  11.229  0.1507 -0.7565 -0.9952
12958TIP3   OH260364   3.466   5.710   1.861 -0.1290 -0.0724 -0.1507
12958TIP3    H160365   3.382   5.682   1.824 -0.4535 -0.3602  0.7734
12958TIP3    H260366   3.449   5.797   1.897  0.3028  0.3990 -1.0581
12959TIP3   OH260367   1.676   1.403   6.304  0.1988  0.1712 -0.3890
12959TIP3    H160368   1.587   1.372   6.324  0.6262 -0.2741  0.9975
12959TIP3    H260369   1.668   1.498   6.299 -0.4768  0.0921 -1.0001
12960TIP3   OH260370   3.277   0.036  12.312  0.2073 -0.3402 -0.5496
12960TIP3    H160371   3.230   0.062  12.232 -1.5442 -2.2317 -0.2101
12960TIP3    H260372   3.227   0.075  12.383  0.7128 -0.1787 -0.2783
12961TIP3   OH260373   6.020   6.826   5.398 -0.5134  0.3732 -0.2547
12961TIP3    H160374   6.014   6.894   5.331  0.9858  1.0482  0.2396
12961TIP3    H260375   5.947   6.845   5.457 -0.7790  0.8753 -0.7353
12962TIP3   OH260376   2.867   4.148   4.509 -0.3598  0.8376 -0.3624
12962TIP3    H160377   2.837   4.057   4.507 -0.6945  0.8513  1.7557
12962TIP3    H260378   2.961   4.142   4.527 -0.5351  0.9036  0.6190
12963TIP3   OH260379   6.373   4.293  14.269 -0.5539 -0.0218 -0.3285
12963TIP3    H160380   6.404   4.327  14.185 -1.3533  0.5280 -0.4100
12963TIP3    H260381   6.449   4.299  14.327 -0.0289 -0.3016 -0.9800
12964TIP3   OH260382   3.428   4.901   3.983  0.1547 -0.0511 -0.3741
12964TIP3    H160383   3.518   4.932   3.995  0.7574 -1.2903 -1.3518
12964TIP3    H260384   3.410   4.848   4.060 -0.2226  1.2209  0.4347
12965TIP3   OH260385   0.366   3.148  17.094 -0.1061 -0.3862 -0.4042
12965TIP3    H160386   0.427   3.211  17.056  0.1970 -0.0743  0.5656
12965TIP3    H260387   0.280   3.177  17.067  0.1076 -0.1959 -0.8808
12966TIP3   OH260388   5.524   3.786   0.376 -0.3974 -0.3729 -0.0067
12966TIP3    H160389   5.535   3.740   0.460 -0.7842  0.4525  0.5045
12966TIP3    H260390   5.601   3.840   0.367 -0.3404 -0.4844 -0.2086
12967TIP3   OH260391   1.510   3.869   3.664 -0.3774 -0.3029 -1.2385
12967TIP3    H160392   1.489   3.784   3.625  0.6775 -1.0193 -0.3000
12967TIP3    H260393   1.584   3.851   3.723 -1.0781  0.9785  0.1022
12968TIP3   OH260394   5.823   0.216   1.588  0.1757  0.2136 -0.2887
12968TIP3    H160395   5.840   0.131   1.628 -0.5901 -0.3768 -1.1712
12968TIP3    H260396   5.824   0.198   1.493 -2.4573  0.6672 -0.4629
12969TIP3   OH260397   0.522   6.481  13.038 -1.1630 -0.2894 -0.1295
12969TIP3    H160398   0.580   6.445  13.105 -0.6018  0.8635  0.0355
12969TIP3    H260399   0.536   6.425  12.961  1.7838  1.1503 -0.7786
12970TIP3   OH260400   2.280   5.672   4.573 -0.5253 -0.1903 -0.3325
12970TIP3    H160401   2.193   5.707   4.554  0.8133  1.7738 -3.7598
12970TIP3    H260402   2.282   5.588   4.526 -0.7959 -0.5762  0.3427
12971TIP3   OH260403   3.513   6.264  11.756 -0.0905  0.4601  0.3198
12971TIP3    H160404   3.522   6.216  11.838 -1.2853  0.7018  0.6197
12971TIP3    H260405   3.514   6.196  11.688  0.1456  0.1909  0.5896
12972TIP3   OH260406   5.072   4.732  12.827  0.6659 -0.7721 -0.3166
12972TIP3    H160407   5.047   4.692  12.743  0.6212 -2.1524  0.3295
12972TIP3    H260408   5.167   4.741  12.821  0.5604  0.0724 -0.9017
12973TIP3   OH260409   5.581   6.435  13.287  0.0066 -0.1126 -0.0238
12973TIP3    H160410   5.554   6.354  13.244 -0.1676 -0.1548  0.1615
12973TIP3    H260411   5.512   6.451  13.351  0.4819 -0.2798  0.5321
12974TIP3   OH260412   0.288   5.993  10.646 -0.4651  0.2051  0.0346
12974TIP3    H160413   0.374   5.971  10.679 -0.0069 -0.6540 -1.6013
12974TIP3    H260414   0.279   5.941  10.566 -1.8814  1.4154 -0.6470
12975TIP3   OH260415   6.132   0.838  12.965  0.0071 -0.2284  0.1896
12975TIP3    H160416   6.064   0.771  12.968 -0.5175  0.0736 -2.3224
12975TIP3    H260417   6.146   0.853  12.871 -1.0476  4.3339  0.5389
12976TIP3   OH260418   5.242   2.112  15.539 -0.5059  0.9309 -0.1687
12976TIP3    H160419   5.201   2.033  15.504  2.0791 -0.9658  0.7708
12976TIP3    H260420   5.210   2.182  15.483 -0.1929 -1.2691 -3.3410
12977TIP3   OH260421   1.801   4.914   6.068  0.5571  0.0806  0.3170
12977TIP3    H160422   1.792   4.826   6.104  1.8110 -0.6867 -1.1252
12977TIP3    H260423   1.727   4.963   6.105 -1.5244 -2.1670 -0.5698
12978TIP3   OH260424   0.370   0.118   5.675 -0.3981  0.0047 -0.1258
12978TIP3    H160425   0.310   0.172   5.624 -0.1505  0.7097  0.3104
12978TIP3    H260426   0.324   0.102   5.758  0.7313  2.2159  1.0334
12979TIP3   OH260427   2.567   3.344  16.049  0.2147  0.4292 -0.3123
12979TIP3    H160428   2.613   3.299  15.978  0.6422  0.7120 -0.2152
12979TIP3    H260429   2.550   3.432  16.016 -1.0291  0.0742 -0.6768
12980TIP3   OH260430   2.198   2.716  14.284 -0.1250 -0.1120 -0.2222
12980TIP3    H160431   2.203   2.672  14.369 -2.1588 -0.1459 -0.0689
12980TIP3    H260432   2.152   2.798  14.302 -1.3968 -0.5183 -1.4001
12981TIP3   OH260433   0.795   5.207  12.772  0.5121 -0.3595  0.1084
12981TIP3    H160434   0.851   5.212  12.849 -1.0046  0.2865  1.2241
12981TIP3    H260435   0.769   5.297  12.755  1.7528 -0.3273 -1.9230
12982TIP3   OH260436   5.999   6.342   1.418 -0.2394  0.0106 -0.4879
12982TIP3    H160437   6.074   6.290   1.387 -0.3175 -0.4165  0.0283
12982TIP3    H260438   6.038   6.425   1.447  0.0403 -0.2165 -0.2064
12983TIP3   OH260439   2.638   4.686  13.154  0.5437 -0.1610  0.1265
12983TIP3    H160440   2.662   4.757  13.215 -2.3342  0.7327  0.3760
12983TIP3    H260441   2.607   4.616  13.211 -0.5590  0.0282 -0.2222
12984TIP3   OH260442   5.117   2.803  16.663 -0.2650  0.5284 -1.1127
12984TIP3    H160443   5.046   2.828  16.722 -0.0109  0.5651 -0.8211
12984TIP3    H260444   5.126   2.877  16.603 -0.6770  0.3952 -1.3517
12985TIP3   OH260445   5.510   5.384   5.978 -0.4139 -0.2671 -0.1575
12985TIP3    H160446   5.464   5.408   5.897  0.8983  0.0126 -0.8450
12985TIP3    H260447   5.452   5.320   6.020 -0.1411 -2.1697 -2.4573
12986TIP3   OH260448   0.221   5.415   3.340 -0.0944 -0.2429  0.2732
12986TIP3    H160449   0.163   5.486   3.368  0.3628  0.7478 -1.1606
12986TIP3    H260450   0.284   5.457   3.281  2.4073 -1.2033  2.1017
12987TIP3   OH260451   4.438   5.815  11.766  0.2514 -0.5182  0.4994
12987TIP3    H160452   4.422   5.748  11.700  0.9750 -0.5246  0.3221
12987TIP3    H260453   4.517   5.860  11.737 -0.0521  0.2177  0.7798
12988TIP3   OH260454   2.437   6.145   3.910  0.2306  0.8455  0.1087
12988TIP3    H160455   2.487   6.197   3.848  1.1627  0.8413  0.8420
12988TIP3    H260456   2.387   6.084   3.856  1.1781  0.7102 -0.6339
12989TIP3   OH260457   5.169   3.517  15.590  0.3226 -0.2107  0.3723
12989TIP3    H160458   5.180   3.575  15.666 -0.5279  0.3986  0.0429
12989TIP3    H260459   5.138   3.575  15.520 -2.0796 -1.3124  0.4565
12990TIP3   OH260460   6.206   2.093  16.866 -1.0084  0.1651  0.0237
12990TIP3    H160461   6.163   2.153  16.806 -0.9017 -1.1309 -1.4302
12990TIP3    H260462   6.162   2.009  16.851 -1.4967 -0.0576  2.3343
12991TIP3   OH260463   5.418   1.079  14.692 -0.5198  0.3994 -0.2498
12991TIP3    H160464   5.348   1.014  14.689 -1.1771  1.1155 -0.8574
12991TIP3    H260465   5.412   1.116  14.780  0.3903 -0.9139  0.3885
12992TIP3   OH260466   5.504   5.529   0.105 -0.2584 -0.1040 -0.0976
12992TIP3    H160467   5.531   5.582   0.030 -0.2062 -1.8118 -1.3457
12992TIP3    H260468   5.409   5.539   0.109 -0.2788 -0.1224 -0.4988
12993TIP3   OH260469   0.872   0.549   6.061  0.0194 -0.1003  0.0763
12993TIP3    H160470   0.904   0.552   6.152  1.2600 -1.2356 -0.2837
12993TIP3    H260471   0.947   0.517   6.011 -0.1310  2.0209 -1.6259
12994TIP3   OH260472   1.407   4.920  11.117  0.3776  0.0759  0.0430
12994TIP3    H160473   1.496   4.934  11.086  0.1039  0.8056 -0.4479
12994TIP3    H260474   1.358   4.894  11.039 -0.1059  0.9530  0.0389
12995TIP3   OH260475   5.644   5.952  16.375 -0.7262 -0.0557  0.0448
12995TIP3    H160476   5.579   5.883  16.389 -0.6372 -0.2871 -0.6648
12995TIP3    H260477   5.715   5.929  16.435 -0.2075 -1.2183 -0.9652
12996TIP3   OH260478   0.615   4.521   3.381  0.2028  0.1015 -0.3708
12996TIP3    H160479   0.527   4.542   3.414  0.4519 -1.5318  1.5572
12996TIP3    H260480   0.604   4.437   3.337  0.9018 -0.5733  0.6835
12997TIP3   OH260481   6.660   2.871  11.247 -0.0640  0.2488 -0.1355
12997TIP3    H160482   6.655   2.891  11.154 -0.0983  1.0567  0.0332
12997TIP3    H260483   6.569   2.858  11.274  0.0454 -1.6962 -0.5569
12998TIP3   OH260484   0.408   2.059  10.409  0.8580 -0.3525  0.6513
12998TIP3    H160485   0.487   2.014  10.380  0.5162 -1.0792  0.8300
12998TIP3    H260486   0.438   2.126  10.470  1.3618 -0.3997  0.4529
12999TIP3   OH260487   2.697   0.683  12.392 -0.4037 -0.6402 -0.5082
12999TIP3    H160488   2.718   0.757  12.449 -1.6627 -1.0822  0.5556
12999TIP3    H260489   2.762   0.689  12.322  1.3565 -0.2187  1.0770
13000TIP3   OH260490   2.979   5.970  11.678 -0.1762 -0.3892 -0.2032
13000TIP3    H160491   2.956   6.061  11.696  0.4635 -0.3343  0.3541
13000TIP3    H260492   3.030   5.973  11.597  1.4949 -0.0081  0.8155
13001TIP3   OH260493   4.063   6.633   3.787  0.3088 -0.2108  0.0962
13001TIP3    H160494   3.988   6.686   3.760  1.8998  1.7205 -0.8090
13001TIP3    H260495   4.121   6.633   3.712  1.9481 -0.2446  1.3039
13002TIP3   OH260496   5.389   5.267  14.911 -0.1819  0.3450  0.2138
13002TIP3    H160497   5.393   5.362  14.926  0.9968  0.5834 -1.3875
13002TIP3    H260498   5.322   5.237  14.972 -0.1283  2.1082  1.2356
13003TIP3   OH260499   3.663   1.839   4.594 -0.4762  0.1748  0.0705
13003TIP3    H160500   3.628   1.776   4.656  0.5931 -0.8300 -0.3144
13003TIP3    H260501   3.733   1.792   4.549 -0.5826  1.1949 -1.2074
13004TIP3   OH260502   4.544   3.269  10.927  0.2245 -0.2916  0.3973
13004TIP3    H160503   4.608   3.238  10.991  1.3979 -1.7023 -1.3642
13004TIP3    H260504   4.579   3.241  10.842 -1.4054  1.2631 -0.8638
13005TIP3   OH260505   1.606   5.458   6.497  0.2502 -0.7378  0.0953
13005TIP3    H160506   1.602   5.367   6.467 -0.7395 -0.1457 -1.6798
13005TIP3    H260507   1.544   5.462   6.570  0.3072 -1.4682  0.1944
13006TIP3   OH260508   4.504   5.577   1.252 -0.6854 -0.3854  0.1382
13006TIP3    H160509   4.439   5.507   1.264  0.0085 -1.3501 -1.3424
13006TIP3    H260510   4.523   5.608   1.341 -1.8085 -1.3451  0.7421
13007TIP3   OH260511   1.793   0.239  12.447  0.2288  0.7506  0.2551
13007TIP3    H160512   1.854   0.311  12.435  0.0603  1.0603  1.1884
13007TIP3    H260513   1.845   0.160  12.431  0.1912  1.0666 -1.7470
13008TIP3   OH260514   5.612   5.758  16.695 -0.1193  0.3069 -0.6692
13008TIP3    H160515   5.568   5.708  16.763  2.0040 -1.8745 -0.7715
13008TIP3    H260516   5.593   5.710  16.614 -0.0823  1.1139 -1.1701
13009TIP3   OH260517   0.707   1.788   0.104 -0.1927  0.0625  0.1712
13009TIP3    H160518   0.780   1.734   0.134 -2.0631 -1.8036  1.6489
13009TIP3    H260519   0.736   1.823   0.020  2.6685  0.0358  1.0442
13010TIP3   OH260520   3.319   4.103   6.075 -0.0864 -0.4446 -0.1993
13010TIP3    H160521   3.308   4.093   6.169 -0.0171 -1.5631 -0.2943
13010TIP3    H260522   3.245   4.057   6.036  0.0607 -0.2772 -0.6972
13011TIP3   OH260523   1.733   0.093   3.098 -0.6326 -0.4810  0.0635
13011TIP3    H160524   1.715   0.179   3.062 -0.5506  0.7226  2.6387
13011TIP3    H260525   1.826   0.079   3.082 -0.8137 -0.4443 -1.0416
13012TIP3   OH260526   6.059   3.245   2.583 -0.0783 -0.4153  0.1936
13012TIP3    H160527   6.122   3.229   2.512  0.8202  1.0188  0.6056
13012TIP3    H260528   5.975   3.215   2.549  0.4308 -0.2390 -1.2850
13013TIP3   OH260529   3.396   5.156  12.362 -0.1273  0.4379 -0.3391
13013TIP3    H160530   3.402   5.080  12.304 -0.6677  0.2368 -0.1269
13013TIP3    H260531   3.457   5.220  12.323 -0.5988  0.3646 -1.2138
13014TIP3   OH260532   0.535   0.655   0.040 -0.1841 -0.3139 -0.0855
13014TIP3    H160533   0.497   0.586  -0.015  2.2762 -1.3171 -0.6648
13014TIP3    H260534   0.584   0.710  -0.021 -0.6771  0.9354  0.6175
13015TIP3   OH260535   6.208   4.920   3.647  0.6569 -1.0441 -0.0199
13015TIP3    H160536   6.154   4.978   3.593 -0.6924 -1.4021  0.9161
13015TIP3    H260537   6.231   4.848   3.588 -0.2928 -1.1235 -0.3109
13016TIP3   OH260538   6.197   3.313   3.268  0.1730  0.0843  0.2221
13016TIP3    H160539   6.225   3.260   3.193 -1.1286  0.0404 -0.2519
13016TIP3    H260540   6.101   3.307   3.267  0.1357 -1.4267  2.9757
13017TIP3   OH260541   5.937   6.330  16.454  0.2547  0.0884  0.4798
13017TIP3    H160542   5.842   6.339  16.463  0.1891  2.6460 -1.5502
13017TIP3    H260543   5.970   6.335  16.544 -1.4683 -0.1401  1.1636
13018TIP3   OH260544   2.836   0.731  14.046  0.3518 -0.4126 -0.1753
13018TIP3    H160545   2.834   0.826  14.032 -0.6406 -0.1703  1.3568
13018TIP3    H260546   2.925   0.713  14.076  0.5787  0.0074 -0.5811
13019TIP3   OH260547   3.744   0.310  12.514 -0.1621  0.2800 -0.0555
13019TIP3    H160548   3.788   0.245  12.568 -0.2042  0.3652  0.0794
13019TIP3    H260549   3.651   0.301  12.537 -0.1637  0.4129 -0.0135
13020TIP3   OH260550   0.781   3.818  10.436  0.2080  0.1320 -0.0177
13020TIP3    H160551   0.706   3.851  10.487  0.8316  0.0505  0.9686
13020TIP3    H260552   0.815   3.896  10.391 -0.3002  0.2153 -0.2725
13021TIP3   OH260553   5.520   5.266   2.628 -0.1290  0.1642 -0.5573
13021TIP3    H160554   5.615   5.271   2.633 -0.1432  0.7577 -0.7691
13021TIP3    H260555   5.490   5.282   2.717 -0.0049 -0.8738 -0.3255
13022TIP3   OH260556   4.102   0.291  11.819  0.0109 -0.2266  0.2273
13022TIP3    H160557   4.100   0.375  11.864 -0.3481  0.6741 -1.3781
13022TIP3    H260558   4.010   0.272  11.799  0.0708 -1.1015  0.7245
13023TIP3   OH260559   2.636   0.981  11.792 -0.5909 -0.5063  0.1098
13023TIP3    H160560   2.627   1.000  11.885 -0.3398  1.1369 -0.1778
13023TIP3    H260561   2.552   0.941  11.768 -2.2812  2.6196  0.2585
13024TIP3   OH260562   2.894   6.805   4.776  0.0515  0.2029  0.2275
13024TIP3    H160563   2.860   6.751   4.847 -0.4377 -1.2276 -1.0438
13024TIP3    H260564   2.967   6.754   4.739  1.0894  1.4647  0.4399
13025TIP3   OH260565   3.457   2.291  11.057 -0.0335  0.6416  0.6187
13025TIP3    H160566   3.522   2.255  11.117  0.1511  0.9058  0.5816
13025TIP3    H260567   3.474   2.386  11.057  0.6637  0.5341 -0.6790
13026TIP3   OH260568   5.066   6.651  13.833 -0.0766  0.0976 -0.0334
13026TIP3    H160569   5.030   6.583  13.890 -0.4621  0.9794  0.7983
13026TIP3    H260570   4.996   6.670  13.771 -0.3839  0.5251  0.4415
13027TIP3   OH260571   6.229   5.605  12.665 -0.1375  0.1414  0.4189
13027TIP3    H160572   6.293   5.554  12.616  0.2854  0.4301  0.6669
13027TIP3    H260573   6.260   5.602  12.756 -0.4998  0.2441  0.5488
13028TIP3   OH260574   4.088   4.175  13.191 -0.2203 -0.0378  0.2282
13028TIP3    H160575   4.060   4.199  13.279 -0.9702 -0.1925  0.0399
13028TIP3    H260576   4.026   4.219  13.133 -0.5660 -1.0376 -0.1788
13029TIP3   OH260577   2.861   0.389   4.159 -0.2777  0.2729  0.3480
13029TIP3    H160578   2.851   0.301   4.196 -1.6700  0.8680  1.4438
13029TIP3    H260579   2.788   0.439   4.194  0.4916  1.8923 -0.2593
13030TIP3   OH260580   6.697   6.703   2.204 -0.6808  0.2318 -0.6399
13030TIP3    H160581   6.731   6.639   2.141 -1.9837 -0.0083 -1.1282
13030TIP3    H260582   6.757   6.778   2.196 -0.2728 -0.1633 -1.4795
13031TIP3   OH260583   2.513   3.645   1.981 -0.4100  0.1565  0.1779
13031TIP3    H160584   2.524   3.591   1.903  0.4966  1.4785 -0.6680
13031TIP3    H260585   2.433   3.694   1.965  0.1436  0.9421 -0.2818
13032TIP3   OH260586   6.853   5.643   5.972 -0.4291  0.4257  0.1103
13032TIP3    H160587   6.923   5.578   5.972 -1.8936 -1.2600 -0.8550
13032TIP3    H260588   6.864   5.691   6.054  1.7390  0.1157  0.0423
13033TIP3   OH260589   1.105   2.893  11.459  0.1137  0.2652  0.0242
13033TIP3    H160590   1.014   2.903  11.489 -0.6890 -0.7828 -1.8690
13033TIP3    H260591   1.098   2.892  11.364  2.2863  1.3795 -0.2001
13034TIP3   OH260592   6.171   4.715   1.410 -0.3340 -0.1987 -0.2076
13034TIP3    H160593   6.250   4.698   1.462 -0.8258 -0.0871  0.5972
13034TIP3    H260594   6.099   4.704   1.472 -1.0606 -1.6601 -1.2485
13035TIP3   OH260595   2.247   5.235   0.012  0.0371  0.0667 -0.3521
13035TIP3    H160596   2.269   5.162  -0.046 -0.6394 -1.7119  1.5051
13035TIP3    H260597   2.151   5.234   0.015  0.0203  1.0557 -0.2924
13036TIP3   OH260598   5.303   1.593  15.698  0.5630  0.5894 -0.1237
13036TIP3    H160599   5.340   1.583  15.786 -0.4026  0.4416  0.2813
13036TIP3    H260600   5.315   1.507  15.657 -0.5295  0.1046  0.5025
13037TIP3   OH260601   6.326   5.749   4.941 -0.3224  0.0664  0.2293
13037TIP3    H160602   6.384   5.824   4.956  0.8318 -0.9845  1.2071
13037TIP3    H260603   6.327   5.736   4.846 -0.2797  1.0721  0.0862
13038TIP3   OH260604   0.179   0.675   1.301 -0.0389  0.5036 -0.2520
13038TIP3    H160605   0.147   0.587   1.283  0.4666  0.2067  0.2525
13038TIP3    H260606   0.106   0.719   1.343 -0.0585  0.0915  0.1583
13039TIP3   OH260607   1.536   1.334  16.965 -0.5655  0.3641 -0.0947
13039TIP3    H160608   1.497   1.247  16.957 -0.6012  0.3826 -0.1248
13039TIP3    H260609   1.620   1.327  16.920 -0.2831  0.1713  0.4499
13040TIP3   OH260610   2.147   3.522   4.738 -0.2536 -0.0899 -0.0955
13040TIP3    H160611   2.190   3.447   4.696 -0.0506 -0.8472  1.3827
13040TIP3    H260612   2.058   3.520   4.704  0.2399  0.1346 -1.4747
13041TIP3   OH260613   2.119   1.611   5.594  0.1454  0.1358  0.0903
13041TIP3    H160614   2.156   1.641   5.677  0.4790  2.5447 -0.8647
13041TIP3    H260615   2.170   1.532   5.573  0.8970  0.1938  1.5257
13042TIP3   OH260616   1.341   2.150   4.536 -0.8501 -0.0939 -0.4169
13042TIP3    H160617   1.407   2.170   4.602 -1.2809  0.4355 -0.1375
13042TIP3    H260618   1.309   2.236   4.508 -2.3545 -0.3601  0.4125
13043TIP3   OH260619   5.692   3.044   3.730  0.5914 -0.0873 -0.1239
13043TIP3    H160620   5.600   3.054   3.753  0.7726  0.4554  0.3708
13043TIP3    H260621   5.735   3.122   3.765  1.0637  0.2034 -1.2806
13044TIP3   OH260622   2.938   0.543  16.837  0.8796  0.8326 -0.0336
13044TIP3    H160623   2.928   0.547  16.742  2.0157 -0.1066 -0.2235
13044TIP3    H260624   2.868   0.599  16.871 -0.4200  0.0928 -1.3640
13045TIP3   OH260625   2.004   5.639  13.798  0.0909  0.1848  0.0323
13045TIP3    H160626   1.941   5.710  13.796 -0.2317 -0.1067 -1.9595
13045TIP3    H260627   1.962   5.568  13.749  0.7519 -1.0913  1.2334
13046TIP3   OH260628   3.917   2.115  14.694 -0.3889 -0.1157 -0.1122
13046TIP3    H160629   3.847   2.074  14.746 -0.3220 -0.3147 -0.1768
13046TIP3    H260630   3.992   2.057  14.707 -0.3332 -0.0902 -0.3207
13047TIP3   OH260631   0.725   6.439  12.509 -0.1095  0.0520 -0.1606
13047TIP3    H160632   0.781   6.390  12.450 -0.6118 -2.4387  1.3036
13047TIP3    H260633   0.781   6.463  12.583 -0.5739 -1.2507  0.6571
13048TIP3   OH260634   0.534   4.031  16.335  0.2489  0.3945 -0.6078
13048TIP3    H160635   0.597   3.998  16.271 -0.5982 -0.3207 -1.1009
13048TIP3    H260636   0.519   3.957  16.394 -0.2799  0.4753 -0.6289
13049TIP3   OH260637   3.461   6.463   2.384 -0.0501  0.5165 -0.3014
13049TIP3    H160638   3.514   6.534   2.347 -0.1160  1.2946  1.0273
13049TIP3    H260639   3.519   6.418   2.445  0.2783 -1.2181 -1.8022
13050TIP3   OH260640   4.250   3.084  14.807  0.1929 -0.0680  0.5007
13050TIP3    H160641   4.290   2.998  14.819 -0.8992 -0.5105  1.1204
13050TIP3    H260642   4.316   3.136  14.762  1.2671 -0.9126  1.0778
13051TIP3   OH260643   3.758   6.042  15.028 -0.0416 -0.1281 -0.5245
13051TIP3    H160644   3.712   6.044  15.112  1.5291  2.0508  0.3889
13051TIP3    H260645   3.689   6.025  14.963 -1.3325 -1.5923  1.1288
13052TIP3   OH260646   6.242   0.943   5.882 -0.2862  0.4004  0.1778
13052TIP3    H160647   6.270   0.881   5.950  0.0861 -1.1523 -1.3198
13052TIP3    H260648   6.158   0.976   5.912  0.5870  0.9922  2.1471
13053TIP3   OH260649   5.614   5.211  15.922 -0.2593  0.0759  0.8636
13053TIP3    H160650   5.521   5.226  15.938 -0.1045  1.2765  0.7406
13053TIP3    H260651   5.654   5.298  15.934  0.9559 -0.5728  1.7193
13054TIP3   OH260652   0.472   2.502  13.744  0.1776 -0.0077  0.6018
13054TIP3    H160653   0.484   2.443  13.818  0.4743 -0.0164  0.5488
13054TIP3    H260654   0.559   2.508  13.703 -0.3028 -1.2851 -0.7002
13055TIP3   OH260655   1.550   2.652   0.619 -0.4258 -0.3084 -0.2049
13055TIP3    H160656   1.581   2.571   0.658  1.1656  0.0231 -0.7196
13055TIP3    H260657   1.553   2.716   0.690 -0.8013 -0.4746 -0.0343
13056TIP3   OH260658   2.899   5.447   1.374 -0.5469  0.4185 -0.0062
13056TIP3    H160659   2.982   5.439   1.326 -0.3722 -0.5355  0.4332
13056TIP3    H260660   2.874   5.539   1.363  0.5539  0.7150 -0.1725
13057TIP3   OH260661   3.153   3.943  16.511 -0.6476 -0.6492 -0.1992
13057TIP3    H160662   3.174   4.026  16.555 -0.3774 -1.4572  1.2507
13057TIP3    H260663   3.225   3.929  16.450  0.8872 -1.2621  1.6788
13058TIP3   OH260664   5.357   5.391   5.629 -0.4057 -0.3697  0.2652
13058TIP3    H160665   5.395   5.413   5.544  1.6881  0.4654  1.3444
13058TIP3    H260666   5.331   5.299   5.621  1.8613 -0.9831 -0.5869
13059TIP3   OH260667   1.550   5.093  14.624 -0.0226 -0.1235 -0.2095
13059TIP3    H160668   1.607   5.034  14.674 -0.8366  0.3093  1.3081
13059TIP3    H260669   1.609   5.155  14.582  0.6673  0.0516  0.9750
13060TIP3   OH260670   0.873   0.751   5.125 -0.2337 -0.0767  0.0910
13060TIP3    H160671   0.847   0.660   5.137 -0.0618 -0.0328  0.8314
13060TIP3    H260672   0.966   0.753   5.148 -0.3314  0.3546  0.4627
13061TIP3   OH260673   4.958   4.976   3.596  0.1170 -0.1641  0.8458
13061TIP3    H160674   5.037   4.997   3.646  1.3998  0.4219 -1.2898
13061TIP3    H260675   4.968   4.883   3.573 -1.2757 -0.9041  2.9348
13062TIP3   OH260676   5.049   5.386  11.821  0.0743 -0.9083  0.0996
13062TIP3    H160677   5.039   5.309  11.765 -1.0088 -0.2369 -0.6593
13062TIP3    H260678   4.979   5.379  11.885  0.2643 -0.8021  0.3201
13063TIP3   OH260679   6.023   2.368   2.207 -0.5742  0.4615 -0.0620
13063TIP3    H160680   6.096   2.307   2.218 -0.8818  0.1146  0.0597
13063TIP3    H260681   6.062   2.454   2.225  0.1635  0.4564 -1.4569
13064TIP3   OH260682   2.748   1.459  15.417  0.2214 -0.3778 -0.2510
13064TIP3    H160683   2.780   1.549  15.409  0.5241 -0.4572  0.0368
13064TIP3    H260684   2.828   1.406  15.423  0.0377 -0.5951  0.3306
13065TIP3   OH260685   0.366   3.369  13.547  0.6381  0.4181 -0.2207
13065TIP3    H160686   0.432   3.410  13.603  0.9916  0.0176 -0.3437
13065TIP3    H260687   0.293   3.352  13.606  0.6595  0.8152 -0.0708
13066TIP3   OH260688   0.664   6.390   2.549  0.1648 -0.8666  0.2456
13066TIP3    H160689   0.585   6.364   2.597  0.0674 -0.2026  0.4516
13066TIP3    H260690   0.736   6.362   2.605  0.0532  1.1204  1.4816
13067TIP3   OH260691   3.125   4.669  11.444 -0.3259 -0.5063  0.4227
13067TIP3    H160692   3.039   4.693  11.478  0.6483  0.5586  2.2158
13067TIP3    H260693   3.140   4.581  11.478 -0.0278 -0.0597  1.4627
13068TIP3   OH260694   5.773   0.154  10.909  0.7744  0.2033  0.1014
13068TIP3    H160695   5.789   0.074  10.960 -1.4738 -1.1650 -1.1553
13068TIP3    H260696   5.812   0.224  10.962  1.9592 -1.5778  1.7478
13069TIP3   OH260697   0.343   6.143   3.609  0.1251  0.7519 -0.5896
13069TIP3    H160698   0.404   6.124   3.681 -1.8505 -1.3583  0.6801
13069TIP3    H260699   0.357   6.236   3.590  3.1213  0.5686  0.1487
13070TIP3   OH260700   4.955   1.955   1.894 -0.2473  0.1592 -0.0760
13070TIP3    H160701   4.881   1.904   1.929 -0.5942  0.7415  0.0568
13070TIP3    H260702   5.018   1.959   1.965  0.0107 -0.5209 -0.2595
13071TIP3   OH260703   6.817   6.400  15.295  0.3734 -0.6293 -0.4243
13071TIP3    H160704   6.750   6.375  15.231  0.9765 -0.6742 -1.0435
13071TIP3    H260705   6.898   6.402  15.245  0.5553  1.2765 -0.0983
13072TIP3   OH260706   0.451   4.132  12.439 -0.6069  0.2762  0.0829
13072TIP3    H160707   0.461   4.223  12.468 -1.7882  0.2107  0.7343
13072TIP3    H260708   0.529   4.116  12.386 -1.5669  2.4960 -2.2624
13073TIP3   OH260709   3.602   4.106  10.218 -0.0806  0.0490 -0.1200
13073TIP3    H160710   3.588   4.109  10.124 -1.5236 -0.5908  0.0418
13073TIP3    H260711   3.647   4.022  10.233 -1.9064 -0.9689 -0.0514
13074TIP3   OH260712   0.649   5.325  13.165 -0.3482 -0.8331 -0.1215
13074TIP3    H160713   0.564   5.288  13.187 -0.5668  0.2948  1.0885
13074TIP3    H260714   0.656   5.403  13.220  1.4810 -0.9255 -0.1531
13075TIP3   OH260715   1.782   0.994   2.562 -0.6775  0.2666  0.3290
13075TIP3    H160716   1.877   0.997   2.553 -0.6367  1.0063  0.9205
13075TIP3    H260717   1.751   1.078   2.529 -1.0082  0.5700  1.3775
13076TIP3   OH260718   1.360   2.330   5.209  0.0073 -0.9008  0.3520
13076TIP3    H160719   1.417   2.263   5.172 -0.9852 -0.4489 -2.1975
13076TIP3    H260720   1.289   2.338   5.145 -0.2258  2.1341  0.8863
13077TIP3   OH260721   5.677   5.750   6.422 -0.0930  0.3967 -0.4204
13077TIP3    H160722   5.664   5.706   6.506 -1.7492  2.0624  0.2764
13077TIP3    H260723   5.589   5.755   6.384  0.5652  0.1375 -2.0271
13078TIP3   OH260724   1.056   1.401  16.750 -0.0591  0.1213  0.3290
13078TIP3    H160725   0.967   1.367  16.745 -0.0841  0.3022 -0.4445
13078TIP3    H260726   1.083   1.414  16.660  1.1110 -0.8376  0.5082
13079TIP3   OH260727   6.243   3.973   5.537  0.3387 -0.4059 -0.3994
13079TIP3    H160728   6.235   3.878   5.530  0.4393 -0.7020  2.4668
13079TIP3    H260729   6.281   3.988   5.623 -4.5964  2.3543  1.7039
13080TIP3   OH260730   6.369   1.023   2.161 -0.0927  0.0373  0.4640
13080TIP3    H160731   6.313   1.019   2.239  0.3634 -1.0003  0.7647
13080TIP3    H260732   6.451   1.060   2.193 -0.7971  2.2096 -0.1195
13081TIP3   OH260733   6.631   6.431  10.707 -0.4027 -0.3240 -0.4616
13081TIP3    H160734   6.595   6.424  10.796  0.8894  0.1380  0.1292
13081TIP3    H260735   6.562   6.396  10.651 -0.5275 -2.5355  0.8957
13082TIP3   OH260736   1.576   1.935   0.809  0.0841 -0.3910 -0.5543
13082TIP3    H160737   1.500   1.986   0.835 -1.8328 -2.7208 -1.2242
13082TIP3    H260738   1.583   1.949   0.714 -0.6629 -1.5507 -0.8019
13083TIP3   OH260739   2.674   5.888   4.066  0.6930  0.9923  0.0226
13083TIP3    H160740   2.733   5.847   4.003 -1.7983 -1.5320 -0.8791
13083TIP3    H260741   2.718   5.877   4.150  0.7102 -2.7499 -0.3207
13084TIP3   OH260742   5.589   3.209   4.650  0.7895  0.1603  0.2127
13084TIP3    H160743   5.623   3.256   4.727 -1.6117  1.2339  0.7242
13084TIP3    H260744   5.575   3.120   4.681 -0.0238  0.5472  1.0463
13085TIP3   OH260745   3.037   2.078   3.742  0.5626  0.3287 -0.4550
13085TIP3    H160746   3.048   2.126   3.824 -0.6258  0.7328 -0.5147
13085TIP3    H260747   3.033   1.986   3.767 -0.7532  0.5086  0.0654
13086TIP3   OH260748   4.591   2.076  11.581  0.6666 -0.2128  0.3573
13086TIP3    H160749   4.559   2.042  11.497  0.1937  2.0959 -0.4563
13086TIP3    H260750   4.517   2.124  11.618  1.8213  1.5583  0.5039
13087TIP3   OH260751   6.095   5.689  10.195  0.7295  0.4229 -0.1555
13087TIP3    H160752   6.178   5.687  10.147  1.2536  0.4096  0.7361
13087TIP3    H260753   6.112   5.745  10.270 -0.1148  0.5310 -0.0385
13088TIP3   OH260754   6.456   5.643  12.018 -0.5814 -0.6638  0.5012
13088TIP3    H160755   6.443   5.633  11.924 -0.0305  0.8544  0.2341
13088TIP3    H260756   6.550   5.632  12.031 -0.0958  2.3956  0.3381
13089TIP3   OH260757   1.044   6.545   6.225 -0.3182 -0.3073 -0.2713
13089TIP3    H160758   1.080   6.460   6.251 -1.8119 -0.3128  2.0525
13089TIP3    H260759   0.955   6.546   6.261  0.1091  2.7445  1.0002
13090TIP3   OH260760   1.283   4.338   4.292 -0.1785  0.2217 -0.0562
13090TIP3    H160761   1.226   4.307   4.221 -1.4846  0.4454  0.8583
13090TIP3    H260762   1.333   4.409   4.253 -2.6976  2.0953 -0.1541
13091TIP3   OH260763   4.653   5.830   4.410 -0.6046  0.5138  0.1057
13091TIP3    H160764   4.660   5.877   4.327  0.3353 -1.3859 -0.9534
13091TIP3    H260765   4.730   5.857   4.459 -0.8506  1.1908  0.1325
13092TIP3   OH260766   1.950   3.636  15.084  0.4461 -0.2235 -0.0253
13092TIP3    H160767   2.043   3.627  15.101  0.5467  0.6399 -0.0537
13092TIP3    H260768   1.928   3.723  15.117 -0.2481 -0.2333 -0.4364
13093TIP3   OH260769   0.445   0.343  14.721 -0.0958 -0.2500  0.3615
13093TIP3    H160770   0.472   0.434  14.735 -0.1131  0.0506 -1.3897
13093TIP3    H260771   0.359   0.349  14.680 -0.0944 -1.0645  0.2178
13094TIP3   OH260772   4.389   3.443   5.786  0.7091  0.0110 -0.0627
13094TIP3    H160773   4.349   3.529   5.775  0.9229 -0.0202 -1.2899
13094TIP3    H260774   4.481   3.455   5.761  0.3085 -0.9430 -2.2790
13095TIP3   OH260775   0.398   4.118   4.152  0.1381  0.3179 -0.3547
13095TIP3    H160776   0.326   4.057   4.137  0.9629 -0.7564 -0.1644
13095TIP3    H260777   0.463   4.066   4.200  0.0115  1.9426  1.7396
13096TIP3   OH260778   4.819   1.170  14.320 -0.0673 -0.1187 -0.0078
13096TIP3    H160779   4.853   1.092  14.363  0.8380  0.4449  0.3453
13096TIP3    H260780   4.851   1.242  14.374 -1.0438  0.4867 -0.2208
13097TIP3   OH260781   4.147   1.634   0.413  0.3204 -0.6647  0.0942
13097TIP3    H160782   4.140   1.610   0.505  0.1973  1.7603  0.8027
13097TIP3    H260783   4.241   1.644   0.398  0.2537  2.2419  1.0096
13098TIP3   OH260784   6.119   5.941  15.575 -0.2729  0.2195 -0.4498
13098TIP3    H160785   6.190   6.005  15.567 -0.6509  0.5541 -1.2585
13098TIP3    H260786   6.064   5.976  15.646 -0.4409  0.7636 -0.8408
13099TIP3   OH260787   5.334   0.451  10.728 -0.2681  0.1377 -0.1725
13099TIP3    H160788   5.254   0.486  10.766 -0.6519 -2.7828  2.0430
13099TIP3    H260789   5.404   0.509  10.760 -1.1855  0.9622  0.3783
13100TIP3   OH260790   5.470   0.747  14.688 -0.0348 -0.4857 -0.2033
13100TIP3    H160791   5.495   0.776  14.600  0.5475  0.9209  0.3894
13100TIP3    H260792   5.505   0.659  14.696  0.9156 -0.1972 -0.9885
13101TIP3   OH260793   2.276   4.511   1.340 -0.1581  0.4915  0.6575
13101TIP3    H160794   2.188   4.480   1.363 -0.1356  0.7655  1.1368
13101TIP3    H260795   2.296   4.576   1.407  1.5471 -1.5289  2.2401
13102TIP3   OH260796   3.975   6.006  12.863  0.0268  0.0220  0.3026
13102TIP3    H160797   3.998   5.979  12.774  2.3848 -2.3844  1.5372
13102TIP3    H260798   4.028   6.085  12.878  0.2055 -0.0091 -0.1310
13103TIP3   OH260799   3.924   5.439  15.965  0.4628 -0.2899 -0.3013
13103TIP3    H160800   3.972   5.466  15.886 -1.6303 -1.2117 -2.0007
13103TIP3    H260801   3.870   5.515  15.987 -0.7763 -0.8370 -1.3060
13104TIP3   OH260802   2.246   4.010   5.284  0.3592  0.4542  0.2164
13104TIP3    H160803   2.231   3.922   5.249  0.2680  0.0950  1.1256
13104TIP3    H260804   2.325   4.040   5.240  0.9046 -0.4508  0.5420
13105TIP3   OH260805   1.271   0.828   1.726  0.1060 -0.3301 -0.1259
13105TIP3    H160806   1.363   0.804   1.739 -0.1053 -2.6485 -2.0584
13105TIP3    H260807   1.224   0.745   1.733 -1.7985  0.7354  0.3125
13106TIP3   OH260808   5.394   6.443   2.282 -0.0106 -0.0788  0.3359
13106TIP3    H160809   5.374   6.497   2.205  1.9207  1.1305  0.6133
13106TIP3    H260810   5.309   6.427   2.323 -0.8286  1.3046 -0.7197
13107TIP3   OH260811   2.674   0.773  12.031  0.4475 -0.2257  0.3939
13107TIP3    H160812   2.718   0.800  11.950  1.5389 -0.0958  1.0147
13107TIP3    H260813   2.741   0.725  12.079  0.4664  1.4414  2.1433
13108TIP3   OH260814   1.589   5.279   0.618 -0.0246 -0.0153 -0.0641
13108TIP3    H160815   1.639   5.232   0.551  0.3054 -2.3016  1.6796
13108TIP3    H260816   1.624   5.368   0.617  2.4404 -0.9356 -0.4983
13109TIP3   OH260817   3.372   3.313   5.605  0.1929 -0.4236 -0.1090
13109TIP3    H160818   3.333   3.266   5.678 -1.1879 -1.3174 -1.3624
13109TIP3    H260819   3.346   3.404   5.617  0.9885 -0.3356  1.1193
13110TIP3   OH260820   0.801   4.718   4.761 -0.3700 -0.0724  0.7672
13110TIP3    H160821   0.819   4.710   4.855  1.5323  0.5200  0.5143
13110TIP3    H260822   0.823   4.632   4.725  0.6472  0.2205  0.6543
13111TIP3   OH260823   1.282   4.870  17.111 -0.2458 -0.1075  0.1339
13111TIP3    H160824   1.339   4.796  17.129  0.6010  0.2698 -0.8739
13111TIP3    H260825   1.198   4.846  17.150  0.4447 -0.8962  1.1928
13112TIP3   OH260826   2.028   0.067  10.918  0.4619 -0.5752  0.5477
13112TIP3    H160827   2.124   0.064  10.922  0.6642  1.9849 -0.4004
13112TIP3    H260828   2.004  -0.009  10.865  2.0306 -0.8103  0.1177
13113TIP3   OH260829   4.226   0.056  15.918  0.2046 -0.5010 -0.0486
13113TIP3    H160830   4.254   0.134  15.966 -0.9083  0.6363 -1.1662
13113TIP3    H260831   4.132   0.067  15.907 -0.0519 -2.2233  0.0993
13114TIP3   OH260832   6.762   4.457  11.113  0.3389 -0.9305  0.1508
13114TIP3    H160833   6.714   4.382  11.077  0.6936 -0.3700 -1.6103
13114TIP3    H260834   6.725   4.533  11.069  0.7656 -0.1779  1.0556
13115TIP3   OH260835   3.292   4.499  12.726 -0.2000  0.2124 -0.1536
13115TIP3    H160836   3.266   4.557  12.655  0.6157 -1.1843 -1.6686
13115TIP3    H260837   3.336   4.426  12.683  1.5261 -0.0659  1.8851
13116TIP3   OH260838   1.055   4.490   1.734  0.4203 -0.0742  0.2831
13116TIP3    H160839   1.103   4.439   1.668 -1.0268 -1.2414  0.0764
13116TIP3    H260840   1.116   4.498   1.807  1.1177 -1.0860 -0.1580
13117TIP3   OH260841   6.044   0.614  13.630  0.7288 -0.0143  0.4934
13117TIP3    H160842   5.994   0.541  13.666 -0.2909  0.0036 -0.7952
13117TIP3    H260843   6.135   0.592  13.648  0.3203 -0.4063  2.2556
13118TIP3   OH260844   5.433   3.911  15.734  0.5814 -0.3686  0.1625
13118TIP3    H160845   5.450   3.890  15.643 -1.3545 -1.1606 -0.0641
13118TIP3    H260846   5.337   3.915  15.741  0.6721 -0.3173  2.1476
13119TIP3   OH260847   2.829   1.320  13.185 -0.3022  0.3963  0.2369
13119TIP3    H160848   2.829   1.316  13.280 -0.8779  0.9361  0.2692
13119TIP3    H260849   2.912   1.281  13.159 -0.0131  0.5058  0.9742
13120TIP3   OH260850   1.557   5.692  14.328  0.3649 -0.0223 -0.2738
13120TIP3    H160851   1.585   5.712  14.239  1.0739 -2.4590 -0.6579
13120TIP3    H260852   1.637   5.666  14.374 -0.2580 -0.6039  0.5317
13121TIP3   OH260853   1.786   0.582   2.871  0.2256 -0.1380 -0.5729
13121TIP3    H160854   1.764   0.654   2.812 -0.0483 -0.9819 -1.5307
13121TIP3    H260855   1.861   0.614   2.921 -0.4610  1.1513 -0.3206
13122TIP3   OH260856   4.254   6.685  16.035  0.0963 -0.8744 -0.4508
13122TIP3    H160857   4.229   6.766  15.991  0.6189 -1.6343 -2.2000
13122TIP3    H260858   4.340   6.703  16.072  0.8825 -1.0586 -2.1092
13123TIP3   OH260859   3.564   3.534   2.769  0.1937  0.0195 -0.2830
13123TIP3    H160860   3.517   3.470   2.716  1.1399 -0.9275 -0.0266
13123TIP3    H260861   3.517   3.616   2.756 -1.6216 -0.9065  0.1157
13124TIP3   OH260862   6.136   2.927   0.388  0.4228  0.2702 -0.1834
13124TIP3    H160863   6.065   2.979   0.426  1.7129  1.0055  1.3128
13124TIP3    H260864   6.165   2.870   0.459  1.4886  0.1536 -0.6946
13125TIP3   OH260865   4.713   6.057   0.075  0.2372 -0.2518 -0.1778
13125TIP3    H160866   4.683   6.139   0.115  0.1479 -0.0572 -0.6386
13125TIP3    H260867   4.635   6.023   0.031  0.0219 -1.0717  0.8092
13126TIP3   OH260868   2.048   1.907  12.743  0.0649  0.6167 -0.2877
13126TIP3    H160869   2.119   1.866  12.695 -0.8745 -0.2219 -1.0064
13126TIP3    H260870   1.970   1.859  12.716 -0.4263 -0.4476  2.6406
13127TIP3   OH260871   4.399   1.328  13.725 -0.1946  0.0624  0.0130
13127TIP3    H160872   4.482   1.357  13.688 -0.4732  0.5855 -0.2092
13127TIP3    H260873   4.418   1.311  13.817  0.0399  0.6692  0.0778
13128TIP3   OH260874   5.049   5.751  14.649 -0.8099  0.4987  0.1194
13128TIP3    H160875   4.974   5.797  14.613 -2.0264 -0.1884  1.6684
13128TIP3    H260876   5.066   5.796  14.732 -2.1769 -1.8665  1.8008
13129TIP3   OH260877   5.352   6.801   3.364  0.1011  0.1388  0.5813
13129TIP3    H160878   5.284   6.734   3.365  0.4145 -0.1839  0.4264
13129TIP3    H260879   5.337   6.852   3.444 -1.3456  1.1090 -0.2613
13130TIP3   OH260880   2.759   4.351  16.499 -0.3831  0.0827 -0.5239
13130TIP3    H160881   2.687   4.317  16.551  0.6104 -0.9317  0.2555
13130TIP3    H260882   2.837   4.332  16.551  0.7225 -1.5347 -2.6057
13131TIP3   OH260883   0.759   6.714  15.765  0.0150  0.0644  0.3202
13131TIP3    H160884   0.802   6.763  15.835  0.6113  0.5164 -0.3533
13131TIP3    H260885   0.696   6.659  15.810 -0.5688  1.3373  1.1203
13132TIP3   OH260886   0.401   3.837  11.879 -0.1490 -0.7431  0.2149
13132TIP3    H160887   0.346   3.820  11.956  1.0612  1.4348  1.6557
13132TIP3    H260888   0.373   3.924  11.849  1.9956  0.1173  0.5807
13133TIP3   OH260889   2.839   0.695  13.679  0.0471  0.3218 -0.5750
13133TIP3    H160890   2.745   0.695  13.663  0.0944 -0.5102 -0.9053
13133TIP3    H260891   2.847   0.721  13.771 -0.5857 -0.7001 -0.2039
13134TIP3   OH260892   1.156   3.121  13.855  0.0755  0.1524 -0.2502
13134TIP3    H160893   1.185   3.040  13.812  0.0165  0.2492 -0.4722
13134TIP3    H260894   1.231   3.147  13.908 -0.4836 -0.9520  1.1353
13135TIP3   OH260895   3.697   3.183  16.920 -0.0669  0.6156 -0.2243
13135TIP3    H160896   3.709   3.250  16.987  0.5341  0.5667 -0.2816
13135TIP3    H260897   3.664   3.107  16.968 -1.9674  1.3192 -0.3324
13136TIP3   OH260898   3.189   2.545   0.128 -0.0874 -0.1655  0.3987
13136TIP3    H160899   3.112   2.492   0.150 -1.0082  0.8425 -0.3034
13136TIP3    H260900   3.161   2.635   0.141  1.0141  0.2199  0.2046
13137TIP3   OH260901   0.290   5.170   3.231  0.1442  0.2328  0.3175
13137TIP3    H160902   0.276   5.189   3.138  2.0180 -0.0035 -0.0613
13137TIP3    H260903   0.246   5.241   3.277  0.0470  0.9217 -0.7997
13138TIP3   OH260904   2.267   4.646  15.246  0.3025 -0.4756  0.3629
13138TIP3    H160905   2.267   4.635  15.342  0.8797 -0.5049  0.3665
13138TIP3    H260906   2.359   4.633  15.221 -0.2627 -3.4762 -0.5403
13139TIP3   OH260907   4.209   5.251   3.736 -0.1703 -0.0730  0.0746
13139TIP3    H160908   4.284   5.233   3.679  0.0674 -1.6867  0.8582
13139TIP3    H260909   4.227   5.202   3.816 -0.8714  1.5378  1.2776
13140TIP3   OH260910   2.122   5.098  13.741  0.3354 -0.7491  0.3834
13140TIP3    H160911   2.050   5.069  13.685 -0.4326 -0.5188  1.2233
13140TIP3    H260912   2.091   5.181  13.778  1.2415 -0.3933  0.3702
13141TIP3   OH260913   5.357   0.677   5.594  0.2396  0.5658  0.1376
13141TIP3    H160914   5.299   0.618   5.547  2.2010  0.2522 -2.0783
13141TIP3    H260915   5.330   0.764   5.566  1.0028  0.4074 -1.1682
13142TIP3   OH260916   3.858   3.333  11.844  0.4924  0.0729 -0.5990
13142TIP3    H160917   3.785   3.299  11.792 -0.1714  1.9306 -0.9756
13142TIP3    H260918   3.821   3.408  11.891  1.4716 -0.6339  1.3947
13143TIP3   OH260919   5.909   3.816   5.910  0.8039  0.0294  0.1189
13143TIP3    H160920   5.985   3.817   5.968  1.5091  0.5306 -0.7833
13143TIP3    H260921   5.901   3.725   5.882  2.3634  0.3057 -1.3904
13144TIP3   OH260922   2.254   5.577   1.458 -0.3532  0.1282 -0.0972
13144TIP3    H160923   2.281   5.628   1.535 -0.3791 -0.4881  0.3260
13144TIP3    H260924   2.306   5.496   1.463 -2.2382 -1.0831  0.7199
13145TIP3   OH260925   1.609   6.456  12.725  0.6599  0.3201 -0.6304
13145TIP3    H160926   1.657   6.380  12.759 -0.1171  0.6853  1.4402
13145TIP3    H260927   1.663   6.488  12.653  1.4928 -1.6169 -0.9435
13146TIP3   OH260928   4.249   4.279   5.198 -0.2542  0.2608 -0.2316
13146TIP3    H160929   4.230   4.205   5.141  2.0142 -0.3057 -0.3719
13146TIP3    H260930   4.340   4.266   5.224 -0.2504  2.2237  0.9364
13147TIP3   OH260931   6.358   5.620  13.691 -0.4770  0.5637  0.2979
13147TIP3    H160932   6.301   5.640  13.617  0.2324 -1.1101 -0.7743
13147TIP3    H260933   6.431   5.571  13.652 -0.1609 -0.5234  2.1278
13148TIP3   OH260934   3.508   1.845  14.770 -0.3677 -0.1008 -0.6402
13148TIP3    H160935   3.468   1.799  14.844  2.9282 -2.3492 -0.0716
13148TIP3    H260936   3.464   1.808  14.693  0.7585 -2.8453 -0.0710
13149TIP3   OH260937   6.648   5.886  12.284  0.2488 -0.2526 -0.5722
13149TIP3    H160938   6.732   5.849  12.258  1.7931  1.6363  1.3046
13149TIP3    H260939   6.624   5.838  12.363  1.1740  1.1831  0.6352
13150TIP3   OH260940   5.533   2.029  15.573 -0.2025 -0.1191  0.1940
13150TIP3    H160941   5.559   2.035  15.481  0.3411 -2.0765  0.1645
13150TIP3    H260942   5.584   1.955  15.608  0.8744  1.6062  2.5391
13151TIP3   OH260943   4.715   3.906  12.846 -0.3554  0.1415 -0.4067
13151TIP3    H160944   4.702   3.959  12.924 -5.2277  2.2255 -2.2111
13151TIP3    H260945   4.655   3.833  12.857 -0.9408  0.3428 -2.0424
13152TIP3   OH260946   4.128   2.928   2.087  0.2496  0.0543  0.1913
13152TIP3    H160947   4.133   2.835   2.065  0.3619  0.0578  0.2023
13152TIP3    H260948   4.152   2.973   2.006 -3.2527  0.1633 -0.9785
13153TIP3   OH260949   5.954   3.584   5.066  0.1986 -0.5953 -0.4697
13153TIP3    H160950   5.893   3.591   5.140 -1.4177 -0.7347 -1.7336
13153TIP3    H260951   5.933   3.500   5.026  1.7764 -0.9996 -0.5094
13154TIP3   OH260952   4.654   1.669  15.474  0.3579 -0.1185 -0.0860
13154TIP3    H160953   4.624   1.756  15.501  1.5893  0.3026 -0.0049
13154TIP3    H260954   4.676   1.625  15.556  2.4069  0.5273 -0.2244
13155TIP3   OH260955   4.126   3.562   4.311 -0.6337 -0.4372 -0.3113
13155TIP3    H160956   4.129   3.469   4.334  2.3759 -0.3483  0.0951
13155TIP3    H260957   4.079   3.564   4.227  0.8927 -2.6243 -1.3315
13156TIP3   OH260958   5.293   6.581   1.151 -0.1393 -0.2678 -0.3148
13156TIP3    H160959   5.292   6.502   1.097 -0.5068 -0.0767 -0.6021
13156TIP3    H260960   5.310   6.652   1.089  2.7675 -0.3216  0.2724
13157TIP3   OH260961   1.504   0.137   0.487 -0.1396  0.6641 -0.0073
13157TIP3    H160962   1.432   0.080   0.462 -0.2150  0.3280  0.9157
13157TIP3    H260963   1.509   0.128   0.582  1.1191  0.6696 -0.0527
13158TIP3   OH260964   4.014   0.828   2.517  0.7096 -0.3160  0.5047
13158TIP3    H160965   4.030   0.814   2.611 -2.1956 -1.0889  0.9874
13158TIP3    H260966   4.052   0.914   2.499  1.4872 -0.2097  2.3291
13159TIP3   OH260967   5.936   4.507  16.587  0.1039  0.2306  0.3771
13159TIP3    H160968   5.846   4.483  16.562  0.2086  0.0658  0.1583
13159TIP3    H260969   5.965   4.436  16.644 -0.6594  1.3239  2.1904
13160TIP3   OH260970   5.406   1.968  16.388  0.0968  0.0024 -0.6813
13160TIP3    H160971   5.461   1.963  16.310  0.1449 -0.9307 -0.5988
13160TIP3    H260972   5.330   1.914  16.367 -0.8452  1.3163 -0.8124
13161TIP3   OH260973   0.922   3.359  12.361  0.0129 -0.3596  0.4750
13161TIP3    H160974   0.849   3.323  12.310  0.5455 -1.9413  0.7863
13161TIP3    H260975   1.000   3.317  12.326  0.4526 -1.0556  2.1943
13162TIP3   OH260976   3.771   3.091   5.493 -0.3232  0.0926  0.8235
13162TIP3    H160977   3.747   3.015   5.440 -0.1688 -0.4079  1.4480
13162TIP3    H260978   3.728   3.165   5.451 -0.5073 -0.3510  0.2248
13163TIP3   OH260979   4.487   2.683   0.631 -0.1422 -0.3191 -0.0738
13163TIP3    H160980   4.402   2.657   0.666  0.0967 -0.2165  0.6030
13163TIP3    H260981   4.484   2.658   0.539 -0.7358 -0.7280  0.0525
13164TIP3   OH260982   3.438   3.665  11.117 -0.2349 -0.1315 -0.2708
13164TIP3    H160983   3.420   3.675  11.023 -0.1500  0.4747 -0.2247
13164TIP3    H260984   3.513   3.722  11.133 -1.5906  1.4784  0.5917
13165TIP3   OH260985   4.267   5.653  16.912  0.4846  0.1235  0.0375
13165TIP3    H160986   4.255   5.595  16.987  1.8370  2.4635  2.2177
13165TIP3    H260987   4.289   5.594  16.839  0.1093 -2.1765  1.6776
13166TIP3   OH260988   3.507   1.437  14.483 -0.0358  0.0563 -0.1649
13166TIP3    H160989   3.552   1.447  14.399 -0.3306  0.5995 -0.2643
13166TIP3    H260990   3.545   1.503  14.540  1.6165 -1.6301  0.7969
13167TIP3   OH260991   0.584   5.578  14.179 -0.0621  0.7201  0.0264
13167TIP3    H160992   0.610   5.637  14.109  0.4903 -0.6674 -0.9884
13167TIP3    H260993   0.568   5.494  14.135  0.9195 -0.3563  1.6138
13168TIP3   OH260994   3.546   2.947  10.895 -0.0772  0.0335 -0.0889
13168TIP3    H160995   3.469   2.931  10.841 -1.3871 -1.2293  2.0076
13168TIP3    H260996   3.585   2.861  10.910 -0.3987  0.1661  1.8149
13169TIP3   OH260997   6.484   4.657  13.123 -0.0179 -0.1511 -0.0968
13169TIP3    H160998   6.488   4.668  13.218  1.1495 -1.8904  0.1133
13169TIP3    H260999   6.399   4.694  13.098 -0.3025  0.4433  1.5992
13170TIP3   OH261000   1.145   4.191   5.401 -0.0729  0.3965  0.0385
13170TIP3    H161001   1.137   4.282   5.428 -2.3172  0.6621 -1.2262
13170TIP3    H261002   1.229   4.187   5.354  0.0758  1.8022  0.1422
13171TIP3   OH261003   5.650   4.326   2.479 -0.1297 -0.0014  0.4541
13171TIP3    H161004   5.726   4.273   2.455  0.1035  0.6433 -0.2480
13171TIP3    H261005   5.594   4.325   2.402 -0.9852 -0.7073  1.0637
13172TIP3   OH261006   5.278   5.457  12.844  0.1249 -0.1211 -0.0213
13172TIP3    H161007   5.207   5.520  12.830 -0.3545 -0.6290  0.0440
13172TIP3    H261008   5.249   5.379  12.797  0.4131 -0.4972  0.4161
13173TIP3   OH261009   4.137   3.898  12.293  0.1722  0.2493  0.5169
13173TIP3    H161010   4.178   3.824  12.248 -0.6620  0.6213 -0.9055
13173TIP3    H261011   4.205   3.965  12.295  0.4284 -0.0011  0.4149
13174TIP3   OH261012   6.342   5.953  16.605 -0.3925 -0.0928  0.2420
13174TIP3    H161013   6.354   6.008  16.682  0.2859 -0.5260  0.4541
13174TIP3    H261014   6.418   5.972  16.550 -2.3524  2.5472 -1.8186
13175TIP3   OH261015   5.159   0.964   4.694 -0.2262 -0.7614  0.0597
13175TIP3    H161016   5.196   1.028   4.633  1.6090 -0.8731  0.9928
13175TIP3    H261017   5.073   1.000   4.717  1.4301  2.4179  1.9497
13176TIP3   OH261018   5.549   4.670   0.682 -0.1019 -0.0617  0.4225
13176TIP3    H161019   5.525   4.762   0.690 -0.7630 -0.0529 -1.2408
13176TIP3    H261020   5.467   4.622   0.694  0.0338 -0.3627  0.1572
13177TIP3   OH261021   3.185   4.058   3.817  0.6962  0.1347  0.0752
13177TIP3    H161022   3.210   4.039   3.727 -0.2732  0.1225 -0.2011
13177TIP3    H261023   3.203   4.151   3.828  1.3637  0.0163  0.0656
13178TIP3   OH261024   6.402   6.353   4.071 -0.1931  0.1999  0.6298
13178TIP3    H161025   6.489   6.317   4.088 -0.3372 -0.1623  0.5985
13178TIP3    H261026   6.342   6.281   4.090 -0.4063 -0.0031 -0.7100
13179TIP3   OH261027   2.735   1.053  15.868 -0.1082  0.2906 -0.0175
13179TIP3    H161028   2.722   0.971  15.916 -2.2747  0.4575 -0.2532
13179TIP3    H261029   2.716   1.122  15.932  3.1997  0.7931  0.6543
13180TIP3   OH261030   0.184   0.882   5.413  0.2026 -0.3920 -0.5819
13180TIP3    H161031   0.181   0.825   5.490  0.2284  1.0080  0.4941
13180TIP3    H261032   0.156   0.967   5.445 -1.0425 -0.0468 -2.4180
13181TIP3   OH261033   5.834   6.399  13.352  0.0459 -0.2942  0.6240
13181TIP3    H161034   5.749   6.437  13.332  0.0656 -0.2784  0.5696
13181TIP3    H261035   5.843   6.327  13.289  0.6190  0.4856 -0.2096
13182TIP3   OH261036   0.445   6.269  16.475 -0.4177 -0.4094 -0.0375
13182TIP3    H161037   0.505   6.332  16.435 -1.1390 -0.2522 -0.8791
13182TIP3    H261038   0.463   6.276  16.569  1.5133 -1.0114 -0.3115
13183TIP3   OH261039   2.104   1.471  10.465 -0.4811 -0.2387  0.1906
13183TIP3    H161040   2.051   1.392  10.479  0.4643 -0.7956  0.7097
13183TIP3    H261041   2.191   1.447  10.495  0.6163 -0.0385 -2.5709
13184TIP3   OH261042   1.457   3.864   4.974 -0.1178 -0.7178  0.1212
13184TIP3    H161043   1.371   3.888   4.941  0.2861  1.3581  0.4398
13184TIP3    H261044   1.440   3.832   5.063 -0.7080 -1.8242 -0.3797
13185TIP3   OH261045   4.456   3.146  10.365  0.0543  0.3303 -0.2800
13185TIP3    H161046   4.399   3.201  10.311 -1.5016 -1.2080 -0.2982
13185TIP3    H261047   4.534   3.132  10.310 -0.1706  1.2883 -0.8641
13186TIP3   OH261048   4.406   3.979  10.557 -0.3225  0.2825 -0.0993
13186TIP3    H161049   4.462   3.978  10.479  0.2808  0.7999  0.3191
13186TIP3    H261050   4.425   4.063  10.599  1.0776 -0.9315  1.8373
13187TIP3   OH261051   0.109   1.413   1.705  0.1321  0.4122  0.0579
13187TIP3    H161052   0.072   1.400   1.618 -0.5760  0.6057  0.3158
13187TIP3    H261053   0.180   1.350   1.712  1.7275  1.9388 -1.5041
13188TIP3   OH261054   4.997   1.186  16.156 -0.4109 -0.3471  0.0567
13188TIP3    H161055   4.910   1.164  16.190  0.7749 -1.4695  2.7408
13188TIP3    H261056   5.034   1.102  16.128 -0.0287  0.0515 -0.6740
13189TIP3   OH261057   6.095   6.658   2.794 -0.1371 -0.4002  0.3538
13189TIP3    H161058   6.088   6.592   2.864  0.8698 -0.8951  0.0151
13189TIP3    H261059   6.118   6.739   2.840  0.2688 -0.6660  0.6318
13190TIP3   OH261060   5.425   1.716   0.695 -0.4744  0.3610 -0.0682
13190TIP3    H161061   5.472   1.632   0.695 -1.5118 -0.2799  2.2408
13190TIP3    H261062   5.493   1.781   0.681  1.1832 -0.5477  2.9139
13191TIP3   OH261063   0.217   2.447  15.286  0.2730 -0.2367 -0.3627
13191TIP3    H161064   0.230   2.394  15.364 -3.8052  0.7871  1.2604
13191TIP3    H261065   0.137   2.412  15.247 -0.2781  2.1395 -1.5085
13192TIP3   OH261066   2.079   6.348  12.233 -0.1783  0.0490 -0.6767
13192TIP3    H161067   2.081   6.255  12.252 -1.6916  0.3435  1.1640
13192TIP3    H261068   1.987   6.372  12.235  0.1984  1.6656 -0.6553
13193TIP3   OH261069   6.293   3.373  12.402  0.1738  0.6688  0.4303
13193TIP3    H161070   6.273   3.421  12.321 -1.1779 -1.5032 -0.6359
13193TIP3    H261071   6.325   3.288  12.372  1.4635  0.4665  2.2242
13194TIP3   OH261072   4.501   0.479  12.616 -0.3279  0.0911 -0.0691
13194TIP3    H161073   4.516   0.464  12.709  0.8412  0.8096 -0.1118
13194TIP3    H261074   4.408   0.463  12.603 -1.0288  2.3027  1.7068
13195TIP3   OH261075   5.892   0.601   0.504 -0.0360  0.1080  0.5258
13195TIP3    H161076   5.940   0.544   0.563 -0.3606 -2.2729 -1.3854
13195TIP3    H261077   5.954   0.624   0.435 -0.9713 -1.3254 -0.8689
13196TIP3   OH261078   4.397   3.638   4.577 -0.0681 -0.6637  0.5044
13196TIP3    H161079   4.393   3.560   4.633  0.5202 -0.7636  0.4170
13196TIP3    H261080   4.486   3.671   4.589 -0.0850 -0.4217 -0.0187
13197TIP3   OH261081   0.875   4.977   0.465 -0.1445  0.5312 -0.4815
13197TIP3    H161082   0.782   4.967   0.444 -0.0094  0.6053 -1.1241
13197TIP3    H261083   0.916   4.896   0.433 -0.1237  0.0963  0.6194
13198TIP3   OH261084   3.585   5.001  10.081  0.1359 -0.2662  0.1925
13198TIP3    H161085   3.649   4.936  10.112  0.6269  0.4373  0.6956
13198TIP3    H261086   3.568   5.056  10.157  1.2186  1.3847 -0.7054
13199TIP3   OH261087   0.988   0.473   3.460 -0.7419  0.6825 -0.2106
13199TIP3    H161088   0.939   0.417   3.400 -1.0303 -1.2729  1.7514
13199TIP3    H261089   0.934   0.479   3.538  1.2404  0.0035  1.3184
13200TIP3   OH261090   4.071   1.253  12.539  0.4390 -0.5561  0.1224
13200TIP3    H161091   4.130   1.304  12.483 -0.5463  1.1754  0.5972
13200TIP3    H261092   4.129   1.213  12.604  1.1529  0.7219  0.3004
13201TIP3   OH261093   5.276   6.645   0.008 -0.7334  0.1467 -0.0216
13201TIP3    H161094   5.185   6.627  -0.018 -0.8015 -0.0385  0.3321
13201TIP3    H261095   5.287   6.596   0.090  0.0958 -0.8957 -0.7331
13202TIP3   OH261096   0.400   5.187  13.125  0.1177 -0.0289  0.9329
13202TIP3    H161097   0.403   5.092  13.134 -0.4005 -0.1655 -0.1445
13202TIP3    H261098   0.307   5.209  13.129  0.1227  0.2686 -0.1753
13203TIP3   OH261099   5.903   4.888   4.879  0.7035  0.4166 -0.3843
13203TIP3    H161100   5.962   4.817   4.905  0.5073  0.2696 -0.3398
13203TIP3    H261101   5.828   4.880   4.937  0.6708  0.6480 -0.3943
13204TIP3   OH261102   2.373   5.622  14.785 -0.5789 -0.2122 -0.1089
13204TIP3    H161103   2.299   5.614  14.725 -0.5768 -1.0129 -0.0165
13204TIP3    H261104   2.334   5.616  14.872 -0.6945  1.8035  0.0415
13205TIP3   OH261105   5.291   4.730   3.390 -0.2396  0.1953 -0.8935
13205TIP3    H161106   5.279   4.732   3.485 -0.7430  0.7923 -0.9650
13205TIP3    H261107   5.208   4.696   3.356  0.9316 -2.9867 -0.9778
13206TIP3   OH261108   5.461   5.717   3.305 -0.0852 -0.0163  0.1976
13206TIP3    H161109   5.397   5.692   3.372 -0.6687  0.5750 -0.1218
13206TIP3    H261110   5.464   5.642   3.246 -2.1459  0.7295 -0.9911
13207TIP3   OH261111   5.657   0.213   0.263  0.1763  0.3109 -0.4927
13207TIP3    H161112   5.636   0.194   0.172 -0.9068 -1.4360  0.0658
13207TIP3    H261113   5.729   0.276   0.259  2.1694 -1.8919 -2.5719
13208TIP3   OH261114   1.415   5.692   5.839  0.5844 -0.4597  0.0578
13208TIP3    H161115   1.479   5.758   5.865  0.2591  0.1291 -0.5879
13208TIP3    H261116   1.463   5.609   5.840  2.0597  0.2465 -2.7321
13209TIP3   OH261117   6.292   2.862   0.883 -0.5978  0.3171  0.2610
13209TIP3    H161118   6.313   2.953   0.864 -0.8772  0.4659  0.6403
13209TIP3    H261119   6.249   2.830   0.804 -0.2406  0.4288  0.0202
13210TIP3   OH261120   0.217   3.479  14.224 -0.0830  0.3385  1.1445
13210TIP3    H161121   0.287   3.424  14.191 -0.4281  0.5446  0.0325
13210TIP3    H261122   0.261   3.556  14.260  0.2419  0.6463  0.0997
13211TIP3   OH261123   0.510   5.994  14.688 -0.0053  0.3663  0.3521
13211TIP3    H161124   0.597   5.953  14.694 -0.5118 -0.5670  1.5660
13211TIP3    H261125   0.455   5.927  14.647  0.0181  1.3073 -1.3434
13212TIP3   OH261126   2.353   5.278  13.909  0.1289  0.2550  0.5704
13212TIP3    H161127   2.439   5.237  13.897  0.8555  1.6018  0.9583
13212TIP3    H261128   2.294   5.205  13.928  0.6516 -1.0129 -2.1650
13213TIP3   OH261129   5.629   0.733   2.317 -0.8035 -0.1868 -0.0362
13213TIP3    H161130   5.566   0.791   2.276 -1.6068 -1.1726 -0.2458
13213TIP3    H261131   5.636   0.659   2.256  0.8788  0.0897 -0.2264
13214TIP3   OH261132   1.227   6.808   3.618 -0.2347 -0.1064 -0.2949
13214TIP3    H161133   1.196   6.727   3.577  1.3308  0.2068 -2.2034
13214TIP3    H261134   1.195   6.878   3.561  1.2520  0.3882 -0.5729
13215TIP3   OH261135   4.416   4.223  11.968  0.4565 -0.9186  0.1414
13215TIP3    H161136   4.500   4.232  11.923  0.0226 -1.1770 -0.7397
13215TIP3    H261137   4.433   4.253  12.057  1.5496 -1.2355  0.0467
13216TIP3   OH261138   6.623   4.207   3.641  0.9330  0.2388 -0.3487
13216TIP3    H161139   6.585   4.283   3.597  1.3695  0.0612 -1.0537
13216TIP3    H261140   6.548   4.159   3.675  0.7158  1.8434  1.5999
13217TIP3   OH261141   5.945   5.066   4.111  0.2450 -0.0987  0.9017
13217TIP3    H161142   5.939   5.060   4.206  0.3630 -1.5685  0.8366
13217TIP3    H261143   5.889   5.140   4.088 -0.4603 -0.2661  2.0363
13218TIP3   OH261144   5.846   0.778  14.346 -0.1975  0.0020 -0.4949
13218TIP3    H161145   5.751   0.770  14.347 -0.1796 -0.4057 -1.0274
13218TIP3    H261146   5.869   0.771  14.253  0.3751 -0.2552 -0.3388
13219TIP3   OH261147   3.246   3.961   4.472  0.0848  0.2842  0.2777
13219TIP3    H161148   3.191   4.000   4.404 -0.0427 -3.6424 -2.2176
13219TIP3    H261149   3.333   3.998   4.458  0.0279 -0.3287 -2.0502
13220TIP3   OH261150   4.037   2.187   0.110  0.8273 -0.2551 -0.3120
13220TIP3    H161151   4.044   2.266   0.057  0.9703  0.6119  0.9707
13220TIP3    H261152   3.944   2.165   0.107  0.7036  0.2446 -0.2807
13221TIP3   OH261153   6.856   5.927   0.762 -0.5674  0.1596  0.5237
13221TIP3    H161154   6.853   5.964   0.674 -1.8739 -1.4899 -0.1662
13221TIP3    H261155   6.860   5.832   0.749 -2.8502 -0.2726  2.1689
13222TIP3   OH261156   3.367   1.526  12.216 -0.0128  0.6813  0.0048
13222TIP3    H161157   3.457   1.507  12.243  0.2708  1.7388 -0.1159
13222TIP3    H261158   3.374   1.609  12.169 -1.2157  1.3591  0.9540
13223TIP3   OH261159   6.589   4.063  15.439  0.0127  0.9520  0.3513
13223TIP3    H161160   6.664   4.004  15.448 -1.2126 -0.7111  0.0441
13223TIP3    H261161   6.612   4.121  15.367  0.6304 -0.1231 -0.3289
13224TIP3   OH261162   3.821   2.816  16.655 -0.3704  0.3838  0.0015
13224TIP3    H161163   3.856   2.759  16.587  1.4362  0.8019  0.5439
13224TIP3    H261164   3.779   2.757  16.717  0.5706 -0.2661  0.0268
13225TIP3   OH261165   0.396   1.171  13.968 -0.2088 -0.0877  0.0773
13225TIP3    H161166   0.430   1.149  13.881 -1.7490 -0.2973 -0.5073
13225TIP3    H261167   0.340   1.097  13.991  0.6249 -0.2963  1.5107
13226TIP3   OH261168   1.482   6.756  11.316 -0.5575  0.4720 -0.0568
13226TIP3    H161169   1.395   6.754  11.356 -1.0977  2.1575 -1.0591
13226TIP3    H261170   1.504   6.849  11.311  3.8208  0.2752  5.3272
13227TIP3   OH261171   3.834   4.355   4.844 -0.0958  0.2950 -0.6172
13227TIP3    H161172   3.896   4.295   4.887  0.0830 -0.3660 -1.7691
13227TIP3    H261173   3.794   4.402   4.917 -0.6705 -1.6257  0.3986
13228TIP3   OH261174   2.751   4.994   1.942  0.4594 -0.4883  0.4175
13228TIP3    H161175   2.708   5.076   1.917  0.6831 -0.7810 -1.0677
13228TIP3    H261176   2.810   5.018   2.013 -0.1092  0.4733  0.5783
13229TIP3   OH261177   2.786   4.344   4.918  0.0636 -0.0291 -0.2969
13229TIP3    H161178   2.796   4.307   5.006 -0.1298  0.0649 -0.2361
13229TIP3    H261179   2.700   4.316   4.889 -0.7838  1.7319  0.4044
13230TIP3   OH261180   3.454   6.670  11.736 -0.5097  0.1789 -0.2431
13230TIP3    H161181   3.499   6.669  11.652 -1.8296  0.7610 -0.9804
13230TIP3    H261182   3.523   6.693  11.799  0.7709 -1.4578 -0.9492
13231TIP3   OH261183   5.847   5.091   4.705 -0.0822  0.1279  0.4572
13231TIP3    H161184   5.862   5.012   4.758 -0.6888  1.0081  1.9933
13231TIP3    H261185   5.926   5.099   4.652 -1.1200 -3.0722 -1.8713
13232TIP3   OH261186   1.021   3.009  16.928  0.0072 -0.5789 -0.5108
13232TIP3    H161187   1.022   2.932  16.871 -0.0020 -0.4759 -0.6519
13232TIP3    H261188   1.109   3.012  16.966 -0.0513 -0.7655 -0.3599
13233TIP3   OH261189   3.724   2.879   2.953  0.5896 -0.0288 -0.3377
13233TIP3    H161190   3.718   2.956   3.009  0.9714 -0.2333 -0.0106
13233TIP3    H261191   3.817   2.857   2.953  0.2112 -1.9913  1.6417
13234TIP3   OH261192   1.437   5.648   4.815 -0.2556 -0.0089  0.0502
13234TIP3    H161193   1.487   5.657   4.897 -0.3578 -0.4911  0.1717
13234TIP3    H261194   1.490   5.693   4.750 -0.3771  0.7457  0.4637
13235TIP3   OH261195   3.095   1.710  16.162  0.9282 -0.1150  0.5667
13235TIP3    H161196   3.034   1.764  16.211  1.3770  2.0272 -1.0885
13235TIP3    H261197   3.171   1.700  16.220  0.8854  1.1635  0.8660
13236TIP3   OH261198   2.789   5.152  16.222 -0.5078 -0.8163 -0.5209
13236TIP3    H161199   2.825   5.112  16.143  0.7642 -0.7173 -0.0139
13236TIP3    H261200   2.812   5.090  16.292 -1.7325 -0.9703 -0.2306
13237TIP3   OH261201   1.931   1.384   3.876  0.6653 -0.4841  0.0046
13237TIP3    H161202   1.911   1.305   3.826 -0.9185 -0.6651  0.8430
13237TIP3    H261203   1.845   1.421   3.897  1.3641  1.9219 -1.0366
13238TIP3   OH261204   3.841   2.214   1.495 -0.1250 -0.2111  0.6455
13238TIP3    H161205   3.928   2.230   1.459 -0.3470 -1.2052 -0.4201
13238TIP3    H261206   3.820   2.124   1.467 -2.2979  0.6799 -0.9034
13239TIP3   OH261207   2.371   0.875  13.802 -0.0447  0.0519 -0.5867
13239TIP3    H161208   2.425   0.889  13.724 -1.2301 -0.9871 -1.6346
13239TIP3    H261209   2.330   0.790  13.788 -1.6844  0.6479  0.3211
13240TIP3   OH261210   1.220   6.026  14.811  0.4684  0.0065  0.4246
13240TIP3    H161211   1.205   5.931  14.810  1.8822 -0.2294 -0.3737
13240TIP3    H261212   1.271   6.043  14.733  0.9330  1.3222  0.9855
13241TIP3   OH261213   1.952   0.493  11.824 -0.1443  0.0704 -0.1951
13241TIP3    H161214   1.875   0.477  11.770  1.2467 -0.3488 -2.1368
13241TIP3    H261215   1.962   0.413  11.876 -0.5758 -0.1680 -0.4793
13242TIP3   OH261216   2.991   0.727   1.523  0.6287 -0.2584  0.7202
13242TIP3    H161217   2.933   0.716   1.597  0.2106 -2.4537  0.1373
13242TIP3    H261218   2.939   0.775   1.458  0.6047  0.6294  1.3752
13243TIP3   OH261219   4.775   1.554  12.115 -0.8992  0.1557  0.3257
13243TIP3    H161220   4.714   1.504  12.060 -1.5072  1.7377 -0.5113
13243TIP3    H261221   4.719   1.597  12.180 -0.6114  0.9983  0.0396
13244TIP3   OH261222   6.340   1.785  13.475 -0.4632 -0.0827  0.4861
13244TIP3    H161223   6.423   1.747  13.506 -0.6567 -1.1730 -0.2409
13244TIP3    H261224   6.366   1.848  13.408 -0.1193  1.2819  1.8630
13245TIP3   OH261225   4.343   4.874   5.960 -0.0937 -0.4756 -0.1047
13245TIP3    H161226   4.283   4.945   5.983  0.5117  0.5179 -1.4204
13245TIP3    H261227   4.302   4.831   5.885  0.8068  0.2429 -1.0476
13246TIP3   OH261228   4.587   6.495   3.976 -0.1239  0.3177 -0.2054
13246TIP3    H161229   4.531   6.493   3.899 -0.7635  1.7060  0.1908
13246TIP3    H261230   4.553   6.568   4.029  1.9584  1.1323  0.1190
13247TIP3   OH261231   1.452   4.950   2.126  0.0829  0.4513  0.5189
13247TIP3    H161232   1.395   4.922   2.197 -0.7154 -2.3639 -1.0779
13247TIP3    H261233   1.498   4.870   2.099 -2.1081  0.4157 -4.2475
13248TIP3   OH261234   4.344   6.587   1.875 -0.0035  0.2041 -0.0492
13248TIP3    H161235   4.372   6.626   1.792 -1.9825  0.3534 -0.6897
13248TIP3    H261236   4.388   6.639   1.942  2.9626 -0.9341 -0.9389
13249TIP3   OH261237   5.205   4.861  12.583 -0.0910  0.3628 -0.4119
13249TIP3    H161238   5.244   4.917  12.515 -0.9729  1.6781  0.1196
13249TIP3    H261239   5.164   4.790  12.534  2.8515 -1.0877 -0.9992
13250TIP3   OH261240   4.136   6.226  12.317  0.1706 -0.5221  0.2607
13250TIP3    H161241   4.101   6.314  12.328 -1.6224 -1.1705  0.1440
13250TIP3    H261242   4.070   6.180  12.265  2.0396 -1.3881 -1.4902
13251TIP3   OH261243   6.133   3.700  16.985  0.7490  0.0225  0.4554
13251TIP3    H161244   6.053   3.729  16.940  0.5012  0.0384  0.8980
13251TIP3    H261245   6.204   3.738  16.934  0.4359  1.1223  0.8173
13252TIP3   OH261246   1.959   5.013   4.236 -0.0876  0.7863 -0.0244
13252TIP3    H161247   1.977   4.939   4.177  0.7383  0.6369  0.3971
13252TIP3    H261248   2.039   5.021   4.289  0.0414  2.3061 -0.4039
13253TIP3   OH261249   2.986   5.735   3.703  0.3304 -0.2964  0.2730
13253TIP3    H161250   2.956   5.732   3.612 -0.3435 -4.5031  0.4189
13253TIP3    H261251   2.905   5.738   3.754  0.6318  0.0271  0.7386
13254TIP3   OH261252   1.514   2.361   1.831 -0.7179 -0.4865  0.8059
13254TIP3    H161253   1.519   2.408   1.915 -2.6282 -0.5415  0.9900
13254TIP3    H261254   1.541   2.272   1.852 -0.3870 -0.3012  1.1835
13255TIP3   OH261255   3.391   1.024  15.051 -0.2045 -0.1226  0.2325
13255TIP3    H161256   3.443   1.073  14.988  2.7431 -1.6063  1.3538
13255TIP3    H261257   3.345   0.958  14.998  1.7468 -0.9514 -0.5275
13256TIP3   OH261258   6.619   0.697  13.380  0.2706  0.3804  0.2792
13256TIP3    H161259   6.688   0.762  13.392 -0.0271  0.4517  1.8250
13256TIP3    H261260   6.662   0.613  13.396  0.4352  0.2496 -0.7628
13257TIP3   OH261261   6.434   1.433  15.641 -0.6884 -0.0547 -0.0480
13257TIP3    H161262   6.404   1.345  15.661 -0.9260 -0.2030 -0.9924
13257TIP3    H261263   6.397   1.452  15.555  3.4901 -1.0519 -2.3361
13258TIP3   OH261264   1.198   5.308  15.011  0.3090 -0.2571 -0.0509
13258TIP3    H161265   1.230   5.243  14.948  2.6333  1.0748 -0.3793
13258TIP3    H261266   1.277   5.356  15.037 -1.2156  2.0499  0.5923
13259TIP3   OH261267   3.880   0.160  12.701 -0.6680 -0.0787 -0.0434
13259TIP3    H161268   3.938   0.090  12.669  2.2597  1.5517  1.2933
13259TIP3    H261269   3.850   0.129  12.786 -0.5459 -0.3170 -0.0840
13260TIP3   OH261270   0.298   0.316  14.174 -0.1054 -0.2648  0.1535
13260TIP3    H161271   0.264   0.243  14.123  2.5745 -0.0962 -2.1410
13260TIP3    H261272   0.226   0.379  14.177 -1.2553 -1.4627 -1.0864
13261TIP3   OH261273   0.524   5.726  14.770 -0.3859 -0.3311  0.6568
13261TIP3    H161274   0.447   5.680  14.802  0.3050 -2.2202 -0.2148
13261TIP3    H261275   0.589   5.657  14.757  0.0797  0.5588 -2.6290
13262TIP3   OH261276   2.812   3.483  15.648 -0.2337 -0.5262 -0.5883
13262TIP3    H161277   2.869   3.414  15.613  0.0455 -0.3581 -0.4631
13262TIP3    H261278   2.725   3.443  15.649 -0.2495 -0.5317 -1.4711
13263TIP3   OH261279   2.363   2.263  12.501  0.0746  0.4464 -0.5420
13263TIP3    H161280   2.396   2.344  12.540  1.1853 -0.9189  1.5487
13263TIP3    H261281   2.434   2.235  12.443 -0.2062  0.8375 -1.0782
13264TIP3   OH261282   2.215   3.654   3.464  0.0908 -0.5156  0.3555
13264TIP3    H161283   2.212   3.562   3.440  1.0824 -0.5800  0.4464
13264TIP3    H261284   2.192   3.655   3.557 -0.4737 -0.6036  0.2222
13265TIP3   OH261285   5.957   5.703   0.873  0.2183 -0.1757  0.4357
13265TIP3    H161286   5.938   5.692   0.780 -0.7419  0.8371  0.4925
13265TIP3    H261287   6.016   5.778   0.878 -0.2074  0.1504  0.6777
13266TIP3   OH261288   3.191   4.910  14.679  0.2270  0.6953  1.1598
13266TIP3    H161289   3.131   4.984  14.684  0.4400  0.8072  2.2043
13266TIP3    H261290   3.180   4.876  14.590 -0.3446  1.5775  0.8871
13267TIP3   OH261291   0.458   0.775   5.663  0.0713  0.7023  0.1807
13267TIP3    H161292   0.488   0.710   5.599 -1.0630 -0.9639  1.2882
13267TIP3    H261293   0.363   0.777   5.654  0.0873  2.4530 -0.0166
13268TIP3   OH261294   1.844   0.028   2.704  0.0939  0.5592  0.4287
13268TIP3    H161295   1.763   0.004   2.748 -0.5083  1.3527 -0.2419
13268TIP3    H261296   1.910  -0.029   2.744 -1.0703 -1.3813 -0.2357
13269TIP3   OH261297   4.367   0.542   5.418  0.1218 -0.4216 -0.1261
13269TIP3    H161298   4.302   0.477   5.392 -0.5826 -0.0727  0.7022
13269TIP3    H261299   4.336   0.574   5.503  1.1096  0.1159  0.0439
13270TIP3   OH261300   1.932   3.005  13.189  0.1383  0.2132  0.0337
13270TIP3    H161301   1.980   3.086  13.205  0.7246  0.1441 -1.2742
13270TIP3    H261302   1.848   3.018  13.234  0.2688  1.5009 -0.0536
13271TIP3   OH261303   5.917   0.352  15.977 -0.2224  0.4942 -0.7544
13271TIP3    H161304   5.946   0.285  15.916 -0.2235  0.8404 -1.1365
13271TIP3    H261305   5.947   0.435  15.939  0.9081  0.6175  0.3626
13272TIP3   OH261306   3.631   1.301  15.945  0.2018 -0.1750 -0.3016
13272TIP3    H161307   3.603   1.276  15.857  0.8965 -1.1709 -0.2592
13272TIP3    H261308   3.658   1.218  15.986  3.0337  0.6567 -0.2840
13273TIP3   OH261309   6.127   0.247  17.006 -0.1433 -0.7502  0.2562
13273TIP3    H161310   6.166   0.268  16.921 -1.5300  0.3815 -0.1425
13273TIP3    H261311   6.046   0.200  16.984 -0.1754 -1.0407  0.9742
13274TIP3   OH261312   3.467   5.347   3.723 -0.0021  0.2182 -0.1882
13274TIP3    H161313   3.399   5.329   3.789 -0.0320  1.1019  0.0365
13274TIP3    H261314   3.549   5.324   3.767 -0.0023  1.0390  0.2539
13275TIP3   OH261315   0.649   1.712   1.815  0.3062 -0.1221 -0.4516
13275TIP3    H161316   0.616   1.723   1.726  0.1626 -0.0609 -0.3912
13275TIP3    H261317   0.582   1.753   1.871  0.4891  0.0132 -0.3310
13276TIP3   OH261318   3.201   6.122  15.500  0.5926 -0.0087 -0.5213
13276TIP3    H161319   3.197   6.047  15.558 -0.1519 -0.2781 -0.9024
13276TIP3    H261320   3.134   6.182  15.534 -0.3098 -0.4439 -1.4467
13277TIP3   OH261321   6.744   3.115  12.955 -0.3399  0.3455  0.1847
13277TIP3    H161322   6.765   3.068  13.036 -1.9322  0.8438  0.9326
13277TIP3    H261323   6.737   3.047  12.888  0.2330 -0.1522  0.6159
13278TIP3   OH261324   1.778   0.260   5.850 -0.6684 -0.0503 -0.1035
13278TIP3    H161325   1.841   0.323   5.883 -0.1918  0.4656 -1.8908
13278TIP3    H261326   1.826   0.177   5.847  0.4233  0.5849 -2.6581
13279TIP3   OH261327   6.023   1.894  12.886  0.4144 -0.1597 -0.0931
13279TIP3    H161328   5.939   1.854  12.864 -0.0025  0.3807  0.4906
13279TIP3    H261329   6.044   1.947  12.809 -0.3917  0.6783  0.2484
13280TIP3   OH261330   2.812   0.070   0.073 -0.4502 -0.2653  0.6224
13280TIP3    H161331   2.877   0.123   0.028  0.2164 -0.2190  1.6139
13280TIP3    H261332   2.747   0.133   0.105  0.2553 -0.0255  1.6543
13281TIP3   OH261333   6.633   5.122   2.252  0.5795  0.4598  0.7125
13281TIP3    H161334   6.711   5.136   2.305  1.3179 -0.1158 -0.1935
13281TIP3    H261335   6.662   5.065   2.181 -0.0654  2.1404 -0.9939
13282TIP3   OH261336   3.304   1.414   0.062  0.0193  0.3367  0.0594
13282TIP3    H161337   3.259   1.337   0.029 -0.4425  0.7103 -0.1955
13282TIP3    H261338   3.397   1.390   0.061 -0.1284 -0.2387  0.0617
13283TIP3   OH261339   4.900   4.885  11.488 -0.2741  0.1353 -0.0419
13283TIP3    H161340   4.843   4.813  11.459  0.1594 -0.0967 -0.3254
13283TIP3    H261341   4.856   4.919  11.566 -0.2918 -0.6804  0.3178
13284TIP3   OH261342   4.537   4.434  14.457  0.4662 -0.2704 -0.3464
13284TIP3    H161343   4.448   4.438  14.423  0.3252 -0.0788  0.0384
13284TIP3    H261344   4.572   4.352  14.422  0.7881  0.5583 -2.0225
13285TIP3   OH261345   5.367   5.493  16.959  0.7594 -0.0484 -0.2448
13285TIP3    H161346   5.288   5.507  17.011  0.7347 -3.6825  1.0525
13285TIP3    H261347   5.362   5.401  16.932  3.6855  0.0759 -1.6579
13286TIP3   OH261348   3.507   4.728   2.832  0.2199  0.5900 -0.0281
13286TIP3    H161349   3.539   4.745   2.921 -2.7195  0.6189  1.1545
13286TIP3    H261350   3.573   4.670   2.794  1.4465  0.3345  2.2815
13287TIP3   OH261351   5.093   0.947  16.039 -0.1012  0.2992 -0.5128
13287TIP3    H161352   5.084   0.966  15.945  0.2927  0.5775 -0.4966
13287TIP3    H261353   5.150   0.870  16.042 -1.2356 -0.5753 -0.5505
13288TIP3   OH261354   5.414   5.688  13.773  0.3853  0.0852 -0.0379
13288TIP3    H161355   5.445   5.767  13.818  0.2661 -0.1649  0.4859
13288TIP3    H261356   5.472   5.619  13.804 -1.0681 -0.5217  1.4730
13289TIP3   OH261357   5.253   2.788   3.062  0.3132  0.1381 -0.2990
13289TIP3    H161358   5.178   2.804   3.119  0.4275 -3.4706  1.0958
13289TIP3    H261359   5.324   2.838   3.101 -0.7138  1.5685 -0.1702
13290TIP3   OH261360   5.748   5.940   4.260 -0.3382  0.2289 -0.2781
13290TIP3    H161361   5.712   6.026   4.242 -1.7244 -0.5443 -1.3754
13290TIP3    H261362   5.775   5.906   4.175  1.5830  0.1171  0.3095
13291TIP3   OH261363   5.775   3.089   1.911  0.1022 -0.0195  0.1507
13291TIP3    H161364   5.748   3.001   1.935  0.0230  0.1091  0.5426
13291TIP3    H261365   5.740   3.102   1.823 -0.8851  0.0527  0.5461
13292TIP3   OH261366   2.425   2.128  11.246 -0.0504  0.1112  0.6281
13292TIP3    H161367   2.353   2.078  11.285 -1.1324  0.9061 -0.2993
13292TIP3    H261368   2.387   2.169  11.168  1.1761  1.2440  0.5867
13293TIP3   OH261369   6.352   3.015   3.173  0.6512 -0.4955 -0.0412
13293TIP3    H161370   6.398   2.935   3.149 -1.5043 -1.7440 -0.3036
13293TIP3    H261371   6.320   2.998   3.262  1.7689  0.8788  0.6656
13294TIP3   OH261372   5.540   6.223   3.217 -0.2045  0.5723  0.1908
13294TIP3    H161373   5.562   6.267   3.136 -0.4841  1.0642  0.3801
13294TIP3    H261374   5.585   6.138   3.211 -0.3017  0.5654 -0.5107
13295TIP3   OH261375   5.371   5.937  12.989 -0.1334 -0.7793 -0.7184
13295TIP3    H161376   5.407   5.857  12.952  0.4573 -0.4313 -0.9020
13295TIP3    H261377   5.447   5.985  13.021 -0.1240  1.0740 -3.2523
13296TIP3   OH261378   3.560   2.927   3.865 -0.0408  0.3358 -0.0669
13296TIP3    H161379   3.520   2.902   3.948 -2.2404  2.5666 -0.3266
13296TIP3    H261380   3.532   2.858   3.803 -0.3016 -0.1384  0.5676
13297TIP3   OH261381   2.408   2.882  13.588 -0.0764  0.2535 -0.3390
13297TIP3    H161382   2.418   2.802  13.537 -1.9294  0.3461 -0.9432
13297TIP3    H261383   2.496   2.920  13.591  0.8583 -1.8549  0.1052
13298TIP3   OH261384   3.910   6.551   4.424 -0.1879 -0.1016  0.2689
13298TIP3    H161385   3.940   6.482   4.365  0.8405  0.7050 -0.1895
13298TIP3    H261386   3.991   6.588   4.460 -0.7213  0.8357  0.5212
13299TIP3   OH261387   1.855   1.809   4.068  0.4820 -0.3897  0.3255
13299TIP3    H161388   1.860   1.716   4.092 -2.0774 -0.9862 -1.0785
13299TIP3    H261389   1.818   1.809   3.980  1.9108  1.9622 -0.3659
13300TIP3   OH261390   1.523   2.429  14.887 -0.1252 -0.3211  0.2373
13300TIP3    H161391   1.503   2.512  14.930  0.2480 -0.4152  0.5986
13300TIP3    H261392   1.564   2.375  14.955  0.6355 -0.4077 -0.2773
13301TIP3   OH261393   0.085   5.583   4.211  0.2180 -0.2299 -0.0816
13301TIP3    H161394   0.173   5.547   4.217  0.7079  0.9505  0.1088
13301TIP3    H261395   0.028   5.512   4.241  1.3288 -0.1423  2.5340
13302TIP3   OH261396   0.604   5.499   5.555  0.5686 -0.3555 -0.1116
13302TIP3    H161397   0.534   5.437   5.575  0.7718 -0.5755 -0.0788
13302TIP3    H261398   0.668   5.485   5.625  0.5023  0.0603  0.0332
13303TIP3   OH261399   1.361   6.365  11.392 -0.1182  1.2227  0.0984
13303TIP3    H161400   1.441   6.408  11.362 -0.6230  1.9371 -0.2580
13303TIP3    H261401   1.321   6.330  11.313 -0.1168  0.7901  0.2882
13304TIP3   OH261402   0.575   0.652   2.462  0.1594 -0.9065  0.2439
13304TIP3    H161403   0.503   0.704   2.427  0.4625 -0.4549  0.2870
13304TIP3    H261404   0.607   0.702   2.536 -1.7737 -2.8080  2.5124
13305TIP3   OH261405   1.399   0.660  14.936 -0.3776  0.1963 -0.5372
13305TIP3    H161406   1.327   0.683  14.878 -0.0073 -1.0831 -1.5500
13305TIP3    H261407   1.411   0.565  14.924  0.5385  0.1317  0.6755
13306TIP3   OH261408   5.354   3.038  14.779  0.4849  0.7162 -0.0760
13306TIP3    H161409   5.261   3.026  14.759  0.6557  1.2518 -1.2859
13306TIP3    H261410   5.356   3.095  14.855 -0.1747  0.6175  0.0167
13307TIP3   OH261411   4.668   5.250  12.294 -0.2562 -0.1089  0.9704
13307TIP3    H161412   4.761   5.229  12.283 -0.0796  1.4672 -1.0360
13307TIP3    H261413   4.667   5.323  12.355 -0.2339 -0.4781  1.4177
13308TIP3   OH261414   5.767   1.455   2.710 -0.0464 -0.6473  0.6483
13308TIP3    H161415   5.861   1.449   2.695 -0.2142 -0.5882 -0.4871
13308TIP3    H261416   5.733   1.504   2.636 -0.9404 -0.3980  1.2014
13309TIP3   OH261417   2.169   3.535   5.257 -0.5382  0.4679  0.3639
13309TIP3    H161418   2.121   3.596   5.314 -1.6707 -1.0140  1.0746
13309TIP3    H261419   2.119   3.534   5.176 -0.0900  1.0398  0.0769
13310TIP3   OH261420   4.584   3.877   3.683 -0.1866 -0.5808  0.7788
13310TIP3    H161421   4.572   3.909   3.772  0.6829  0.7594  0.4489
13310TIP3    H261422   4.656   3.815   3.689  1.1988  0.9496  0.7493
13311TIP3   OH261423   2.837   3.895  11.526 -0.0554  0.0200 -0.3947
13311TIP3    H161424   2.883   3.893  11.611 -0.2631  0.1112 -0.2796
13311TIP3    H261425   2.903   3.927  11.465 -0.5833  2.4090  0.1741
13312TIP3   OH261426   2.753   0.366  14.148 -0.4861  0.4628  0.4035
13312TIP3    H161427   2.720   0.400  14.065  0.1267 -0.6411 -0.3157
13312TIP3    H261428   2.838   0.408  14.160 -0.5135  0.5174  0.4070
13313TIP3   OH261429   6.040   1.104   1.066  0.3854 -0.3458  0.2046
13313TIP3    H161430   6.050   1.010   1.082 -1.8414 -0.6919 -0.0581
13313TIP3    H261431   6.011   1.110   0.975  1.2608  0.6727 -0.0228
13314TIP3   OH261432   2.941   6.423  11.398  0.3220  0.6679  0.4155
13314TIP3    H161433   3.032   6.445  11.376  0.5444  0.4439  1.0659
13314TIP3    H261434   2.946   6.391  11.489 -0.2864 -0.1162  0.1850
13315TIP3   OH261435   4.327   3.449  10.878 -0.1020  0.9189  0.2133
13315TIP3    H161436   4.361   3.485  10.796 -1.1270 -0.3230 -0.8076
13315TIP3    H261437   4.381   3.373  10.895 -0.8204  0.3151 -0.1368
13316TIP3   OH261438   0.299   4.386   1.615  0.0583 -0.1395  0.6761
13316TIP3    H161439   0.379   4.430   1.585  0.2938 -1.3390 -0.5491
13316TIP3    H261440   0.322   4.293   1.616 -0.8775 -0.3716  1.7845
13317TIP3   OH261441   4.326   2.263  16.000 -0.0578  0.7608 -0.5896
13317TIP3    H161442   4.347   2.270  15.906  1.0624 -0.0845 -0.4204
13317TIP3    H261443   4.264   2.334  16.015 -2.6188 -0.8902 -2.6075
13318TIP3   OH261444   4.832   5.248  15.266  0.2219 -0.1851 -0.5625
13318TIP3    H161445   4.907   5.307  15.268 -0.8148  1.1907 -0.2961
13318TIP3    H261446   4.793   5.263  15.179  0.5928 -1.3380 -0.9352
13319TIP3   OH261447   5.458   5.150  12.587  0.6395 -0.2011  0.0495
13319TIP3    H161448   5.446   5.240  12.559  0.6008 -0.4450 -0.7312
13319TIP3    H261449   5.421   5.097  12.517 -0.1072 -0.8177  0.8793
13320TIP3   OH261450   1.921   4.024   6.309  0.2385 -0.6135 -0.2222
13320TIP3    H161451   1.853   3.963   6.335 -0.6387 -0.2844 -1.6635
13320TIP3    H261452   1.992   3.968   6.276 -0.1168 -0.8833 -0.5294
13321TIP3   OH261453   2.684   1.906  13.675  0.0454  0.3221  0.1237
13321TIP3    H161454   2.686   1.810  13.673 -1.0090  0.2733  0.5821
13321TIP3    H261455   2.675   1.932  13.584  0.7413  0.0067 -0.0421
13322TIP3   OH261456   4.463   3.208   3.581 -0.2629  0.0126 -0.2389
13322TIP3    H161457   4.528   3.277   3.573 -0.5514  0.4875  1.2520
13322TIP3    H261458   4.512   3.132   3.611  0.1302 -0.6012 -2.3055
13323TIP3   OH261459   2.634   4.821  14.158  0.1400  0.3658 -0.3863
13323TIP3    H161460   2.565   4.867  14.205  1.9802  1.8674  0.9857
13323TIP3    H261461   2.632   4.732  14.195 -2.3952 -0.3047 -1.9192
13324TIP3   OH261462   1.597   1.259   0.871  0.1969  0.2810  0.4113
13324TIP3    H161463   1.565   1.304   0.794  1.3740 -0.7387 -0.7175
13324TIP3    H261464   1.645   1.326   0.920 -1.7965  1.2979  1.0698
13325TIP3   OH261465   6.108   0.385   3.898  0.0851  0.0676 -0.0462
13325TIP3    H161466   6.143   0.448   3.961  1.5980 -1.2886  0.5460
13325TIP3    H261467   6.178   0.321   3.886 -0.8410 -0.7064 -1.7604
13326TIP3   OH261468   5.351   3.896  13.487  0.5903 -0.4619  0.3411
13326TIP3    H161469   5.403   3.832  13.438  0.4533 -0.1520 -0.2077
13326TIP3    H261470   5.378   3.981  13.452 -0.1246 -0.2857  0.2090
13327TIP3   OH261471   3.169   2.376  14.540  0.2775  0.3228  0.6717
13327TIP3    H161472   3.230   2.429  14.590 -1.8407  1.3551  2.3582
13327TIP3    H261473   3.096   2.360  14.601 -1.1477 -0.7868 -1.2117
13328TIP3   OH261474   1.890   5.099   5.856  0.4330 -0.1622  0.3777
13328TIP3    H161475   1.957   5.133   5.916 -0.7529  2.3459  0.3841
13328TIP3    H261476   1.825   5.058   5.913 -0.0140  1.0172  0.7479
13329TIP3   OH261477   0.251   4.580   5.793 -0.0580  0.2664 -0.0447
13329TIP3    H161478   0.207   4.624   5.720 -2.5094  1.2877  1.8720
13329TIP3    H261479   0.293   4.651   5.841 -0.3195 -0.0709  0.6972
13330TIP3   OH261480   4.555   6.454   3.375 -0.4458  0.0983 -0.2079
13330TIP3    H161481   4.514   6.475   3.292  1.7763 -0.9029 -1.6524
13330TIP3    H261482   4.575   6.360   3.370 -0.3313  0.0033  1.4740
13331TIP3   OH261483   2.340   6.080   3.645 -0.0180 -0.1972  0.0207
13331TIP3    H161484   2.315   6.160   3.599 -1.6443 -1.2168 -0.9579
13331TIP3    H261485   2.257   6.036   3.664  0.8617 -1.8894  0.1175
13332TIP3   OH261486   2.303   0.989   2.378  0.6031  0.3206  1.1097
13332TIP3    H161487   2.344   0.909   2.411  0.6364 -0.0286  0.2346
13332TIP3    H261488   2.376   1.045   2.352  0.5584 -0.4949 -0.9065
13333TIP3   OH261489   5.275   3.997  12.434 -0.1256  0.3502  0.9750
13333TIP3    H161490   5.329   3.919  12.416 -0.7895  0.4409 -1.8960
13333TIP3    H261491   5.338   4.063  12.463  0.8374 -0.4957  0.8899
13334TIP3   OH261492   2.584   0.044   2.676 -0.0216 -0.3918 -0.0921
13334TIP3    H161493   2.544  -0.040   2.699 -1.8089  0.7078  1.0091
13334TIP3    H261494   2.635   0.068   2.754 -0.5317  0.1268  0.0841
13335TIP3   OH261495   0.609   0.043  12.283 -0.5501 -0.3080 -0.2651
13335TIP3    H161496   0.701   0.039  12.255 -0.0437 -1.5800  1.4535
13335TIP3    H261497   0.613   0.074  12.373 -1.7341 -1.4275  0.1836
13336TIP3   OH261498   4.338   6.226   4.866  0.1338 -0.2323  0.0767
13336TIP3    H161499   4.250   6.216   4.901  0.0793  0.5581  0.1976
13336TIP3    H261500   4.345   6.158   4.799 -0.5367 -0.3537  0.1206
13337TIP3   OH261501   0.442   6.115  13.609 -0.0513 -0.2983 -0.5119
13337TIP3    H161502   0.405   6.147  13.527 -0.5354 -0.8581 -0.5161
13337TIP3    H261503   0.523   6.071  13.583  0.9961  1.4569 -0.4388
13338TIP3   OH261504   4.796   0.884   2.965  0.0131  0.0981 -0.4926
13338TIP3    H161505   4.803   0.979   2.974 -1.7864  0.3236 -1.0499
13338TIP3    H261506   4.769   0.870   2.874 -0.9594 -0.8448 -0.0871
13339TIP3   OH261507   2.071   6.558  16.853  0.1973 -0.3235 -0.2002
13339TIP3    H161508   2.019   6.613  16.794 -0.1488 -0.3619  0.0711
13339TIP3    H261509   2.066   6.471  16.813 -0.4777 -0.4599  0.1685
13340TIP3   OH261510   4.679   2.852  16.603  0.0881 -0.1194  0.0466
13340TIP3    H161511   4.684   2.934  16.554  0.0670 -1.3901 -2.2217
13340TIP3    H261512   4.740   2.864  16.676  0.4070  1.7270 -0.4637
13341TIP3   OH261513   4.937   2.304   6.158 -0.2238 -0.3663 -0.6540
13341TIP3    H161514   4.985   2.222   6.146 -0.5272 -0.5041 -0.9790
13341TIP3    H261515   4.975   2.344   6.235 -2.1809 -2.3316  1.4797
13342TIP3   OH261516   3.776   0.408   5.844 -0.2460 -0.4938  0.1810
13342TIP3    H161517   3.688   0.422   5.878 -0.1213 -2.3403  1.4152
13342TIP3    H261518   3.828   0.381   5.920  1.5893  1.2055 -0.3888
13343TIP3   OH261519   2.695   3.586   4.866  0.8791 -0.0017  0.4517
13343TIP3    H161520   2.769   3.641   4.839  1.9333 -0.4797  2.1836
13343TIP3    H261521   2.667   3.542   4.786  2.9877 -0.3981 -0.1216
13344TIP3   OH261522   5.039   6.596  16.142  0.1589 -0.0272 -0.4533
13344TIP3    H161523   5.083   6.662  16.196 -1.6120 -0.7362  2.0439
13344TIP3    H261524   4.997   6.538  16.205 -0.8398 -1.8056 -2.6292
13345TIP3   OH261525   3.173   0.593   0.048 -0.0277  0.1427  0.8219
13345TIP3    H161526   3.166   0.575  -0.046  1.2717  1.8774  0.3304
13345TIP3    H261527   3.193   0.508   0.087  1.3376 -0.3240 -0.7502
13346TIP3   OH261528   2.901   0.570   5.377 -0.3411 -0.1549  0.2702
13346TIP3    H161529   2.925   0.650   5.424  1.1707  0.8850 -2.0727
13346TIP3    H261530   2.806   0.578   5.365 -0.2653  1.1285  0.3722
13347TIP3   OH261531   3.213   4.446  11.559 -0.0680  0.4580 -0.4049
13347TIP3    H161532   3.284   4.383  11.568  0.3487  1.1135  1.2545
13347TIP3    H261533   3.135   4.392  11.544  0.1127 -0.5759  1.9226
13348TIP3   OH261534   0.912   0.538  16.338  0.3358 -0.2523 -0.1760
13348TIP3    H161535   0.935   0.566  16.249 -0.5287  1.9202  0.2306
13348TIP3    H261536   0.957   0.600  16.395  0.3716 -1.2387  0.9018
13349TIP3   OH261537   1.619   6.819   2.867  0.5115 -0.1244 -0.2998
13349TIP3    H161538   1.566   6.741   2.857  0.1674  0.1268 -0.4528
13349TIP3    H261539   1.650   6.815   2.958  2.2651 -1.5335 -0.9200
13350TIP3   OH261540   2.825   5.724   1.325  0.1580 -0.1240 -0.2144
13350TIP3    H161541   2.842   5.796   1.264 -0.7668  0.7361  0.5058
13350TIP3    H261542   2.738   5.743   1.360  0.1358 -1.3025  0.4100
13351TIP3   OH261543   0.042   1.724  10.488 -0.2488  0.1388  0.1543
13351TIP3    H161544   0.063   1.703  10.397  0.5416  2.8496 -0.3936
13351TIP3    H261545  -0.047   1.759  10.485 -0.1662  0.3744  0.3807
13352TIP3   OH261546   5.884   1.007   6.212 -0.4088 -0.3878 -0.2945
13352TIP3    H161547   5.945   1.026   6.141 -1.4615  0.2880 -1.0469
13352TIP3    H261548   5.935   1.019   6.292  0.9783 -1.7981 -0.9171
13353TIP3   OH261549   2.242   2.560  14.568 -0.1213  0.2924  0.1848
13353TIP3    H161550   2.190   2.542  14.646  0.0653 -0.6840  0.0948
13353TIP3    H261551   2.190   2.524  14.496  0.4892 -0.3419  0.0537
13354TIP3   OH261552   0.266   6.188  12.657 -0.2582  0.0875  0.4563
13354TIP3    H161553   0.346   6.208  12.608  0.7235 -0.6710  1.6681
13354TIP3    H261554   0.272   6.244  12.735 -1.8713  1.4064 -0.3057
13355TIP3   OH261555   5.083   2.548  15.079 -0.2366  0.4403 -0.2379
13355TIP3    H161556   5.035   2.485  15.133  3.1737 -0.9338  1.5889
13355TIP3    H261557   5.066   2.633  15.120 -1.6886  0.1404 -0.1846
13356TIP3   OH261558   2.367   1.716  14.410 -0.4916 -0.6592  0.0983
13356TIP3    H161559   2.273   1.727  14.398 -0.8230  1.0111  3.1969
13356TIP3    H261560   2.376   1.634  14.460 -0.4973  0.0609  1.3120
13357TIP3   OH261561   5.128   3.523   2.931  0.1605 -0.7819  0.0251
13357TIP3    H161562   5.085   3.608   2.925  1.2077  0.1045  3.0659
13357TIP3    H261563   5.067   3.469   2.982  0.5833 -1.0202  0.2884
13358TIP3   OH261564   3.799   4.605  14.729 -0.6179 -0.0061  0.0613
13358TIP3    H161565   3.805   4.680  14.788  2.4321 -0.9597  1.1712
13358TIP3    H261566   3.812   4.642  14.642 -3.4069  1.1854  0.0414
13359TIP3   OH261567   0.175   2.679  11.196 -0.0401 -0.3385  0.0954
13359TIP3    H161568   0.219   2.625  11.131 -1.8323 -0.6197 -0.9337
13359TIP3    H261569   0.102   2.625  11.227 -1.3760  1.1595 -0.3469
13360TIP3   OH261570   6.606   2.313  13.214 -0.2321  0.4264 -0.4319
13360TIP3    H161571   6.656   2.394  13.208 -1.0012  0.8008 -4.2642
13360TIP3    H261572   6.672   2.245  13.231  0.9910  1.3946 -1.1803
13361TIP3   OH261573   3.172   0.423  13.409 -0.0379 -0.2018  0.2648
13361TIP3    H161574   3.159   0.441  13.502  1.4612 -1.1096  0.6787
13361TIP3    H261575   3.266   0.407  13.400 -0.2091 -0.4932 -1.3453
13362TIP3   OH261576   6.313   2.466  15.796  0.5333  0.7405  0.1782
13362TIP3    H161577   6.323   2.531  15.866  1.1662  0.1266  0.6661
13362TIP3    H261578   6.375   2.495  15.729  1.3822  0.2233  0.7231
13363TIP3   OH261579   0.365   2.438  17.083  0.3187  0.5256  0.1935
13363TIP3    H161580   0.450   2.474  17.057  0.5190  0.2397  0.4347
13363TIP3    H261581   0.321   2.417  17.001  0.2762  1.1449  0.0556
13364TIP3   OH261582   6.056   1.500   4.636 -0.6541  0.0333 -0.8698
13364TIP3    H161583   6.082   1.421   4.590 -1.3429  0.3138 -1.7814
13364TIP3    H261584   6.026   1.470   4.721 -0.7123 -0.6728 -1.1352
13365TIP3   OH261585   3.024   2.018   0.185  0.5032  0.1721 -1.0257
13365TIP3    H161586   3.091   2.057   0.240  0.8935  0.0097 -1.3802
13365TIP3    H261587   2.990   1.944   0.235  1.9760 -0.9617 -1.6529
13366TIP3   OH261588   6.170   3.401  11.155  0.1907  0.4960  0.5556
13366TIP3    H161589   6.214   3.317  11.146  0.1874  0.4676  0.8067
13366TIP3    H261590   6.077   3.380  11.151  0.1890  0.6100 -0.4897
13367TIP3   OH261591   1.185   2.613   3.622 -0.5174  0.0031 -0.0993
13367TIP3    H161592   1.139   2.657   3.551  0.2954  0.1587 -0.5409
13367TIP3    H261593   1.225   2.536   3.581  1.0952  0.8189 -0.1363
13368TIP3   OH261594   6.048   0.524  11.336 -0.1449  0.2890 -0.4518
13368TIP3    H161595   6.089   0.538  11.422 -1.9542  0.6489  0.3953
13368TIP3    H261596   6.119   0.540  11.274  0.7847  1.9038  0.9087
13369TIP3   OH261597   4.140   0.965   4.708 -0.1328  0.3165  0.5644
13369TIP3    H161598   4.181   1.050   4.693 -3.0165  1.9993  1.4230
13369TIP3    H261599   4.058   0.985   4.752 -0.2718 -3.0691  2.1886
13370TIP3   OH261600   0.223   3.726  13.214  0.3523 -0.2234 -0.6285
13370TIP3    H161601   0.298   3.778  13.243 -0.5904  1.6004 -1.3077
13370TIP3    H261602   0.259   3.666  13.148  0.9696  1.7655 -2.1894
13371TIP3   OH261603   1.932   1.881  11.362  0.2696  0.0934  0.3704
13371TIP3    H161604   1.862   1.825  11.327  0.1584  1.2621 -1.3833
13371TIP3    H261605   2.012   1.829  11.353  0.0653 -0.0708 -0.5657
13372TIP3   OH261606   0.543   1.717  12.877  0.0359 -1.0300 -0.1909
13372TIP3    H161607   0.551   1.632  12.919 -1.0341 -2.7564 -3.1529
13372TIP3    H261608   0.606   1.715  12.805 -3.5667 -1.6757 -3.6413
13373TIP3   OH261609   0.632   2.176  16.293  0.2741 -0.1507  0.1038
13373TIP3    H161610   0.665   2.225  16.369  1.1411 -0.4613 -0.0666
13373TIP3    H261611   0.537   2.181  16.302  0.3447  1.0763  0.4059
13374TIP3   OH261612   3.396   6.543   4.114  0.4754 -0.3748 -0.3561
13374TIP3    H161613   3.490   6.530   4.122  0.2178 -1.3942  2.0117
13374TIP3    H261614   3.366   6.470   4.060  0.9488 -0.4927 -0.4589
13375TIP3   OH261615   6.774   2.373  16.695 -0.3283  0.5828 -0.0652
13375TIP3    H161616   6.869   2.378  16.684 -0.1008 -1.4282  0.5500
13375TIP3    H261617   6.749   2.291  16.652 -1.6762  0.7096  0.4169
13376TIP3   OH261618   1.553   5.093  15.196  0.2079  0.4948  0.2757
13376TIP3    H161619   1.648   5.088  15.204  0.4557  2.5892 -0.7303
13376TIP3    H261620   1.523   5.002  15.203  2.3441 -0.3116 -0.3900
13377TIP3   OH261621   6.386   0.224  11.388 -0.3308  0.3777  0.2864
13377TIP3    H161622   6.475   0.188  11.395 -1.1198 -1.5500  0.9917
13377TIP3    H261623   6.371   0.267  11.472 -0.0538  0.7981  0.1282
13378TIP3   OH261624   5.434   2.081  10.967 -0.0371 -0.1688  0.0037
13378TIP3    H161625   5.348   2.091  11.007  0.1689  0.7614  0.2356
13378TIP3    H261626   5.495   2.114  11.033  0.2157  2.7830 -1.5625
13379TIP3   OH261627   1.451   5.891   0.545 -0.1103  0.2392 -1.1255
13379TIP3    H161628   1.396   5.957   0.588  0.3596 -0.6375  0.9694
13379TIP3    H261629   1.410   5.876   0.460 -2.8279  0.0247  0.1240
13380TIP3   OH261630   3.826   6.007   5.843 -0.2093  0.1854  0.4716
13380TIP3    H161631   3.886   5.945   5.883 -0.8492 -0.4756  0.4164
13380TIP3    H261632   3.769   6.036   5.914  0.2570  0.9300  0.5577
13381TIP3   OH261633   6.378   6.786   5.020  0.1527  0.0600  0.1899
13381TIP3    H161634   6.400   6.785   4.926  0.0628 -1.7401  0.1511
13381TIP3    H261635   6.463   6.778   5.064  0.1579  0.4244  0.2417
13382TIP3   OH261636   6.575   5.086   4.759 -0.7183 -0.0539 -0.2676
13382TIP3    H161637   6.631   5.051   4.828 -0.0731  0.6915 -0.4061
13382TIP3    H261638   6.540   5.168   4.795 -0.8965  0.0078 -0.5773
13383TIP3   OH261639   3.587   3.306  11.511 -0.8164 -0.2029 -0.4322
13383TIP3    H161640   3.563   3.398  11.502 -3.0725 -0.7659 -0.8261
13383TIP3    H261641   3.610   3.296  11.603  1.2880  1.0981 -0.7572
13384TIP3   OH261642   2.713   3.947  14.764 -0.2543 -0.6032  0.1019
13384TIP3    H161643   2.726   3.856  14.739  1.2147 -1.3348  3.0711
13384TIP3    H261644   2.784   3.994  14.720  0.4524 -1.3070  0.4720
13385TIP3   OH261645   3.151   5.123   4.682  0.7698 -0.2937  0.1839
13385TIP3    H161646   3.238   5.086   4.698  1.4494  0.9902 -0.3507
13385TIP3    H261647   3.098   5.092   4.755  1.3388 -2.1120 -0.1243
13386TIP3   OH261648   4.973   2.546  16.459  0.2240 -0.3273 -0.2486
13386TIP3    H161649   4.972   2.591  16.544 -1.5667  1.2861 -1.0482
13386TIP3    H261650   5.018   2.463  16.476  0.2529  0.1180  2.1820
13387TIP3   OH261651   6.757   2.986   0.300 -0.4643 -0.6576  0.2907
13387TIP3    H161652   6.689   3.052   0.313  0.2281 -0.2218  1.9818
13387TIP3    H261653   6.809   3.020   0.227 -0.6378  0.2239  0.5605
13388TIP3   OH261654   6.716   3.550   2.276 -0.5177 -0.3338  0.0976
13388TIP3    H161655   6.665   3.502   2.211  0.1893 -0.9924  0.0239
13388TIP3    H261656   6.804   3.554   2.239 -0.0265 -1.0072  1.1759
13389TIP3   OH261657   4.167   6.255  10.480  0.8089 -0.0921  0.5295
13389TIP3    H161658   4.160   6.351  10.474  0.8013 -0.1047  0.3531
13389TIP3    H261659   4.077   6.224  10.468  1.0925 -0.2485 -1.6522
13390TIP3   OH261660   1.788   0.384  15.590 -0.3634  0.3555  0.4476
13390TIP3    H161661   1.775   0.467  15.637 -0.4766  0.1176  0.8360
13390TIP3    H261662   1.809   0.411  15.501  1.2761  0.8607  0.9370
13391TIP3   OH261663   0.159   1.012   0.198  0.0407  0.0874  0.4411
13391TIP3    H161664   0.211   0.933   0.187 -0.3486 -0.1165  0.0158
13391TIP3    H261665   0.069   0.980   0.206 -0.1234  0.4878  0.2232
13392TIP3   OH261666   2.284   5.830   2.184  0.3014 -0.7341 -0.1120
13392TIP3    H161667   2.201   5.845   2.229  0.9489  2.6211  0.1929
13392TIP3    H261668   2.264   5.845   2.092  0.8786  2.1740  0.1587
13393TIP3   OH261669   1.493   1.526  10.935 -0.0020 -0.3113  0.5917
13393TIP3    H161670   1.466   1.446  10.979 -0.5613  0.1681  1.1484
13393TIP3    H261671   1.587   1.515  10.919  0.0842 -0.7401  1.3797
13394TIP3   OH261672   6.727   3.461  14.593 -0.4869 -0.2315 -0.1865
13394TIP3    H161673   6.657   3.492  14.650 -0.2966 -0.2228  0.0438
13394TIP3    H261674   6.752   3.376  14.629  1.9693  1.2022  1.8746
13395TIP3   OH261675   4.624   1.163  14.831  0.3500 -0.2512  0.0162
13395TIP3    H161676   4.586   1.154  14.744 -0.3765 -0.6478  0.3670
13395TIP3    H261677   4.553   1.141  14.891  1.0435 -0.6939  0.6968
13396TIP3   OH261678   4.675   0.622  12.233 -0.1272  0.2519  0.2022
13396TIP3    H161679   4.760   0.615  12.188 -0.3562  0.0367 -0.2064
13396TIP3    H261680   4.621   0.555  12.191 -0.7646  0.9633 -0.1287
13397TIP3   OH261681   0.479   5.461   2.897 -0.4460 -0.1924 -0.6444
13397TIP3    H161682   0.533   5.382   2.897  2.0263  1.3765  0.7652
13397TIP3    H261683   0.493   5.500   2.811 -0.8070 -0.7073 -0.9433
13398TIP3   OH261684   1.058   0.935  13.624  0.0253  0.0805  0.5518
13398TIP3    H161685   0.975   0.974  13.652 -0.5901 -0.9366  0.1691
13398TIP3    H261686   1.056   0.939  13.528  0.0284 -0.7465  0.5167
13399TIP3   OH261687   0.318   0.274   0.939  0.1195  0.6895 -0.3839
13399TIP3    H161688   0.392   0.271   0.999  0.2608  0.2176 -0.5794
13399TIP3    H261689   0.261   0.342   0.974 -0.3751 -0.3821  0.9398
13400TIP3   OH261690   0.079   0.710   0.032  0.6819  0.0072 -0.3818
13400TIP3    H161691   0.074   0.615   0.020 -0.0636 -0.0554  0.3389
13400TIP3    H261692   0.159   0.724   0.081  2.1864  0.0035 -2.6645
13401TIP3   OH261693   6.661   5.783   0.955  0.0718 -0.2162 -0.0456
13401TIP3    H161694   6.681   5.847   0.886 -1.3912  0.2141 -0.0943
13401TIP3    H261695   6.721   5.806   1.027  1.1733 -0.2779 -0.9148
13402TIP3   OH261696   4.831   4.564   4.898 -0.1095  0.5431 -0.3714
13402TIP3    H161697   4.742   4.596   4.914 -1.1241 -2.5641  1.0874
13402TIP3    H261698   4.822   4.510   4.820  0.0966 -0.9341  0.5874
13403TIP3   OH261699   5.333   0.707  14.254 -0.0492  0.4508  0.6212
13403TIP3    H161700   5.426   0.702  14.232  0.0412  0.1388  1.0531
13403TIP3    H261701   5.291   0.738  14.174  0.4751  0.9880  0.5430
13404TIP3   OH261702   6.564   0.457  13.593  0.0001  0.5570  0.0743
13404TIP3    H161703   6.643   0.444  13.540  0.3402 -1.2556  0.9320
13404TIP3    H261704   6.594   0.504  13.670 -0.0154  1.0274 -0.2063
13405TIP3   OH261705   0.334   2.576  15.894 -0.6576  0.1937 -0.0490
13405TIP3    H161706   0.412   2.537  15.933 -0.2131  1.9903  1.0008
13405TIP3    H261707   0.281   2.502  15.865  1.4599 -1.0731 -0.8631
13406TIP3   OH261708   3.364   1.180  11.298  0.5953 -0.7768  0.3342
13406TIP3    H161709   3.268   1.179  11.307  0.6365 -2.4952  0.9683
13406TIP3    H261710   3.379   1.205  11.207 -0.4582 -0.6840  0.1729
13407TIP3   OH261711   1.196   6.151  13.897 -0.0114  0.6616 -0.2246
13407TIP3    H161712   1.151   6.194  13.970  0.7596  1.2747 -0.1058
13407TIP3    H261713   1.127   6.100  13.854 -1.0208  2.2180 -0.5311
13408TIP3   OH261714   1.931   2.190   0.621  0.1404 -0.2162 -0.3487
13408TIP3    H161715   2.007   2.150   0.578  0.8267 -0.2786  0.8706
13408TIP3    H261716   1.969   2.256   0.679 -0.5560 -1.7468  1.9397
13409TIP3   OH261717   0.540   4.789  16.438 -0.8085 -0.0069  0.6927
13409TIP3    H161718   0.453   4.750  16.432 -0.2436 -1.1764 -0.3914
13409TIP3    H261719   0.577   4.779  16.350  0.6323 -0.0515  1.2817
13410TIP3   OH261720   4.138   1.067  15.459 -0.2741 -0.4943 -0.6641
13410TIP3    H161721   4.077   1.103  15.524  1.1825 -0.3615  0.6987
13410TIP3    H261722   4.089   0.994  15.419 -0.9016 -1.2489  1.3216
13411TIP3   OH261723   1.326   0.259  11.446  0.6404  0.3995 -0.1966
13411TIP3    H161724   1.287   0.205  11.378 -2.0843  0.9125  0.8475
13411TIP3    H261725   1.359   0.197  11.511  1.5490 -0.0406 -1.0572
13412TIP3   OH261726   6.478   5.196  12.419 -0.0931  0.2947 -0.3142
13412TIP3    H161727   6.409   5.201  12.353 -0.0293 -1.0392 -0.5178
13412TIP3    H261728   6.528   5.118  12.394  0.4301  0.2450  0.8441
13413TIP3   OH261729   3.865   4.962  14.047 -0.1834  0.1818  0.6361
13413TIP3    H161730   3.847   5.015  14.125 -1.5918  0.2531  0.2945
13413TIP3    H261731   3.794   4.984  13.987 -0.4408 -1.6338  0.2334
13414TIP3   OH261732   3.523   6.408   1.096 -0.0563 -0.3980  0.4438
13414TIP3    H161733   3.585   6.457   1.150 -0.7374  0.0638  0.8199
13414TIP3    H261734   3.448   6.392   1.153  0.7852 -3.3828  0.8979
13415TIP3   OH261735   3.079   2.969  10.854  0.0709  0.1158  0.3139
13415TIP3    H161736   3.110   2.974  10.944 -1.7576  0.7298  0.9520
13415TIP3    H261737   3.001   2.913  10.858  1.4494 -2.0854 -1.3615
13416TIP3   OH261738   6.315   5.128   3.802 -0.0882  0.0355  0.1948
13416TIP3    H161739   6.267   5.066   3.748  2.6371 -1.9237 -0.2194
13416TIP3    H261740   6.294   5.103   3.892 -0.8962  0.1716  0.0554
13417TIP3   OH261741   2.425   3.645  11.821 -0.2381  0.0644 -0.2356
13417TIP3    H161742   2.505   3.696  11.834 -1.7231  2.4105  0.4540
13417TIP3    H261743   2.451   3.574  11.762  1.8600  2.0677 -1.9375
13418TIP3   OH261744   6.697   3.787  11.670 -0.2292  0.0723 -0.0732
13418TIP3    H161745   6.707   3.780  11.575 -2.1475  0.6256 -0.3617
13418TIP3    H261746   6.700   3.696  11.701 -2.8307 -0.4345 -1.0892
13419TIP3   OH261747   6.007   3.962  15.965 -0.6117 -0.3590  0.1826
13419TIP3    H161748   5.934   3.977  16.026 -1.3810 -0.4257 -0.6999
13419TIP3    H261749   6.020   4.046  15.922  0.4972 -0.0809  1.0203
13420TIP3   OH261750   6.026   5.060   5.531  0.3126 -0.1397  0.3878
13420TIP3    H161751   5.978   5.140   5.551  0.5485  0.0470  0.2194
13420TIP3    H261752   6.065   5.077   5.445 -0.0585 -0.6313  0.1210
13421TIP3   OH261753   2.172   4.559   5.845  0.5356 -0.0888  0.1783
13421TIP3    H161754   2.237   4.548   5.915 -0.2111 -1.2280  0.7245
13421TIP3    H261755   2.125   4.639   5.867  0.5185 -0.2675  0.8187
13422TIP3   OH261756   1.429   5.072   3.084 -0.4453 -0.1615  0.5429
13422TIP3    H161757   1.488   5.062   3.158  1.2445  2.0771 -0.3994
13422TIP3    H261758   1.348   5.108   3.122  0.1824  0.3834  1.3866
13423TIP3   OH261759   3.281   6.211   2.678 -0.4242 -0.4611 -0.0026
13423TIP3    H161760   3.359   6.224   2.733  0.1621 -1.2387 -0.6133
13423TIP3    H261761   3.235   6.138   2.719 -1.4705  0.7452  1.0245
13424TIP3   OH261762   0.926   3.043   1.993  0.5212  0.3589  0.1461
13424TIP3    H161763   0.883   3.091   1.922 -0.7427  0.6698  1.0980
13424TIP3    H261764   0.904   2.951   1.977 -1.4892  0.6105  1.2365
13425TIP3   OH261765   4.126   2.765   4.579 -0.1584 -0.2949 -0.2397
13425TIP3    H161766   4.164   2.721   4.655 -0.4081  0.4953  0.3593
13425TIP3    H261767   4.083   2.842   4.616 -0.9434 -0.3130 -1.1025
13426TIP3   OH261768   4.755   4.545  13.139 -0.2230 -0.0124  0.4573
13426TIP3    H161769   4.837   4.588  13.114 -0.4751  2.2871  3.1178
13426TIP3    H261770   4.783   4.463  13.181  0.4740 -0.7370 -1.3109
13427TIP3   OH261771   6.245   2.749   3.686  0.6823 -0.0128  0.2053
13427TIP3    H161772   6.312   2.683   3.667  2.1196 -0.2122  4.6970
13427TIP3    H261773   6.170   2.698   3.717  0.2364  0.3525 -0.2672
13428TIP3   OH261774   3.500   3.482   3.292 -0.1546  0.0520  0.0695
13428TIP3    H161775   3.423   3.538   3.279 -0.5102 -0.3191  0.5729
13428TIP3    H261776   3.478   3.400   3.247  0.7443  0.6150 -1.4966
13429TIP3   OH261777   0.989   1.923  14.176 -0.5273  0.1880  0.4814
13429TIP3    H161778   1.051   1.883  14.116 -1.5795  0.2798 -0.6942
13429TIP3    H261779   1.013   1.887  14.262 -0.6733 -2.0415 -0.3445
13430TIP3   OH261780   1.396   6.131   3.049 -0.7302 -1.3725 -0.5607
13430TIP3    H161781   1.384   6.090   3.134  0.6144 -2.9552 -1.0602
13430TIP3    H261782   1.453   6.070   3.002 -0.7170 -0.1036 -2.2743
13431TIP3   OH261783   5.064   4.109  13.709 -0.2844  0.0532  0.2026
13431TIP3    H161784   5.152   4.110  13.746 -0.8385 -0.8041  1.6486
13431TIP3    H261785   5.006   4.125  13.783 -1.4582 -1.8271 -0.2350
13432TIP3   OH261786   3.742   4.181  13.614  0.1079 -0.0109 -0.0673
13432TIP3    H161787   3.723   4.242  13.686 -1.0883 -0.9163  0.4063
13432TIP3    H261788   3.838   4.182  13.607  0.1275  2.1197 -0.2602
13433TIP3   OH261789   1.951   2.778   5.641  0.5779  0.5682  0.5376
13433TIP3    H161790   2.017   2.814   5.700 -0.3789  2.0963  0.7229
13433TIP3    H261791   1.972   2.817   5.556  0.9412 -0.3173  0.2062
13434TIP3   OH261792   4.390   1.233   1.043  0.2906 -0.2396 -0.2754
13434TIP3    H161793   4.444   1.206   0.969  0.3322 -2.5544  0.5165
13434TIP3    H261794   4.300   1.214   1.015  0.0486  1.4135 -0.7084
13435TIP3   OH261795   6.571   2.287   0.452  0.1261 -0.6843  0.9042
13435TIP3    H161796   6.635   2.334   0.506  0.6723 -1.0483  0.5785
13435TIP3    H261797   6.547   2.349   0.383 -0.2239 -0.3839  1.2897
13436TIP3   OH261798   0.841   0.691   1.572 -0.6066 -0.0537  0.0371
13436TIP3    H161799   0.766   0.632   1.584  0.0321 -0.5681  1.7873
13436TIP3    H261800   0.916   0.641   1.602  0.2245  1.0215 -0.1965
13437TIP3   OH261801   4.751   1.359   2.123  0.3089 -0.1796 -0.1327
13437TIP3    H161802   4.771   1.402   2.206 -0.0801 -1.1002  0.4576
13437TIP3    H261803   4.801   1.408   2.058  3.0670 -1.2695  1.0318
13438TIP3   OH261804   5.222   3.595   1.550  0.3763 -0.1528 -0.1446
13438TIP3    H161805   5.138   3.622   1.512  0.2204  0.7110  0.7818
13438TIP3    H261806   5.206   3.505   1.581  0.2978 -0.6002 -1.4413
13439TIP3   OH261807   4.866   3.194   3.746 -0.5097 -0.1368  0.1592
13439TIP3    H161808   4.836   3.278   3.778 -0.6699  0.2990 -1.0619
13439TIP3    H261809   4.787   3.140   3.743 -0.7985  0.3186 -0.9629
13440TIP3   OH261810   4.909   0.030  14.477  0.0843 -1.0382  0.5514
13440TIP3    H161811   4.836   0.091  14.464 -0.3174 -1.3299  1.3638
13440TIP3    H261812   4.959   0.068  14.549  1.3516 -0.2904 -0.6678
13441TIP3   OH261813   5.898   0.964   5.609  0.1278  0.1118 -0.2427
13441TIP3    H161814   5.808   0.981   5.582  0.0631 -0.9309 -0.7582
13441TIP3    H261815   5.927   1.045   5.649 -1.6211 -0.0822  1.5781
13442TIP3   OH261816   0.088   2.401   4.362 -0.2143  0.2428 -0.5245
13442TIP3    H161817   0.098   2.385   4.456  0.8293 -0.4875 -0.7299
13442TIP3    H261818   0.058   2.491   4.356  1.1368  0.7945  0.4760
13443TIP3   OH261819   3.893   5.318   2.764 -0.2997 -0.1467 -0.1864
13443TIP3    H161820   3.937   5.233   2.757  0.6020  0.4498 -3.4807
13443TIP3    H261821   3.804   5.296   2.789  0.1008 -2.0137 -0.2280
13444TIP3   OH261822   4.566   6.255  12.855  0.0370  0.2478  0.3664
13444TIP3    H161823   4.490   6.221  12.808  0.3769  0.2573 -0.2018
13444TIP3    H261824   4.637   6.252  12.791  0.7640 -0.7045  1.1800
13445TIP3   OH261825   4.763   0.139   4.200 -0.1685 -0.0457  0.6177
13445TIP3    H161826   4.817   0.138   4.279  0.4677 -0.5775  0.1943
13445TIP3    H261827   4.679   0.173   4.229 -0.6120 -2.0760  1.9766
13446TIP3   OH261828   6.576   0.270   2.662 -0.6267  0.0856  0.1969
13446TIP3    H161829   6.527   0.352   2.668 -0.6006  0.1556 -0.5172
13446TIP3    H261830   6.647   0.280   2.726 -0.9067  0.4188  0.4640
13447TIP3   OH261831   6.113   1.410  15.706 -0.5714  0.0884 -0.1778
13447TIP3    H161832   6.092   1.329  15.753 -0.2597  0.1823  0.1233
13447TIP3    H261833   6.090   1.390  15.615 -1.4622  0.0124  0.0486
13448TIP3   OH261834   4.860   6.281   2.035 -0.2414  0.2848 -0.2159
13448TIP3    H161835   4.768   6.265   2.015  0.0414  0.6911 -2.1260
13448TIP3    H261836   4.908   6.224   1.974  0.7557  0.6753  0.1766
13449TIP3   OH261837   6.748   1.393   2.778 -0.2288 -0.4725 -0.0401
13449TIP3    H161838   6.715   1.303   2.776 -1.8386  0.1029 -1.0167
13449TIP3    H261839   6.786   1.407   2.692  0.5355 -0.3800  0.3034
13450TIP3   OH261840   3.197   0.572   2.054  0.0775 -0.2300  0.1859
13450TIP3    H161841   3.276   0.599   2.101 -0.4657 -0.3877  1.2225
13450TIP3    H261842   3.133   0.640   2.074  0.4907  1.0226 -2.3202
13451TIP3   OH261843   1.020   0.677  14.167  0.4105 -0.1559  0.3548
13451TIP3    H161844   1.037   0.682  14.073 -2.2364  3.6636 -0.1598
13451TIP3    H261845   0.949   0.614  14.175 -0.5088  0.7280 -0.5140
13452TIP3   OH261846   1.796   3.596  15.722 -0.6260 -0.1585 -0.0253
13452TIP3    H161847   1.815   3.543  15.644  0.3355 -2.7228  1.8329
13452TIP3    H261848   1.880   3.634  15.746 -0.4242 -1.1864  0.9774
13453TIP3   OH261849   3.565   2.215  14.534  0.1689 -0.7689  0.1044
13453TIP3    H161850   3.600   2.304  14.547 -1.1255 -0.5792  2.7579
13453TIP3    H261851   3.475   2.229  14.505 -0.5464 -1.1406  2.0215
13454TIP3   OH261852   3.955   4.534   6.532  0.0835  0.1918  0.1412
13454TIP3    H161853   3.933   4.621   6.497 -0.9517  0.7847  2.1169
13454TIP3    H261854   3.931   4.539   6.625  1.4534 -1.7307  0.6450
13455TIP3   OH261855   5.394   1.762  15.456 -0.0403  0.2457 -0.5545
13455TIP3    H161856   5.369   1.695  15.392  0.4673 -0.0711 -0.4371
13455TIP3    H261857   5.379   1.720  15.541 -1.0926  0.8069 -0.4461
13456TIP3   OH261858   6.673   6.051   1.103  0.5654 -0.4227  0.2406
13456TIP3    H161859   6.590   6.056   1.056  1.5040 -1.2907 -1.6142
13456TIP3    H261860   6.656   5.992   1.176 -0.9662  1.0661  1.1477
13457TIP3   OH261861   3.599   4.847  15.713  0.2726 -0.3718  0.1542
13457TIP3    H161862   3.680   4.838  15.663 -0.7232 -2.8620 -1.1704
13457TIP3    H261863   3.545   4.907  15.662 -0.7331 -2.8881 -1.9444
13458TIP3   OH261864   6.087   4.587  16.923  0.0433  0.6902 -0.1764
13458TIP3    H161865   5.992   4.575  16.933  0.2283 -1.6824 -0.6432
13458TIP3    H261866   6.123   4.565  17.009  0.4158 -3.1606 -1.1326
13459TIP3   OH261867   1.761   2.343  11.254  0.0217 -0.4340  0.3931
13459TIP3    H161868   1.784   2.436  11.254 -0.0009 -0.2819  4.0677
13459TIP3    H261869   1.804   2.307  11.176  2.9317  2.0275  0.6889
13460TIP3   OH261870   3.363   5.909  11.663  0.1856 -0.0789 -0.0783
13460TIP3    H161871   3.396   5.823  11.636 -0.8338 -0.5424  0.1308
13460TIP3    H261872   3.433   5.970  11.638  0.7730 -0.9219 -0.5389
13461TIP3   OH261873   2.826   0.943   0.853  0.0985 -0.8132 -0.4017
13461TIP3    H161874   2.789   0.925   0.940 -1.0102 -1.4438 -0.9818
13461TIP3    H261875   2.858   1.033   0.859 -2.3042  0.1145 -0.0600
13462TIP3   OH261876   0.949   2.336  16.845 -0.8451 -0.7517  0.1622
13462TIP3    H161877   0.886   2.265  16.830 -0.6729 -0.9002  0.1288
13462TIP3    H261878   0.914   2.385  16.919 -2.3810  0.7605 -1.4786
13463TIP3   OH261879   0.367   3.106  11.923  0.6431  0.1236 -0.0544
13463TIP3    H161880   0.403   3.111  11.835 -3.2933 -5.0280 -2.5083
13463TIP3    H261881   0.411   3.031  11.963 -0.2453  0.0702  0.8752
13464TIP3   OH261882   1.075   5.962  11.052  0.0403 -0.1788 -0.0502
13464TIP3    H161883   1.060   5.968  10.957 -0.5943  0.9256  0.0990
13464TIP3    H261884   1.002   6.009  11.090 -0.2938 -1.5441  1.0529
13465TIP3   OH261885   6.653   6.695  11.120 -0.4592  0.5842  0.3713
13465TIP3    H161886   6.571   6.707  11.071 -0.9821 -0.9468  0.7957
13465TIP3    H261887   6.628   6.707  11.212 -0.4973 -1.0270  0.6008
13466TIP3   OH261888   5.901   3.738  12.422 -0.1053  0.0679 -0.3035
13466TIP3    H161889   5.847   3.713  12.347 -0.0017 -0.2449 -0.2721
13466TIP3    H261890   5.958   3.663  12.438 -0.9457 -0.3519  0.8450
13467TIP3   OH261891   0.754   4.729   4.367  0.5172  0.0952  0.1353
13467TIP3    H161892   0.751   4.753   4.460  1.3864 -0.6328  0.3683
13467TIP3    H261893   0.665   4.746   4.335 -0.3586 -1.3996  1.5631
13468TIP3   OH261894   4.105   1.074   5.392 -0.2198  0.0393 -0.3217
13468TIP3    H161895   4.140   1.133   5.459 -1.8132  0.4834  0.1684
13468TIP3    H261896   4.182   1.045   5.343  1.0339 -0.5632  1.8887
13469TIP3   OH261897   0.377   2.949  11.330 -0.3781 -0.4794  0.5542
13469TIP3    H161898   0.357   2.895  11.254  0.5596 -1.3323  0.8959
13469TIP3    H261899   0.438   3.015  11.297 -2.0540  0.8654 -0.0228
13470TIP3   OH261900   6.613   5.229  12.948 -0.0138  0.5432  0.3415
13470TIP3    H161901   6.562   5.154  12.977  1.3782 -0.9012 -0.7981
13470TIP3    H261902   6.626   5.215  12.854 -0.5222  2.7227 -0.1168
13471TIP3   OH261903   2.824   2.843  11.800 -0.0838  0.7047 -0.4013
13471TIP3    H161904   2.851   2.935  11.806 -0.9145  0.9581 -0.4231
13471TIP3    H261905   2.736   2.847  11.763 -0.3349 -0.0782  0.1029
13472TIP3   OH261906   4.896   1.597   3.996 -0.1766  0.2703  0.6572
13472TIP3    H161907   4.820   1.617   4.050 -0.4292 -1.3476  0.9770
13472TIP3    H261908   4.892   1.502   3.984  2.2252  0.0145  1.3505
13473TIP3   OH261909   3.492   2.160  13.303  0.3423  0.0089 -0.6154
13473TIP3    H161910   3.573   2.208  13.321 -0.8436  1.4179  1.3891
13473TIP3    H261911   3.480   2.103  13.379 -0.8202  0.2471 -0.5929
13474TIP3   OH261912   0.042   4.203  15.351 -0.1646  0.4377  0.1822
13474TIP3    H161913  -0.007   4.285  15.356  0.6121  0.8687  0.9278
13474TIP3    H261914  -0.017   4.142  15.306 -0.4121  1.6561 -1.2100
13475TIP3   OH261915   5.117   1.414  10.874 -0.0244 -0.3963  0.4571
13475TIP3    H161916   5.202   1.371  10.859 -0.4055 -1.1913  0.5051
13475TIP3    H261917   5.102   1.403  10.968  1.1388  2.2728  1.0287
13476TIP3   OH261918   2.190   3.345  14.201  0.0603 -0.4644 -0.6055
13476TIP3    H161919   2.215   3.253  14.202  0.2843 -0.4112 -1.3029
13476TIP3    H261920   2.226   3.380  14.283  1.7004 -0.5453 -1.2601
13477TIP3   OH261921   3.659   4.745   3.080 -0.2800  0.1161 -0.1194
13477TIP3    H161922   3.618   4.744   3.167 -0.1141  1.3861 -0.0154
13477TIP3    H261923   3.753   4.749   3.098 -0.2435  0.3165 -0.3559
13478TIP3   OH261924   0.350   0.410  15.687  0.3534 -0.4002 -0.8830
13478TIP3    H161925   0.345   0.413  15.782  1.5752 -0.4877 -0.8045
13478TIP3    H261926   0.277   0.354  15.660  0.6260 -1.2245  0.0649
13479TIP3   OH261927   5.345   4.049   1.661 -0.1624 -0.0983  0.2447
13479TIP3    H161928   5.319   3.960   1.686 -0.2302  0.7259  3.5752
13479TIP3    H261929   5.434   4.059   1.695 -0.3632  1.2624  0.4294
13480TIP3   OH261930   5.753   3.316   3.873 -0.0201  0.4164 -0.2741
13480TIP3    H161931   5.775   3.365   3.952  1.1067 -1.5701  0.7274
13480TIP3    H261932   5.834   3.315   3.822  0.0210 -0.4637 -0.2137
13481TIP3   OH261933   2.431   2.773  15.161 -0.9884 -0.1141  0.2555
13481TIP3    H161934   2.450   2.693  15.209  0.2306  0.0620  0.1129
13481TIP3    H261935   2.353   2.809  15.203 -0.8668 -0.7755  1.0749
13482TIP3   OH261936   4.316   4.745   3.635  0.4511  0.0647 -0.4449
13482TIP3    H161937   4.335   4.823   3.688  1.0124 -0.1441 -0.3334
13482TIP3    H261938   4.267   4.778   3.560  0.5569  0.5063 -0.3205
13483TIP3   OH261939   3.260   4.805   4.938  0.3840 -0.2747 -0.0535
13483TIP3    H161940   3.335   4.750   4.958  0.0808 -0.2176  1.3451
13483TIP3    H261941   3.297   4.882   4.894  1.3590  0.4310  1.8873
13484TIP3   OH261942   3.529   3.730   4.229  0.2928 -0.0211 -0.2829
13484TIP3    H161943   3.454   3.680   4.196 -0.3692 -0.8826  2.2591
13484TIP3    H261944   3.585   3.742   4.153 -1.3774 -1.2918 -1.8171
13485TIP3   OH261945   5.047   6.662  14.423 -0.1788  0.0654 -0.0028
13485TIP3    H161946   4.996   6.742  14.430 -0.4126  0.1048 -1.6483
13485TIP3    H261947   4.982   6.592  14.417 -0.0780  0.0671 -1.6037
13486TIP3   OH261948   0.674   0.277  16.891  0.6490 -0.1779 -0.0797
13486TIP3    H161949   0.678   0.338  16.817 -0.0560  0.4187  0.3675
13486TIP3    H261950   0.666   0.333  16.968  3.7939 -0.6766  0.7261
13487TIP3   OH261951   4.349   3.675  11.876  0.1718 -0.6936  0.4144
13487TIP3    H161952   4.435   3.632  11.873  0.5819  0.1136  0.1649
13487TIP3    H261953   4.345   3.724  11.793  0.2116  0.6432  1.1782
13488TIP3   OH261954   2.982   4.232  11.479 -0.4962 -0.0243 -0.2222
13488TIP3    H161955   3.039   4.158  11.500 -0.2190  0.4414  0.7214
13488TIP3    H261956   2.948   4.212  11.392  0.9192 -0.4457 -0.7139
13489TIP3   OH261957   2.555   6.763  15.304  0.1298  1.1274  0.4189
13489TIP3    H161958   2.465   6.794  15.289 -0.5135 -0.7714  0.0436
13489TIP3    H261959   2.580   6.722  15.221  0.2996 -0.7365  1.3417
13490TIP3   OH261960   1.434   2.849   1.279 -0.1348  0.4459  0.1871
13490TIP3    H161961   1.488   2.775   1.252  0.1356  0.8304 -0.3529
13490TIP3    H261962   1.377   2.814   1.348  1.5619  0.3086  1.5881
13491TIP3   OH261963   1.342   1.486  14.606 -0.0897 -0.2652  0.0603
13491TIP3    H161964   1.283   1.411  14.610 -0.5905  0.0613 -0.9417
13491TIP3    H261965   1.427   1.450  14.631  0.3772 -1.9486 -3.3683
13492TIP3   OH261966   5.509   2.989   3.459  0.2134 -0.1319  0.1657
13492TIP3    H161967   5.426   3.034   3.446  1.3234  1.6612 -1.2355
13492TIP3    H261968   5.550   3.033   3.533  0.2015 -0.5943  0.4531
13493TIP3   OH261969   4.533   1.177  14.318  0.3862  0.9078 -0.4243
13493TIP3    H161970   4.620   1.139  14.308  0.4782  1.0767 -0.2704
13493TIP3    H261971   4.474   1.102  14.315  0.7206  0.3694  2.6919
13494TIP3   OH261972   1.712   5.553   0.714  0.5557 -0.4130 -0.0676
13494TIP3    H161973   1.785   5.501   0.748 -0.3502 -0.7645  1.4447
13494TIP3    H261974   1.697   5.620   0.781 -0.4929 -0.3375 -0.3507
13495TIP3   OH261975   2.899   4.917  12.008 -0.6171  0.3620 -0.2770
13495TIP3    H161976   2.864   4.867  11.934  1.5599 -0.5518 -0.7647
13495TIP3    H261977   2.872   4.868  12.085  1.4851 -1.7351 -0.7419
13496TIP3   OH261978   6.832   4.365   3.730  0.0955  0.3174 -0.3582
13496TIP3    H161979   6.763   4.323   3.677 -0.8962  1.4557 -0.0150
13496TIP3    H261980   6.790   4.382   3.814  0.7300  1.2176 -0.2126
13497TIP3   OH261981   1.618   6.052  16.028 -0.6075 -0.0140  0.0851
13497TIP3    H161982   1.669   6.078  16.105 -1.5431  0.6806  0.4956
13497TIP3    H261983   1.666   6.087  15.954  0.7056 -1.3277  0.2684
13498TIP3   OH261984   2.270   1.178  12.245  0.0465 -0.2279 -0.3172
13498TIP3    H161985   2.298   1.093  12.211  4.3703  1.1708 -0.8112
13498TIP3    H261986   2.328   1.194  12.320 -0.5767  2.3183 -0.2880
13499TIP3   OH261987   1.834   0.120   0.094 -0.1230  0.1047 -0.3299
13499TIP3    H161988   1.896   0.189   0.072  0.4003 -0.3132 -0.2023
13499TIP3    H261989   1.773   0.161   0.156  1.1908  0.0130  1.1038
13500TIP3   OH261990   1.715   6.021   2.392  0.0697 -0.3988  0.6045
13500TIP3    H161991   1.753   5.936   2.369  0.3851  0.0594 -0.6204
13500TIP3    H261992   1.627   5.999   2.424  0.4399 -1.2473  1.0812
13501TIP3   OH261993   3.554   0.668  10.996  0.1019 -0.3132  0.9726
13501TIP3    H161994   3.636   0.711  10.974 -0.5686  0.0897 -0.9091
13501TIP3    H261995   3.569   0.576  10.976  0.2495 -0.3167  1.0994
13502TIP3   OH261996   5.806   6.096   4.836  0.2606  0.0573  0.1951
13502TIP3    H161997   5.877   6.031   4.840  0.4758  0.2284 -0.6338
13502TIP3    H261998   5.758   6.073   4.756  0.8477  1.4209 -0.5878
13503TIP3   OH261999   2.474   2.059   4.467 -0.3099 -0.6743 -0.3261
13503TIP3    H162000   2.569   2.060   4.455 -0.3244 -1.2564 -0.5354
13503TIP3    H262001   2.453   2.146   4.501  0.0360  0.2301 -2.3038
13504TIP3   OH262002   2.391   1.068   5.170  0.3101  0.2099  0.1699
13504TIP3    H162003   2.450   1.072   5.245 -2.8730 -2.1829  3.1034
13504TIP3    H262004   2.328   1.138   5.185  1.2095  1.5761 -1.9499
13505TIP3   OH262005   6.337   4.771  13.481 -0.2115  0.3927  0.2177
13505TIP3    H162006   6.305   4.721  13.406 -2.0637 -0.6798  1.6243
13505TIP3    H262007   6.367   4.705  13.543  2.0296  1.2913  0.1888
13506TIP3   OH262008   0.703   5.541   0.724 -0.0146  0.6569  0.2393
13506TIP3    H162009   0.707   5.519   0.631  0.8213  2.0034 -0.0610
13506TIP3    H262010   0.610   5.548   0.743 -0.1978  0.1100 -0.4164
13507TIP3   OH262011   3.466   6.770   2.937 -0.2362 -0.1408  0.1022
13507TIP3    H162012   3.549   6.807   2.967 -0.3176  0.1358 -0.0179
13507TIP3    H262013   3.488   6.724   2.856 -0.3242  0.4840 -0.2759
13508TIP3   OH262014   0.665   6.204   0.743  0.1982  0.4751 -0.5026
13508TIP3    H162015   0.570   6.220   0.742 -0.1549 -1.2517  1.1245
13508TIP3    H262016   0.686   6.184   0.651 -1.1329  0.2041 -0.7726
13509TIP3   OH262017   3.754   4.710  13.035 -0.2467 -0.2435 -0.1378
13509TIP3    H162018   3.697   4.773  13.079  0.9688 -1.2090  3.1218
13509TIP3    H262019   3.721   4.625  13.061  0.6472 -0.8814 -1.0078
13510TIP3   OH262020   1.623   1.264   5.453 -0.4958  0.2506 -0.1667
13510TIP3    H162021   1.600   1.345   5.499  0.9899  0.0249  1.0197
13510TIP3    H262022   1.567   1.197   5.493 -1.1518  0.5162 -0.6051
13511TIP3   OH262023   1.378   1.682   0.528 -0.2998  0.8060  0.0160
13511TIP3    H162024   1.360   1.706   0.437 -0.4495 -1.3008 -0.5650
13511TIP3    H262025   1.342   1.594   0.537  1.9524 -0.0572  1.3551
13512TIP3   OH262026   0.143   1.696  10.236 -0.0965  0.0946 -0.0036
13512TIP3    H162027   0.165   1.604  10.249 -0.1119  0.1675  0.5813
13512TIP3    H262028   0.188   1.721  10.155 -1.6306 -0.9325 -1.2336
13513TIP3   OH262029   0.106   2.673  13.950  0.2859  0.5872  0.5645
13513TIP3    H162030   0.071   2.594  13.990 -1.1019  1.0225  0.2636
13513TIP3    H262031   0.130   2.646  13.861 -0.3320  0.5395  0.4101
13514TIP3   OH262032   1.151   2.229  12.720  0.1412 -0.3474 -0.0999
13514TIP3    H162033   1.084   2.251  12.785 -1.1430 -1.5227 -0.9742
13514TIP3    H262034   1.229   2.208  12.772  0.0736  1.6557  0.9084
13515TIP3   OH262035   2.267   6.343  14.404  0.2305  0.0932 -0.3623
13515TIP3    H162036   2.332   6.408  14.378  0.1559  0.0134 -0.7486
13515TIP3    H262037   2.183   6.388  14.393  0.2229  0.2499  0.2883
13516TIP3   OH262038   5.021   5.885   1.394  0.2911 -0.2121 -0.9266
13516TIP3    H162039   4.962   5.960   1.384  1.7441  1.6431  2.4997
13516TIP3    H262040   4.981   5.831   1.462  1.7636  0.4561  0.5832
13517TIP3   OH262041   5.377   5.796  11.571  0.3296 -0.4070  0.4587
13517TIP3    H162042   5.416   5.868  11.621  1.4693  0.7217 -1.8784
13517TIP3    H262043   5.450   5.760  11.520 -0.8710 -1.0091 -0.9258
13518TIP3   OH262044   4.907   1.047  13.180  0.4562  0.2529 -0.3661
13518TIP3    H162045   4.925   1.076  13.270  1.1208 -1.8122  0.2277
13518TIP3    H262046   4.838   0.982  13.189  0.3762  0.1887 -1.3782
13519TIP3   OH262047   6.840   3.824  12.244 -0.1254  0.0553  0.3989
13519TIP3    H162048   6.749   3.847  12.223  0.5160  0.2518 -2.6005
13519TIP3    H262049   6.879   3.907  12.271 -0.4309  0.3113  0.0741
13520TIP3   OH262050   6.276   0.987  13.970  0.0247 -0.3854  0.2694
13520TIP3    H162051   6.223   0.928  13.916 -1.2790  1.8221 -0.9885
13520TIP3    H262052   6.322   1.043  13.908  1.8383 -0.5096  1.4209
13521TIP3   OH262053   5.145   3.720   5.921  0.3219  0.2537  0.3064
13521TIP3    H162054   5.096   3.701   6.000 -1.5545 -0.8834 -1.0417
13521TIP3    H262055   5.122   3.810   5.899 -0.7140 -0.0696  0.0262
13522TIP3   OH262056   1.450   2.386  12.520  0.3061 -0.4929 -0.2724
13522TIP3    H162057   1.391   2.310  12.522 -0.2289 -0.1197 -1.1120
13522TIP3    H262058   1.535   2.350  12.496  0.3757 -1.0134  0.7290
13523TIP3   OH262059   1.844   6.044   5.767 -0.5376 -0.0582  0.2384
13523TIP3    H162060   1.862   5.956   5.734  0.6987  0.5231 -0.7262
13523TIP3    H262061   1.756   6.064   5.736  0.3000  0.1817 -2.2451
13524TIP3   OH262062   2.526   6.459  11.048 -0.4229  0.0034 -0.6935
13524TIP3    H162063   2.463   6.401  11.006 -2.1188  0.7527  0.6842
13524TIP3    H262064   2.582   6.401  11.100 -1.5681 -0.5068  0.0025
13525TIP3   OH262065   2.375   5.144  15.927  0.2483  0.4947  0.0534
13525TIP3    H162066   2.365   5.212  15.994 -0.7416  1.7655 -1.2987
13525TIP3    H262067   2.405   5.192  15.850 -0.5936 -0.5871 -0.9716
13526TIP3   OH262068   6.472   1.153  12.302 -0.1747  0.1913  0.2571
13526TIP3    H162069   6.541   1.117  12.358  1.6552  0.0216 -1.9303
13526TIP3    H262070   6.393   1.106  12.328  1.0745 -1.5700  1.0949
13527TIP3   OH262071   0.606   4.345  13.021  0.3171  0.0954 -0.1615
13527TIP3    H162072   0.538   4.392  13.071  2.6819  0.3148  3.1729
13527TIP3    H262073   0.595   4.376  12.931 -3.0904  1.1034  0.4552
13528TIP3   OH262074   1.198   1.221   1.701  0.0525 -0.1018  0.2287
13528TIP3    H162075   1.201   1.256   1.790 -0.9566 -2.1736  1.1523
13528TIP3    H262076   1.131   1.273   1.657  1.4093  1.7541  0.2394
13529TIP3   OH262077   2.919   5.127   2.496  0.4376  0.2481  0.0702
13529TIP3    H162078   2.899   5.081   2.414  1.2015 -0.2730  0.1711
13529TIP3    H262079   2.833   5.151   2.531  0.0613 -0.3910 -0.3909
13530TIP3   OH262080   5.889   4.351   3.935  0.2049  0.5680 -0.1894
13530TIP3    H162081   5.980   4.322   3.941 -0.1975 -1.0729 -1.2315
13530TIP3    H262082   5.840   4.271   3.913 -1.8912  0.8365  2.8826
13531TIP3   OH262083   5.309   2.574  16.693  0.3525  0.3978  0.4036
13531TIP3    H162084   5.391   2.595  16.648 -0.5575  0.5905 -1.2107
13531TIP3    H262085   5.256   2.653  16.684 -0.7164 -0.3751 -0.1996
13532TIP3   OH262086   4.770   0.031  15.703  0.2898 -0.1964 -0.1804
13532TIP3    H162087   4.797   0.091  15.772  1.4302  0.8559 -1.4806
13532TIP3    H262088   4.674   0.031  15.707  0.3250 -1.1420  2.1622
13533TIP3   OH262089   6.759   6.644   0.011  0.2543  0.3647  0.7436
13533TIP3    H162090   6.817   6.640  -0.064 -0.2989  2.6986  0.1137
13533TIP3    H262091   6.802   6.591   0.078  2.3267  0.7746 -0.1929
13534TIP3   OH262092   0.162   5.942   0.141  0.3356 -0.4316  0.2491
13534TIP3    H162093   0.136   5.869   0.198  2.1010 -1.6121 -0.3782
13534TIP3    H262094   0.182   5.901   0.057  1.4662  0.7781 -0.0990
13535TIP3   OH262095   6.450   5.063  13.102 -0.3416 -0.6821 -0.3529
13535TIP3    H162096   6.470   5.018  13.184 -0.5311 -0.0908  0.0228
13535TIP3    H262097   6.355   5.072  13.102 -0.3121 -0.3708 -0.4732
13536TIP3   OH262098   1.974   0.765  15.243  0.0886 -0.1517 -0.1866
13536TIP3    H162099   1.987   0.698  15.176 -0.1773 -0.2268 -0.1634
13536TIP3    H262100   2.062   0.798  15.261  0.0443  0.7900 -1.5218
13537TIP3   OH262101   5.907   0.620  15.685 -0.0343 -0.1148 -0.1359
13537TIP3    H162102   5.974   0.648  15.748  0.3924  0.7092 -0.9305
13537TIP3    H262103   5.957   0.576  15.615 -0.5128 -1.1324  0.1331
13538TIP3   OH262104   0.859   3.557  14.851  0.3364  0.0065  0.2425
13538TIP3    H162105   0.864   3.482  14.910  0.8539 -1.1726 -1.2397
13538TIP3    H262106   0.908   3.530  14.773  0.8346  2.0245 -0.1937
13539TIP3   OH262107   2.301   1.750  15.883  0.0002  0.2223 -0.2432
13539TIP3    H162108   2.252   1.747  15.966 -2.4083  0.1716 -1.5843
13539TIP3    H262109   2.393   1.746  15.910 -0.6970 -0.0776  2.4090
13540TIP3   OH262110   5.572   0.138  13.393 -0.4703 -0.3129 -0.3131
13540TIP3    H162111   5.513   0.125  13.467 -0.1455 -0.7386 -0.1289
13540TIP3    H262112   5.622   0.056  13.387 -0.0529 -0.0401 -0.6082
13541TIP3   OH262113   5.110   5.639   5.340 -0.2664 -0.5469  0.2307
13541TIP3    H162114   5.151   5.649   5.426 -0.6116  0.4479  0.3041
13541TIP3    H262115   5.089   5.546   5.334  0.1975 -0.7182  1.0179
13542TIP3   OH262116   5.081   3.306   4.216  0.2600  0.4502  0.2609
13542TIP3    H162117   5.098   3.399   4.231  0.1246  0.4629  0.3351
13542TIP3    H262118   5.040   3.275   4.297  3.5992 -0.5215  1.7383
13543TIP3   OH262119   0.795   4.912  14.621 -0.0065  0.8002  0.1744
13543TIP3    H162120   0.823   4.916  14.529  0.9189 -1.3122  0.2927
13543TIP3    H262121   0.873   4.882  14.668 -0.5200  1.6864  1.6362
13544TIP3   OH262122   0.904   0.313  14.287 -0.2752  0.2098  0.3523
13544TIP3    H162123   0.901   0.231  14.336 -2.5840  0.4374  0.7031
13544TIP3    H262124   0.965   0.296  14.215 -0.9740 -1.9567  0.1936
13545TIP3   OH262125   2.828   0.834  16.506 -0.1831  0.4617  0.5995
13545TIP3    H162126   2.834   0.749  16.547  0.5996 -0.0466 -0.4965
13545TIP3    H262127   2.840   0.897  16.577 -1.7131 -0.2888  1.5719
13546TIP3   OH262128   0.601   0.235   4.567 -0.0321 -0.1065 -0.3582
13546TIP3    H162129   0.553   0.271   4.641  0.5684  0.1754 -0.0975
13546TIP3    H262130   0.540   0.175   4.525 -0.7537  0.5682 -0.2890
13547TIP3   OH262131   3.254   0.406   1.077 -0.5212 -0.3382 -0.0966
13547TIP3    H162132   3.309   0.482   1.057 -0.4366 -0.2921  0.3026
13547TIP3    H262133   3.301   0.332   1.040 -0.2120 -0.2926  0.1919
13548TIP3   OH262134   4.333   1.044  16.577  0.1019 -0.0369 -0.3157
13548TIP3    H162135   4.368   0.962  16.542 -1.1528  0.4500 -2.8896
13548TIP3    H262136   4.238   1.038  16.562 -0.1272  1.4830  0.3562
13549TIP3   OH262137   5.472   0.124  16.229 -0.3811  0.1208 -0.1241
13549TIP3    H162138   5.446   0.094  16.141  0.4387  0.3401 -0.4453
13549TIP3    H262139   5.464   0.046  16.284  0.0802 -0.2729 -0.6016
13550TIP3   OH262140   1.198   5.608  13.128  0.3753  0.0210 -0.4199
13550TIP3    H162141   1.191   5.703  13.125  1.7619  0.1541  0.1602
13550TIP3    H262142   1.118   5.577  13.085 -0.7367  1.4241  0.5442
13551TIP3   OH262143   0.812   2.942   4.668 -0.1775  0.5406  0.4503
13551TIP3    H162144   0.884   2.930   4.607 -0.5654 -3.2131  0.5329
13551TIP3    H262145   0.851   2.984   4.744  1.9408 -1.1849  0.4019
13552TIP3   OH262146   2.086   1.354   4.265  0.5375  0.5968  0.0549
13552TIP3    H162147   2.020   1.316   4.322  1.7948  0.3171  1.4061
13552TIP3    H262148   2.099   1.290   4.196 -1.3738  1.1604 -0.9084
13553TIP3   OH262149   6.860   1.939   2.983 -0.2756 -0.5575  0.1539
13553TIP3    H162150   6.943   1.947   2.935 -0.6400 -2.5780 -0.9202
13553TIP3    H262151   6.875   1.866   3.043 -0.7521  0.1700  1.1820
13554TIP3   OH262152   3.472   5.075  16.537 -0.6812 -0.2498  0.4231
13554TIP3    H162153   3.444   4.995  16.580 -0.3912 -0.8413 -0.4669
13554TIP3    H262154   3.562   5.089  16.568 -1.2036  0.5130  1.6600
13555TIP3   OH262155   2.629   3.087  14.541 -0.6800  0.3725 -0.5797
13555TIP3    H162156   2.668   3.058  14.624  0.6061  2.7904 -0.2517
13555TIP3    H262157   2.674   3.035  14.475 -0.4551 -0.3490  0.1184
13556TIP3   OH262158   2.202   2.088   4.700 -0.3086  0.6339 -0.0724
13556TIP3    H162159   2.188   2.044   4.615  0.7909  0.2512 -0.0678
13556TIP3    H262160   2.133   2.052   4.756 -1.7914  1.7417 -1.0899
13557TIP3   OH262161   2.495   1.758   4.810  0.4541  0.7092 -0.2098
13557TIP3    H162162   2.511   1.664   4.799 -0.4605  0.6324 -0.9851
13557TIP3    H262163   2.443   1.764   4.891  0.1365  0.4980 -0.3945
13558TIP3   OH262164   5.274   6.400   0.634  0.5989 -0.1853  0.0882
13558TIP3    H162165   5.351   6.454   0.656  1.0237 -0.5119 -0.5484
13558TIP3    H262166   5.311   6.313   0.616 -0.0272 -0.5749  0.6406
13559TIP3   OH262167   4.266   2.196   4.384  0.4786 -0.5591  0.1411
13559TIP3    H162168   4.241   2.107   4.411  0.4213 -0.5632  0.0748
13559TIP3    H262169   4.362   2.195   4.388  0.8580 -2.0641 -4.1274
13560TIP3   OH262170   6.285   4.424   3.051 -0.2762  0.0874 -0.2607
13560TIP3    H162171   6.354   4.425   2.986  0.0822  0.6719  0.1215
13560TIP3    H262172   6.204   4.433   3.000  0.0902  2.6136 -0.5300
13561TIP3   OH262173   2.294   2.200   1.335 -0.0038 -0.3099  0.4838
13561TIP3    H162174   2.325   2.119   1.294  0.1042 -0.4666  0.8675
13561TIP3    H262175   2.318   2.190   1.427 -0.4425 -0.0601  0.6254
13562TIP3   OH262176   4.202   4.114  12.935 -0.3277 -0.5691  1.0744
13562TIP3    H162177   4.270   4.161  12.887 -1.3367 -0.7166 -0.5865
13562TIP3    H262178   4.187   4.167  13.013  0.4969  0.3752  0.6222
13563TIP3   OH262179   6.218   5.236  13.829 -0.0673  0.0176  0.1771
13563TIP3    H162180   6.139   5.188  13.855  0.1540 -0.1086  0.6352
13563TIP3    H262181   6.187   5.301  13.767 -0.5113 -0.1358  0.2330
13564TIP3   OH262182   3.527   0.607   0.797 -0.1266  0.2951  0.3218
13564TIP3    H162183   3.473   0.609   0.876 -0.8867  1.5347 -0.1937
13564TIP3    H262184   3.567   0.520   0.797  0.9625  0.7089  2.7604
13565TIP3   OH262185   4.661   4.073   4.603 -0.1809  0.2657  0.5111
13565TIP3    H162186   4.622   4.157   4.626 -0.2392  0.3217  0.2087
13565TIP3    H262187   4.672   4.028   4.687 -2.8970 -0.6579  0.4382
13566TIP3   OH262188   4.225   1.338  15.441  0.0156 -0.6237  0.2856
13566TIP3    H162189   4.173   1.260  15.419 -1.0522 -0.1104  0.9117
13566TIP3    H262190   4.167   1.411  15.419  1.2665  0.0408 -0.9656
13567TIP3   OH262191   5.484   5.011   5.211  0.0794  0.2843  0.4616
13567TIP3    H162192   5.424   4.987   5.140  0.5414 -2.5214  0.9069
13567TIP3    H262193   5.488   4.933   5.266  2.0604  1.3535  1.9503
13568TIP3   OH262194   5.353   5.900   3.881  0.1329 -0.3186 -0.0265
13568TIP3    H162195   5.299   5.965   3.926 -1.4987  0.5456 -2.9617
13568TIP3    H262196   5.296   5.823   3.874  0.5729 -0.6361 -0.1175
13569TIP3   OH262197   1.438   4.936  14.017  0.5656 -1.1565 -0.3316
13569TIP3    H162198   1.436   5.031  14.027 -0.6566 -1.2180  0.2101
13569TIP3    H262199   1.381   4.918  13.942  1.7522 -1.4073 -1.2181
13570TIP3   OH262200   0.154   2.075   0.479 -0.1725 -0.1661  0.4680
13570TIP3    H162201   0.220   2.021   0.436  1.0227  0.6523  1.2059
13570TIP3    H262202   0.166   2.058   0.573 -0.9546  0.0543  0.6136
13571TIP3   OH262203   6.225   4.345   1.691  0.7933  0.3026  0.1482
13571TIP3    H162204   6.275   4.345   1.773 -0.4651  3.4274  1.0527
13571TIP3    H262205   6.243   4.431   1.652  1.5199 -1.1510 -3.0728
13572TIP3   OH262206   3.510   4.827  11.122  0.8212 -0.0916  0.0352
13572TIP3    H162207   3.453   4.775  11.064  1.1987  1.2752 -1.6478
13572TIP3    H262208   3.502   4.785  11.208 -1.3233 -1.0201 -0.5528
13573TIP3   OH262209   2.950   6.318   0.996  1.1957 -0.4079  0.0110
13573TIP3    H162210   2.876   6.301   1.054  0.0817  1.1679 -0.8572
13573TIP3    H262211   2.947   6.248   0.932  0.7174 -0.6035  0.2422
13574TIP3   OH262212   1.594   4.972  12.635 -0.3697  0.4607 -0.8312
13574TIP3    H162213   1.603   5.049  12.579 -2.9083  2.1314  0.8307
13574TIP3    H262214   1.500   4.966  12.653  0.2133 -0.1985  2.7987
13575TIP3   OH262215   2.409   0.016  14.180  0.1755 -0.8705 -0.1775
13575TIP3    H162216   2.329   0.068  14.193 -0.5647 -1.9906 -0.1099
13575TIP3    H262217   2.428   0.022  14.087 -0.7827 -1.6910 -0.4421
13576TIP3   OH262218   4.784   3.638  10.978 -0.4053  0.3847 -0.0887
13576TIP3    H162219   4.843   3.612  11.049 -2.2482  1.6277  2.0287
13576TIP3    H262220   4.699   3.602  11.004 -1.1690  0.9935 -1.6343
13577TIP3   OH262221   0.142   0.740  12.355  0.0993  0.0764 -0.0793
13577TIP3    H162222   0.138   0.696  12.270 -0.7128  2.1489 -1.1739
13577TIP3    H262223   0.153   0.668  12.418 -2.3808 -1.8342 -1.6284
13578TIP3   OH262224   6.135   1.597   3.431 -0.0918  0.2533 -0.0228
13578TIP3    H162225   6.151   1.599   3.337  1.9123  0.2766  0.2714
13578TIP3    H262226   6.089   1.514   3.446  0.8272 -0.4237 -0.8556
13579TIP3   OH262227   0.269   3.646  15.426  0.2197 -0.0328 -0.1673
13579TIP3    H162228   0.291   3.586  15.497 -0.4495  0.3082  0.3343
13579TIP3    H262229   0.317   3.727  15.448  3.4965 -1.1733 -2.3155
13580TIP3   OH262230   0.278   4.585   3.799  0.2131  0.5515  0.2320
13580TIP3    H162231   0.333   4.551   3.729 -0.4307 -1.9640  0.8536
13580TIP3    H262232   0.238   4.664   3.762  1.9142  0.7821 -1.2545
13581TIP3   OH262233   6.748   0.320   5.043  0.4755 -0.0048 -0.2801
13581TIP3    H162234   6.739   0.229   5.014 -2.4543 -0.2029  0.9310
13581TIP3    H262235   6.700   0.371   4.979 -2.9861 -0.0722  1.9893
13582TIP3   OH262236   4.960   1.715   2.099 -0.4340  0.4741 -0.1801
13582TIP3    H162237   5.014   1.688   2.173  0.3170  0.8413 -0.5890
13582TIP3    H262238   4.942   1.635   2.051 -1.1005  0.2001  0.5081
13583TIP3   OH262239   4.237   1.950   1.807  0.0464  0.2401 -0.2551
13583TIP3    H162240   4.233   1.896   1.728 -2.5825 -0.3352  0.2024
13583TIP3    H262241   4.262   2.037   1.775  3.1974 -0.8221 -1.1357
13584TIP3   OH262242   0.843   6.072   2.239 -0.0479 -0.4311  0.0006
13584TIP3    H162243   0.825   5.995   2.186  0.8908  0.0670 -1.0693
13584TIP3    H262244   0.757   6.099   2.271 -0.3702 -1.9967  0.5358
13585TIP3   OH262245   1.046   2.924   4.526  0.2516  0.5261 -0.3883
13585TIP3    H162246   1.139   2.931   4.546 -0.2502  2.3529  1.5251
13585TIP3    H262247   1.043   2.916   4.430  2.3183  1.0122 -0.5348
13586TIP3   OH262248   0.702   5.410  13.738  0.7023 -0.5020 -0.9886
13586TIP3    H162249   0.678   5.369  13.821  2.0290  1.0442  0.2430
13586TIP3    H262250   0.647   5.367  13.673 -1.2709 -0.9273  0.8516
13587TIP3   OH262251   4.793   5.428  13.645 -0.1622  0.1366 -0.3044
13587TIP3    H162252   4.770   5.444  13.736  0.1590 -0.9122 -0.0242
13587TIP3    H262253   4.711   5.403  13.604 -0.6305  2.1592 -0.7008
13588TIP3   OH262254   4.444   6.397  13.564 -0.5082  0.1808  0.1309
13588TIP3    H162255   4.531   6.405  13.525 -0.2791  2.2171  0.9367
13588TIP3    H262256   4.384   6.407  13.490 -0.0511  2.3650 -0.0386
13589TIP3   OH262257   2.430   3.012  16.155  0.5096 -0.0019 -0.2374
13589TIP3    H162258   2.501   3.000  16.218 -0.5578 -1.4225  0.7837
13589TIP3    H262259   2.398   3.100  16.171  3.3026  1.5008 -2.1615
13590TIP3   OH262260   1.133   1.595   1.779 -0.1458  0.3918  0.2414
13590TIP3    H162261   1.055   1.645   1.804  0.5677  2.1412 -0.8260
13590TIP3    H262262   1.104   1.540   1.706 -0.7308 -0.1440  0.8621
13591TIP3   OH262263   0.560   1.070   1.709 -0.0121 -0.3023 -0.5926
13591TIP3    H162264   0.603   1.017   1.777 -3.1752 -3.0431 -0.4750
13591TIP3    H262265   0.590   1.031   1.627 -0.3805 -0.6042 -0.5852
13592TIP3   OH262266   0.998   5.008  15.399  0.0113  0.3911  0.4689
13592TIP3    H162267   0.997   4.913  15.408  1.6057  0.4110  1.3721
13592TIP3    H262268   0.911   5.036  15.427 -0.5358 -0.8005  0.0364
13593TIP3   OH262269   2.340   1.835  10.462 -0.2765 -0.1622  0.0358
13593TIP3    H162270   2.405   1.836  10.392  0.8386  0.7934  1.0159
13593TIP3    H262271   2.258   1.859  10.419  0.5118  1.1085 -0.8407
13594TIP3   OH262272   0.591   5.847  11.320  0.3854  0.1218  0.6368
13594TIP3    H162273   0.650   5.773  11.334  0.1609  0.3364  3.2012
13594TIP3    H262274   0.583   5.854  11.224  0.5078 -3.0539  0.2905
13595TIP3   OH262275   4.020   5.042   3.444 -0.4552 -0.1780 -0.4814
13595TIP3    H162276   4.057   5.009   3.525 -1.9077 -0.8343 -0.0424
13595TIP3    H262277   4.007   5.135   3.459 -1.3108 -0.4066  0.3039
13596TIP3   OH262278   5.933   1.998  16.370  0.1692  0.4758  0.4793
13596TIP3    H162279   6.012   2.041  16.404 -0.0643  1.8249 -0.5786
13596TIP3    H262280   5.940   2.007  16.275 -0.7440 -0.3513  0.3204
13597TIP3   OH262281   2.931   5.731   4.821  0.5068 -0.5307 -0.4148
13597TIP3    H162282   2.848   5.713   4.864  0.4754 -0.0751 -0.2807
13597TIP3    H262283   2.983   5.651   4.834  0.3520 -0.5458  0.1216
13598TIP3   OH262284   6.086   5.943   2.499 -0.4773  0.3347  0.3240
13598TIP3    H162285   6.174   5.955   2.535 -0.6250 -0.2821  0.9121
13598TIP3    H262286   6.062   5.853   2.523 -0.8076  0.0912 -0.8388
13599TIP3   OH262287   4.505   0.933  15.758 -0.1431 -1.0859 -0.3790
13599TIP3    H162288   4.560   0.894  15.690 -0.1441  0.4382 -1.2946
13599TIP3    H262289   4.508   0.870  15.830  1.5909 -1.7409 -0.9701
13600TIP3   OH262290   4.167   1.728  16.802 -0.2448  0.1598 -0.3639
13600TIP3    H162291   4.206   1.744  16.716  2.3533 -1.7243  0.3175
13600TIP3    H262292   4.108   1.654  16.788  1.0775 -0.9469 -0.4131
13601TIP3   OH262293   5.839   0.831  13.494  0.0263  0.0164  0.1888
13601TIP3    H162294   5.787   0.865  13.567 -1.1160 -1.0882 -0.0703
13601TIP3    H262295   5.914   0.789  13.535 -0.1375  0.1905  0.6734
13602TIP3   OH262296   2.119   5.584  15.356  0.4796 -0.0352  0.6574
13602TIP3    H162297   2.095   5.625  15.440 -4.1388 -1.9022  0.5589
13602TIP3    H262298   2.112   5.655  15.292 -0.6785  0.4756  1.3115
13603TIP3   OH262299   0.450   6.391   3.538 -0.4505  0.3364  0.5251
13603TIP3    H162300   0.455   6.444   3.458 -0.8743  0.4550  0.5740
13603TIP3    H262301   0.532   6.409   3.584 -1.4427  2.5986  1.5720
13604TIP3   OH262302   1.097   2.384  11.966 -0.6808 -0.4387  0.3027
13604TIP3    H162303   1.114   2.305  11.915 -0.8121 -1.2193  1.4323
13604TIP3    H262304   1.131   2.365  12.054  0.2085  1.1366  0.3521
13605TIP3   OH262305   6.277   2.902  11.735  0.0239  0.5010  0.4000
13605TIP3    H162306   6.354   2.845  11.737  0.5460  1.2001  1.2088
13605TIP3    H262307   6.212   2.854  11.684  1.1594  0.0875 -0.7206
13606TIP3   OH262308   2.632   2.861   2.519 -0.1154  0.0748  0.2523
13606TIP3    H162309   2.714   2.879   2.565 -0.2452  1.5661 -0.0487
13606TIP3    H262310   2.660   2.817   2.438  0.2541 -0.7658  0.8203
13607TIP3   OH262311   1.759   4.537  14.643 -0.4040  0.1932 -0.4535
13607TIP3    H162312   1.678   4.588  14.636 -0.2352  0.3037 -2.2992
13607TIP3    H262313   1.811   4.583  14.708 -2.0594 -0.2472  1.2693
13608TIP3   OH262314   5.959   1.998  11.608 -0.2376 -0.7295 -0.4982
13608TIP3    H162315   6.025   1.931  11.626 -0.2843 -0.9393 -1.0895
13608TIP3    H262316   6.010   2.078  11.593 -0.2171 -0.4472  0.9538
13609TIP3   OH262317   1.448   5.457  15.564 -0.5185 -0.1627 -0.2021
13609TIP3    H162318   1.363   5.497  15.582 -0.8341 -0.6946 -0.4625
13609TIP3    H262319   1.433   5.363  15.578  0.2232 -0.1855  0.4825
13610TIP3   OH262320   4.381   4.883  12.918 -0.2628  0.2941  0.3246
13610TIP3    H162321   4.411   4.903  12.829 -0.9426  1.3852  0.3272
13610TIP3    H262322   4.457   4.843  12.960 -0.5492 -2.1962 -1.3566
13611TIP3   OH262323   4.642   6.120   5.467 -0.1651  0.0927  0.0535
13611TIP3    H162324   4.608   6.067   5.394  0.9060 -1.4282  0.6032
13611TIP3    H262325   4.728   6.149   5.437 -0.0079  0.0322  0.4389
13612TIP3   OH262326   3.258   6.725   5.750  0.1639  0.3613  0.1607
13612TIP3    H162327   3.282   6.817   5.740  1.4442  0.4197  2.9133
13612TIP3    H262328   3.196   6.725   5.824  0.0570 -0.9641  0.0845
13613TIP3   OH262329   2.242   5.237  15.267  0.3361  0.0054 -0.6617
13613TIP3    H162330   2.172   5.230  15.202  0.9981 -2.0174 -1.2522
13613TIP3    H262331   2.322   5.240  15.216  0.8276 -0.8176  0.0215
13614TIP3   OH262332   0.622   1.106  10.565 -0.0259  0.5464  0.0218
13614TIP3    H162333   0.572   1.160  10.626 -0.5619  0.2562 -0.1625
13614TIP3    H262334   0.620   1.018  10.604 -1.1024  0.1702 -0.8415
13615TIP3   OH262335   1.789   2.745   4.569  0.0264  0.3506 -0.2139
13615TIP3    H162336   1.864   2.804   4.566 -1.0313  1.9081  1.6372
13615TIP3    H262337   1.719   2.792   4.523 -0.4427 -0.0706  0.0532
13616TIP3   OH262338   6.533   3.135   1.599 -0.8037 -0.0897  0.3990
13616TIP3    H162339   6.506   3.047   1.570 -0.0570  0.8854 -4.0022
13616TIP3    H262340   6.453   3.187   1.595 -0.6930  0.0538 -0.1675
13617TIP3   OH262341   3.603   6.150   1.348 -0.6560 -0.0716  0.1080
13617TIP3    H162342   3.574   6.239   1.330  2.3882  1.1343  0.5736
13617TIP3    H262343   3.662   6.159   1.424  2.7574 -1.7630 -2.0830
13618TIP3   OH262344   5.215   6.409  13.757  0.4321 -0.5455  0.0147
13618TIP3    H162345   5.142   6.350  13.734  0.3856  0.2244 -1.9821
13618TIP3    H262346   5.175   6.495  13.765  1.0461 -0.1807 -0.7099
13619TIP3   OH262347   2.724   6.123   0.149 -0.1575  0.0822  0.0740
13619TIP3    H162348   2.638   6.164   0.135 -0.5075 -0.1931  1.2930
13619TIP3    H262349   2.787   6.189   0.123 -0.6859 -0.4759 -3.0517
13620TIP3   OH262350   3.055   5.435  15.013  0.1118 -0.0437 -0.2656
13620TIP3    H162351   3.020   5.348  15.035  0.1340 -0.2506 -1.0365
13620TIP3    H262352   3.130   5.445  15.072 -0.0924 -0.4057  0.0630
13621TIP3   OH262353   4.618   1.438  14.251  0.1252  0.4315 -0.0197
13621TIP3    H162354   4.601   1.348  14.280  0.6011  0.3360 -0.0232
13621TIP3    H262355   4.657   1.481  14.328  2.2829 -0.0894 -0.7688
13622TIP3   OH262356   3.329   1.147  13.715 -0.6095  0.2844 -0.2588
13622TIP3    H162357   3.392   1.090  13.760 -1.1850 -1.4693 -1.5578
13622TIP3    H262358   3.381   1.222  13.686  0.3793 -0.0107  0.6676
13623TIP3   OH262359   5.030   0.765  13.483  1.0610  0.3590 -0.1688
13623TIP3    H162360   5.039   0.754  13.578  2.2964  1.6486 -0.0947
13623TIP3    H262361   5.025   0.676  13.448 -0.5979 -0.1217  1.1775
13624TIP3   OH262362   4.392   5.921  13.830  0.0317  0.1955 -0.5033
13624TIP3    H162363   4.334   5.851  13.801  0.4565 -0.2515 -0.2942
13624TIP3    H262364   4.337   5.978  13.885  0.1326 -1.0505  0.9521
13625TIP3   OH262365   5.559   3.693   4.035  0.0319  0.7557 -0.0949
13625TIP3    H162366   5.584   3.765   4.094 -1.2507  1.2489 -0.1211
13625TIP3    H262367   5.470   3.671   4.061  0.7793 -1.6552  0.6931
13626TIP3   OH262368   5.213   3.152   0.559  0.0518 -0.9840 -0.3565
13626TIP3    H162369   5.194   3.225   0.617 -1.0810 -0.3060 -1.5250
13626TIP3    H262370   5.189   3.074   0.609 -0.1318 -0.4703  0.3708
13627TIP3   OH262371   6.020   4.145  10.702  0.1729 -0.0631  0.4200
13627TIP3    H162372   5.958   4.152  10.775 -0.2049  1.2508  0.0015
13627TIP3    H262373   6.070   4.227  10.705  1.9452 -1.0956  0.7527
13628TIP3   OH262374   3.350   3.403  11.185 -0.3181  0.0598 -0.4419
13628TIP3    H162375   3.366   3.493  11.159 -0.1733 -0.1555 -1.1308
13628TIP3    H262376   3.406   3.351  11.127  0.2067 -0.4300  0.4842
13629TIP3   OH262377   5.201   6.332  15.071 -0.5400 -0.0593  0.1903
13629TIP3    H162378   5.258   6.255  15.066  0.3081  0.6356 -2.4964
13629TIP3    H262379   5.113   6.296  15.078 -0.0315 -1.2078  0.9914
13630TIP3   OH262380   5.093   2.567  11.862 -0.4285 -0.7957 -0.3586
13630TIP3    H162381   5.033   2.591  11.792 -0.6625 -0.2473  0.0226
13630TIP3    H262382   5.135   2.650  11.887 -1.3368 -0.7356  1.0703
13631TIP3   OH262383   0.643   4.725   2.223 -0.0853 -0.4766 -0.2701
13631TIP3    H162384   0.698   4.668   2.276 -1.7068 -2.0729 -0.1834
13631TIP3    H262385   0.633   4.805   2.275 -2.1125 -2.2168  2.2334
13632TIP3   OH262386   0.652   2.518   3.869  0.3697 -0.2289 -0.5515
13632TIP3    H162387   0.646   2.576   3.944  0.9410 -0.8855  0.0155
13632TIP3    H262388   0.566   2.522   3.828  0.3524  0.8748 -0.4281
13633TIP3   OH262389   4.158   1.078  10.457 -0.6658 -0.1894  0.8300
13633TIP3    H162390   4.067   1.081  10.486 -0.6469  1.0301  0.7968
13633TIP3    H262391   4.183   1.169  10.447  0.8794 -0.4728  1.7914
13634TIP3   OH262392   1.431   5.267   0.892  0.2375  0.3488 -0.8379
13634TIP3    H162393   1.438   5.171   0.891 -1.4814  0.1641  0.1498
13634TIP3    H262394   1.447   5.293   0.802 -1.1426 -1.0816 -1.5486
13635TIP3   OH262395   4.750   0.340   4.661 -0.0539 -0.4098 -0.4739
13635TIP3    H162396   4.821   0.300   4.610  1.7007 -0.8374  2.0881
13635TIP3    H262397   4.685   0.271   4.671  0.8763 -1.2235  0.1334
13636TIP3   OH262398   5.638   4.723   0.229 -0.0474  0.2169 -0.2476
13636TIP3    H162399   5.681   4.809   0.230  0.0135  0.2021  0.9558
13636TIP3    H262400   5.711   4.661   0.220  0.0619  0.2477  0.3560
13637TIP3   OH262401   5.280   3.994  14.564 -0.0136  0.0395  0.0338
13637TIP3    H162402   5.365   4.020  14.528 -0.7687  0.7542 -1.3489
13637TIP3    H262403   5.239   3.944  14.493 -0.2196 -1.4936  1.1811
13638TIP3   OH262404   1.649   1.746  13.016 -0.1098  0.3614  0.1844
13638TIP3    H162405   1.710   1.819  13.004 -2.6824  2.8672  1.2382
13638TIP3    H262406   1.626   1.719  12.927  2.2301 -0.5404 -0.2445
13639TIP3   OH262407   5.936   1.237   4.056  0.3621  0.4025  0.3320
13639TIP3    H162408   5.889   1.320   4.066 -0.9726 -0.5157  2.8976
13639TIP3    H262409   6.014   1.247   4.110  1.9460  1.0431 -1.9461
13640TIP3   OH262410   1.604   0.993  15.708  0.6961  0.2879 -0.0540
13640TIP3    H162411   1.651   1.051  15.648  3.4778 -1.5430  0.1455
13640TIP3    H262412   1.666   0.979  15.780 -0.4761 -1.6979  0.6375
13641TIP3   OH262413   3.237   4.892  13.377  0.3298 -0.1912  0.2457
13641TIP3    H162414   3.267   4.850  13.296 -1.5931  0.5564 -0.9193
13641TIP3    H262415   3.242   4.985  13.359 -1.1274 -0.0223  0.5668
13642TIP3   OH262416   6.689   5.153   2.584  0.0584  0.2282 -0.5448
13642TIP3    H162417   6.731   5.070   2.607 -0.0615  0.5107  0.8187
13642TIP3    H262418   6.752   5.197   2.528 -0.2535 -1.1507 -2.0508
13643TIP3   OH262419   1.651   5.111   1.149 -0.0716  0.0144 -0.4210
13643TIP3    H162420   1.576   5.117   1.208 -0.2796 -1.2503 -0.5175
13643TIP3    H262421   1.651   5.020   1.120  2.7242 -0.6659  1.2262
13644TIP3   OH262422   6.369   5.314   5.570  0.0706 -0.3441  0.1543
13644TIP3    H162423   6.427   5.388   5.551  1.1042 -0.8630  1.1181
13644TIP3    H262424   6.310   5.309   5.495  2.5437 -0.9966 -1.8985
13645TIP3   OH262425   4.381   1.377   0.366  0.3039  0.6014  0.1059
13645TIP3    H162426   4.467   1.337   0.348  0.5739  1.8170 -1.6020
13645TIP3    H262427   4.384   1.400   0.458  1.0979 -1.0194  0.5287
13646TIP3   OH262428   3.273   2.300   2.431 -0.0570 -0.1357  0.4497
13646TIP3    H162429   3.339   2.307   2.362  0.6307  1.4523  1.2308
13646TIP3    H262430   3.204   2.361   2.405 -0.6412 -0.8495  0.2832
13647TIP3   OH262431   0.308   5.789  15.930  0.4502  0.6631 -0.2356
13647TIP3    H162432   0.230   5.841  15.951 -0.8957 -0.6131 -1.8151
13647TIP3    H262433   0.351   5.838  15.860  1.3056  1.5513  0.8793
13648TIP3   OH262434   0.072   2.433   5.631  0.1141 -0.4636 -0.1136
13648TIP3    H162435   0.119   2.487   5.567 -1.3096 -2.0457 -2.6901
13648TIP3    H262436  -0.018   2.431   5.598 -0.3759 -2.4909  1.1893
13649TIP3   OH262437   5.068   1.682   0.174  0.4718 -0.3992 -0.1971
13649TIP3    H162438   4.981   1.722   0.173  0.1116 -1.1826 -1.0579
13649TIP3    H262439   5.106   1.709   0.258  0.1391  1.5159 -0.6185
13650TIP3   OH262440   5.560   1.761   2.996  0.2187 -0.1564  0.1233
13650TIP3    H162441   5.637   1.707   3.013 -0.1327  0.0011  2.4128
13650TIP3    H262442   5.486   1.708   3.024 -0.1759  1.2480  1.9025
13651TIP3   OH262443   2.488   1.282  15.758  0.1021 -0.0844  0.4037
13651TIP3    H162444   2.566   1.337  15.753 -1.1376  1.6670 -0.8439
13651TIP3    H262445   2.424   1.336  15.804 -0.5761 -1.2993  0.9399
13652TIP3   OH262446   3.342   1.722  14.533 -1.0290  0.1501  0.5703
13652TIP3    H162447   3.255   1.702  14.500 -0.1464 -1.1006 -1.1605
13652TIP3    H262448   3.332   1.803  14.582 -2.6047  1.7867 -2.2113
13653TIP3   OH262449   1.928   3.290   1.590 -0.1262  0.1969 -0.1657
13653TIP3    H162450   1.872   3.256   1.660 -1.2126  0.1081 -1.0402
13653TIP3    H262451   2.008   3.238   1.595 -0.2254  0.1297  0.9385
13654TIP3   OH262452   2.856   1.728  15.457 -0.4039 -0.1703 -0.2128
13654TIP3    H162453   2.879   1.721  15.550  0.2857 -2.2532 -0.4862
13654TIP3    H262454   2.902   1.806  15.427  0.7739 -0.4262  0.8395
13655TIP3   OH262455   3.662   6.821   4.185 -0.7100  0.4458  0.2609
13655TIP3    H162456   3.745   6.812   4.138 -1.8713  0.4127 -1.9043
13655TIP3    H262457   3.669   6.758   4.256  0.6106 -0.5111 -0.6557
13656TIP3   OH262458   6.421   0.119  10.369  0.4333 -0.0119 -0.5676
13656TIP3    H162459   6.345   0.162  10.329 -0.2159 -0.6085  0.0101
13656TIP3    H262460   6.490   0.186  10.366 -0.1526  0.5889 -0.9600
13657TIP3   OH262461   2.421   3.629  13.418 -0.1450 -0.0365  0.3207
13657TIP3    H162462   2.384   3.544  13.395 -0.6563  0.5130 -0.9599
13657TIP3    H262463   2.495   3.640  13.358 -0.4151  0.6510  0.1086
13658TIP3   OH262464   2.951   2.098  11.476  0.1022  0.3424  0.1753
13658TIP3    H162465   2.860   2.099  11.449  0.3094  0.0243 -0.5407
13658TIP3    H262466   2.947   2.099  11.572 -0.6773 -0.9717  0.1751
13659TIP3   OH262467   1.418   1.440  11.242 -0.3481  0.0486 -0.4872
13659TIP3    H162468   1.327   1.458  11.264 -0.9365 -3.3862  0.6292
13659TIP3    H262469   1.413   1.370  11.176  1.5014  0.8457 -1.5369
13660TIP3   OH262470   0.551   6.842   6.681  0.5326 -0.0443 -0.1908
13660TIP3    H162471   0.477   6.890   6.718 -1.2014 -0.8059 -2.4046
13660TIP3    H262472   0.597   6.906   6.627  0.4979  0.0639 -0.0901
13661TIP3   OH262473   4.349   3.355   0.690 -0.1741 -0.0435  0.2987
13661TIP3    H162474   4.379   3.265   0.682 -0.8033 -0.1877 -0.5425
13661TIP3    H262475   4.264   3.349   0.734  0.1824  0.2137  1.0316
13662TIP3   OH262476   0.500   5.783   3.632 -0.0546 -0.2811  0.2813
13662TIP3    H162477   0.435   5.851   3.612  0.4177  0.1135  0.0700
13662TIP3    H262478   0.493   5.721   3.559 -0.4487 -0.4323  0.4465
13663TIP3   OH262479   3.841   6.427   4.705 -0.9611 -0.0851 -0.4435
13663TIP3    H162480   3.777   6.356   4.700 -1.4207  0.2713  0.2843
13663TIP3    H262481   3.852   6.455   4.614  0.1531 -1.8775 -0.9198
13664TIP3   OH262482   5.265   5.550   2.802  0.5805  0.9080  0.9255
13664TIP3    H162483   5.274   5.482   2.735 -1.0191  0.6477  0.9406
13664TIP3    H262484   5.310   5.626   2.764  2.7750 -0.2129  1.0870
13665TIP3   OH262485   1.837   6.801  16.291 -0.8885 -0.3650  0.5253
13665TIP3    H162486   1.917   6.845  16.263 -1.2595  0.1223  0.2178
13665TIP3    H262487   1.793   6.777  16.210 -1.7492  0.6557  0.6657
13666TIP3   OH262488   4.748   6.287   1.718  0.1991 -0.6775  0.0901
13666TIP3    H162489   4.726   6.380   1.718  0.4282 -0.6175  0.6044
13666TIP3    H262490   4.700   6.251   1.793  0.2390 -0.9395 -0.0098
13667TIP3   OH262491   3.689   1.558  15.121 -0.0794 -0.4284  0.0044
13667TIP3    H162492   3.767   1.578  15.069  1.3151  1.1313  2.4757
13667TIP3    H262493   3.657   1.644  15.149 -1.0428 -1.1701  1.2866
13668TIP3   OH262494   4.217   0.819  11.949  0.2544 -0.4177  0.4357
13668TIP3    H162495   4.237   0.881  11.879 -0.3272 -1.2627 -0.4981
13668TIP3    H262496   4.178   0.873  12.018  1.4715  0.5256  0.4212
13669TIP3   OH262497   0.986   6.301  14.037  0.3830  0.3949  0.0906
13669TIP3    H162498   0.946   6.327  13.954 -2.4534 -0.5019  1.0633
13669TIP3    H262499   0.956   6.210  14.050  1.9931  0.0200  1.3994
13670TIP3   OH262500   1.336   3.068   2.907 -0.2601  0.2225 -0.5809
13670TIP3    H162501   1.373   2.998   2.961 -0.2934 -0.2994 -1.2189
13670TIP3    H262502   1.373   3.054   2.820 -1.1899  0.2759 -1.0003
13671TIP3   OH262503   1.254   2.770  16.439  0.4058  0.1575 -0.9889
13671TIP3    H162504   1.278   2.826  16.366  0.0388 -1.1845 -2.1886
13671TIP3    H262505   1.182   2.716  16.406  0.0928 -0.3453  0.4265
13672TIP3   OH262506   0.268   0.042  15.786  1.1004 -0.7976 -0.5342
13672TIP3    H162507   0.285  -0.029  15.724 -0.0847 -1.3176 -0.2915
13672TIP3    H262508   0.203   0.097  15.743  0.1243 -1.2647  0.2883
13673TIP3   OH262509   0.008   2.316   3.591 -0.0983 -0.3817  0.0627
13673TIP3    H162510   0.003   2.249   3.523 -1.0216  0.2649 -0.5213
13673TIP3    H262511   0.102   2.333   3.601  0.1242 -1.5006 -0.0270
13674TIP3   OH262512   0.325   3.969  16.066  0.7563 -0.7446 -0.0189
13674TIP3    H162513   0.358   3.895  16.117  1.3826 -0.5049 -0.0568
13674TIP3    H262514   0.234   3.947  16.046  0.7639 -1.2318  0.4671
13675TIP3   OH262515   3.273   4.163  16.320 -0.6134  0.0219 -0.1591
13675TIP3    H162516   3.280   4.154  16.225 -3.1977  3.2192 -0.8180
13675TIP3    H262517   3.179   4.156  16.338 -0.2442  0.0718  2.1040
13676TIP3   OH262518   6.379   3.307  13.282  0.4937  0.6608  0.4320
13676TIP3    H162519   6.464   3.272  13.310  0.2442 -0.0267  0.3539
13676TIP3    H262520   6.398   3.354  13.202  0.6658 -0.3209 -0.1261
13677TIP3   OH262521   4.667   0.274   5.755 -0.6903  0.9914  0.2376
13677TIP3    H162522   4.669   0.285   5.850  0.5099  0.1581  0.3204
13677TIP3    H262523   4.754   0.302   5.726  0.3084 -2.1636 -0.1866
13678TIP3   OH262524   6.029   0.322  16.508  0.2321 -0.4264  0.5764
13678TIP3    H162525   6.001   0.402  16.551  1.5656 -0.2003  1.0880
13678TIP3    H262526   6.000   0.332  16.417 -1.3732 -0.2849  1.0785
13679TIP3   OH262527   6.838   5.924  14.734 -0.2770  0.3406 -0.4753
13679TIP3    H162528   6.859   5.864  14.806  0.4503 -0.1290 -1.0669
13679TIP3    H262529   6.772   5.877  14.682 -2.2667  1.4607  0.9042
13680TIP3   OH262530   3.613   5.338   5.749  0.1510 -0.8642  0.3685
13680TIP3    H162531   3.540   5.350   5.809  1.1120 -1.6049  1.7159
13680TIP3    H262532   3.603   5.249   5.716 -0.3720 -0.4632 -0.6123
13681TIP3   OH262533   4.883   1.659  16.952  0.0519 -0.2160  0.6035
13681TIP3    H162534   4.835   1.589  16.997  2.2547 -1.7153  0.7539
13681TIP3    H262535   4.962   1.673  17.004  0.6080  1.0390 -0.4872
13682TIP3   OH262536   5.494   2.278  15.842  0.1569 -0.3019 -0.3680
13682TIP3    H162537   5.541   2.328  15.908  0.2326 -0.1794 -0.5141
13682TIP3    H262538   5.452   2.344  15.787 -0.3028 -0.4139 -0.1553
13683TIP3   OH262539   6.006   4.714  16.301 -0.6975  0.0913  0.1057
13683TIP3    H162540   6.015   4.718  16.396 -0.6135  0.7505  0.0766
13683TIP3    H262541   5.914   4.737  16.284 -0.6262  0.3127  0.0113
13684TIP3   OH262542   6.825   6.570   5.144 -0.3729  0.1140  0.1635
13684TIP3    H162543   6.811   6.532   5.231  0.9273  0.1367  0.4176
13684TIP3    H262544   6.891   6.638   5.159 -1.3539  1.2647 -0.5815
13685TIP3   OH262545   6.627   6.562  15.056 -0.3585  0.0702 -0.3437
13685TIP3    H162546   6.703   6.608  15.021 -0.4885  0.9685  0.5194
13685TIP3    H262547   6.582   6.626  15.111  1.0616 -1.8112  3.3591
13686TIP3   OH262548   3.916   1.446  15.701 -0.1625 -0.1217 -0.0125
13686TIP3    H162549   3.861   1.508  15.749 -0.5542 -0.5696  0.1265
13686TIP3    H262550   3.963   1.500  15.638  0.7242  0.5375  1.1864
13687TIP3   OH262551   0.152   0.414   1.235 -0.5497  0.5287  0.2350
13687TIP3    H162552   0.179   0.323   1.232  2.0325  1.1541  1.3842
13687TIP3    H262553   0.153   0.443   1.144  0.3755 -0.1518  0.0161
13688TIP3   OH262554   2.372   0.275  13.331 -1.1298 -0.2085 -0.1676
13688TIP3    H162555   2.431   0.285  13.406 -0.7713 -1.9946 -0.1514
13688TIP3    H262556   2.423   0.303  13.256 -0.5824 -0.7838 -0.0245
13689TIP3   OH262557   1.320   1.521   5.885  0.2029  0.0126  0.3279
13689TIP3    H162558   1.225   1.523   5.898  0.0369 -0.4190 -0.7438
13689TIP3    H262559   1.356   1.528   5.973 -0.8420 -1.1318  0.8708
13690TIP3   OH262560   5.456   6.254   2.833 -0.1001  0.2067  0.6514
13690TIP3    H162561   5.385   6.306   2.869  1.2335  0.8448  2.5604
13690TIP3    H262562   5.534   6.309   2.841  0.7860 -0.7817 -0.5460
13691TIP3   OH262563   5.952   3.175   3.706 -0.0954  0.1514 -0.2422
13691TIP3    H162564   5.973   3.110   3.773 -0.1563  1.6153  1.2587
13691TIP3    H262565   5.949   3.125   3.624  0.5307 -1.5939  0.7506
13692TIP3   OH262566   2.363   5.592  16.720 -0.1988  0.0670  0.1483
13692TIP3    H162567   2.278   5.637  16.724 -0.7598 -0.9787  0.4901
13692TIP3    H262568   2.395   5.594  16.810 -0.4626 -0.6342  0.2643
13693TIP3   OH262569   2.646   5.472   1.514  0.4025  0.4015 -0.0898
13693TIP3    H162570   2.728   5.449   1.469  0.5059  1.4960 -0.4802
13693TIP3    H262571   2.672   5.528   1.587  0.0010  0.8228 -0.2621
13694TIP3   OH262572   5.357   6.619   5.711 -0.1508  0.1285 -0.4125
13694TIP3    H162573   5.388   6.636   5.800  1.6973  0.2641 -1.0442
13694TIP3    H262574   5.434   6.587   5.664 -1.0291  0.2889 -2.0389
13695TIP3   OH262575   5.826   1.171  10.915  0.0411  0.1008  0.0065
13695TIP3    H162576   5.902   1.217  10.878 -0.1795  0.5263  0.0717
13695TIP3    H262577   5.751   1.207  10.866 -0.0571 -0.8013 -0.5275
13696TIP3   OH262578   5.361   6.153  15.930 -0.3794 -0.1433 -0.2826
13696TIP3    H162579   5.296   6.182  15.995  0.4662  0.8624  0.1414
13696TIP3    H262580   5.401   6.075  15.969 -1.0723 -0.5755 -0.3999
13697TIP3   OH262581   3.894   1.053  12.142 -0.7585  0.5027  0.1245
13697TIP3    H162582   3.866   1.139  12.173 -0.8563  0.7420 -0.6218
13697TIP3    H262583   3.813   1.007  12.122 -0.8695 -0.6961  2.8654
13698TIP3   OH262584   6.463   1.890   5.886 -0.3609 -0.2683  0.5789
13698TIP3    H162585   6.519   1.967   5.881 -0.3996 -0.2454  0.4830
13698TIP3    H262586   6.471   1.850   5.799 -0.5326 -0.2372  0.5493
13699TIP3   OH262587   4.714   1.127  16.202  0.3798 -0.3174  0.5980
13699TIP3    H162588   4.636   1.157  16.249 -0.7248 -0.8181 -0.8584
13699TIP3    H262589   4.737   1.044  16.245 -0.8765 -0.9876  0.0277
13700TIP3   OH262590   4.780   4.949  11.747 -0.2339 -0.1644 -0.0170
13700TIP3    H162591   4.685   4.953  11.758 -0.2186 -0.4613  0.2676
13700TIP3    H262592   4.811   4.903  11.826  0.1490 -0.0171 -0.0777
13701TIP3   OH262593   2.075   0.642  15.004 -0.3945 -0.8426 -0.4842
13701TIP3    H162594   2.148   0.643  14.942  1.0278 -1.8177  1.0961
13701TIP3    H262595   2.044   0.551  15.004  0.1364 -1.0350  0.7901
13702TIP3   OH262596   6.137   2.339  14.810  0.8735 -0.2176  0.0867
13702TIP3    H162597   6.200   2.315  14.742  0.6618 -0.1056 -0.1513
13702TIP3    H262598   6.053   2.343  14.764  1.2010  3.3213 -0.4466
13703TIP3   OH262599   4.540   2.787  13.905 -0.7411  0.4556 -0.0869
13703TIP3    H162600   4.483   2.791  13.828 -2.1174  0.2089  0.8821
13703TIP3    H262601   4.545   2.878  13.935  1.8355  0.9998 -1.8297
13704TIP3   OH262602   3.458   0.985  11.620 -0.0009 -0.1940 -0.1866
13704TIP3    H162603   3.364   0.999  11.616 -0.0380 -0.1583  0.6508
13704TIP3    H262604   3.492   1.021  11.538 -0.8489 -1.3510 -1.0790
13705TIP3   OH262605   0.955   3.178   0.856 -0.2270 -0.1330 -0.3744
13705TIP3    H162606   0.980   3.180   0.948 -2.0613  1.5071  0.1536
13705TIP3    H262607   1.039   3.181   0.808  0.7273 -0.4858  1.2054
13706TIP3   OH262608   5.875   1.049   1.868  0.0399 -0.2645  0.4956
13706TIP3    H162609   5.879   0.955   1.886 -0.6917 -0.4374 -0.1815
13706TIP3    H262610   5.833   1.086   1.946 -1.2046 -0.7343  0.0745
13707TIP3   OH262611   4.364   2.198  11.668 -0.0156  0.5591 -0.4937
13707TIP3    H162612   4.334   2.188  11.578 -1.2993 -1.5538  0.0819
13707TIP3    H262613   4.285   2.221  11.717  0.7495  2.1576  0.0596
13708TIP3   OH262614   1.757   4.133  15.670  0.1052  0.3099  0.0945
13708TIP3    H162615   1.736   4.047  15.705  0.6717 -1.0017 -2.5882
13708TIP3    H262616   1.672   4.171  15.647 -0.0973  0.1926  0.6322
13709TIP3   OH262617   1.174   4.185   2.866  0.1169  0.0838 -0.4115
13709TIP3    H162618   1.204   4.133   2.941  0.7898  0.8126 -0.1535
13709TIP3    H262619   1.105   4.132   2.826  1.2241 -1.3036 -0.5646
13710TIP3   OH262620   3.639   4.090  11.505 -0.2559 -0.5239 -0.3876
13710TIP3    H162621   3.682   4.176  11.508 -1.3647  0.0664 -0.6773
13710TIP3    H262622   3.655   4.058  11.417  1.7627 -1.5003  0.2820
13711TIP3   OH262623   4.128   4.871  13.967  0.1449  0.1066 -0.1635
13711TIP3    H162624   4.133   4.884  13.873  1.5157  1.0761  0.0243
13711TIP3    H262625   4.068   4.939  13.998 -1.0432 -0.7987 -0.4269
13712TIP3   OH262626   3.836   5.251  15.772  0.4977 -0.0340 -0.2248
13712TIP3    H162627   3.834   5.294  15.858  2.8982  2.7426 -1.3684
13712TIP3    H262628   3.767   5.295  15.721 -0.0503 -0.7531 -0.1096
13713TIP3   OH262629   6.727   0.079   4.137 -0.2319  0.2508 -0.1674
13713TIP3    H162630   6.659   0.011   4.142 -0.2060  0.2976  1.2802
13713TIP3    H262631   6.808   0.031   4.118  0.1362 -0.4536  2.6766
13714TIP3   OH262632   2.419   4.832   2.851 -0.8328  0.1191  0.5240
13714TIP3    H162633   2.481   4.768   2.886  0.2738  0.6528 -0.4009
13714TIP3    H262634   2.365   4.855   2.926 -1.0428 -1.6299  0.9551
13715TIP3   OH262635   3.567   2.473  14.468 -0.2322 -0.3226 -0.0594
13715TIP3    H162636   3.519   2.553  14.450  0.8032  0.0271 -1.3915
13715TIP3    H262637   3.652   2.502  14.501 -0.3227 -0.9064  0.7361
13716TIP3   OH262638   1.245   2.439  16.750 -0.3696 -0.0221 -0.1194
13716TIP3    H162639   1.296   2.507  16.705  1.0156 -1.1430 -0.3049
13716TIP3    H262640   1.189   2.402  16.681 -1.4880  1.1898  0.0792
13717TIP3   OH262641   6.517   5.991  10.767 -0.0503  0.0261 -0.5702
13717TIP3    H162642   6.611   5.984  10.783  0.2342  1.4122 -1.4673
13717TIP3    H262643   6.481   6.031  10.846  0.1786 -0.1522 -0.3773
13718TIP3   OH262644   4.470   2.308  16.566 -0.3642 -0.0735  0.0968
13718TIP3    H162645   4.477   2.299  16.661  1.6488 -0.0628 -0.0208
13718TIP3    H262646   4.378   2.331  16.551 -0.8847 -0.7860  1.9713
13719TIP3   OH262647   1.150   1.252   0.765  0.2620 -0.1198  0.1682
13719TIP3    H162648   1.165   1.203   0.845  1.4217  1.1012  0.7410
13719TIP3    H262649   1.079   1.313   0.787 -0.5032 -0.8446 -0.2391
13720TIP3   OH262650   0.089   6.717   5.594 -0.1804  0.0144  0.1427
13720TIP3    H162651   0.065   6.801   5.633 -0.1156  0.3876 -0.6006
13720TIP3    H262652   0.030   6.708   5.518 -0.4942 -0.8224  0.4689
13721TIP3   OH262653   3.754   4.977  16.240  0.0137  0.2927 -0.3209
13721TIP3    H162654   3.787   4.931  16.162  0.3290 -0.0883  0.0333
13721TIP3    H262655   3.832   4.995  16.292 -0.0476  1.7036 -0.6933
13722TIP3   OH262656   6.151   5.215  15.714 -0.6253 -0.5927  0.2802
13722TIP3    H162657   6.155   5.132  15.665  1.5507 -0.2276 -0.2724
13722TIP3    H262658   6.144   5.188  15.806 -1.0306 -1.3526  0.0349
13723TIP3   OH262659   0.259   5.173  15.926  0.4958  0.5383 -0.9008
13723TIP3    H162660   0.298   5.153  16.011 -0.1528  0.7057 -0.5570
13723TIP3    H262661   0.208   5.253  15.942 -1.0300 -0.3814 -1.0198
13724TIP3   OH262662   4.934   3.017  17.049 -0.2734 -0.6498  0.2514
13724TIP3    H162663   4.884   3.020  17.130 -0.6166 -1.7318  0.1051
13724TIP3    H262664   5.012   3.070  17.067  0.3540 -1.9647  1.8061
13725TIP3   OH262665   5.553   0.471   4.877  0.1347  0.7814 -0.1491
13725TIP3    H162666   5.539   0.470   4.782  1.4312  2.9349 -0.4149
13725TIP3    H262667   5.470   0.439   4.913 -0.7151  0.7814 -1.9721
13726TIP3   OH262668   1.796   1.118  12.173  0.4851 -0.3747  0.4413
13726TIP3    H162669   1.876   1.065  12.169  1.0377  0.4999 -2.9701
13726TIP3    H262670   1.825   1.206  12.150 -1.3134  0.1779  0.1656
13727TIP3   OH262671   6.755   5.429  12.788  0.7504 -0.6934  0.1749
13727TIP3    H162672   6.831   5.440  12.844  1.1895 -1.3261 -0.2917
13727TIP3    H262673   6.748   5.335  12.773 -0.4172 -0.7002  0.6128
13728TIP3   OH262674   6.438   0.180  14.664  0.2016 -0.0044 -0.4387
13728TIP3    H162675   6.349   0.214  14.660 -0.1756 -0.8525  0.3421
13728TIP3    H262676   6.443   0.115  14.595  0.7300  1.1452 -1.5231
13729TIP3   OH262677   3.754   0.332   1.943  0.1545  0.3950 -0.5991
13729TIP3    H162678   3.712   0.246   1.936 -0.2317  0.5642 -0.3515
13729TIP3    H262679   3.822   0.330   1.875 -0.4003  0.2097 -1.1580
13730TIP3   OH262680   3.941   0.329  11.432  0.2803  1.1307  0.0125
13730TIP3    H162681   3.976   0.277  11.504  0.4201 -0.5718 -1.2317
13730TIP3    H262682   4.010   0.392  11.412  1.1200  0.2336  0.0028
13731TIP3   OH262683   5.329   4.639  15.247  0.4534 -0.5987  0.0296
13731TIP3    H162684   5.252   4.669  15.296  1.4573  0.9511  0.7190
13731TIP3    H262685   5.383   4.595  15.313  2.0904  2.0149  0.5471
13732TIP3   OH262686   2.479   4.825   2.547  0.0121  0.3532  0.3380
13732TIP3    H162687   2.398   4.863   2.515  0.4984  3.0097  2.0189
13732TIP3    H262688   2.470   4.823   2.642 -0.0871 -4.2796  0.4520
13733TIP3   OH262689   4.941   3.744   0.549 -0.1135 -0.5189 -0.2180
13733TIP3    H162690   4.847   3.755   0.534 -0.0149  3.1651  0.7555
13733TIP3    H262691   4.981   3.814   0.498  1.6521  0.7870  2.6861
13734TIP3   OH262692   5.593   1.910  14.362  0.5315 -0.0411  0.2093
13734TIP3    H162693   5.522   1.896  14.300  1.9807 -2.1723 -1.1316
13734TIP3    H262694   5.582   2.000  14.392 -0.8823  0.7252 -2.3266
13735TIP3   OH262695   3.495   1.176  12.791 -0.5803 -0.1174 -0.1727
13735TIP3    H162696   3.494   1.117  12.867  3.6245 -0.6883 -0.2950
13735TIP3    H262697   3.572   1.148  12.741 -2.0967  1.4680 -3.7162
13736TIP3   OH262698   1.328   0.736   5.596  0.4002 -0.2380 -0.1881
13736TIP3    H162699   1.376   0.776   5.523 -0.8360  0.7779 -0.4946
13736TIP3    H262700   1.273   0.807   5.629 -1.2098 -1.4483 -0.1593
13737TIP3   OH262701   0.607   5.589  10.791 -0.4114 -0.4788  0.2875
13737TIP3    H162702   0.695   5.622  10.810 -0.6882  0.8079 -0.4883
13737TIP3    H262703   0.589   5.526  10.861  0.7652 -0.0885  0.9779
13738TIP3   OH262704   0.089   4.811  11.206 -0.1326  0.0203 -0.1624
13738TIP3    H162705   0.155   4.875  11.232 -1.4556  1.1243  0.6387
13738TIP3    H262706   0.099   4.739  11.269 -0.1249  0.4856  0.3787
13739TIP3   OH262707   3.449   2.848  11.219  0.2812 -0.1141  0.2013
13739TIP3    H162708   3.423   2.932  11.181 -1.1592 -0.5678  0.1426
13739TIP3    H262709   3.385   2.831  11.288 -2.0166 -3.0268 -2.3532
13740TIP3   OH262710   0.378   0.885  11.320  0.2195  0.1057  0.8135
13740TIP3    H162711   0.449   0.848  11.267 -1.0458 -0.3825 -0.6168
13740TIP3    H262712   0.410   0.880  11.410  0.3711 -4.1214  0.7209
13741TIP3   OH262713   4.240   0.474  16.173  0.5227 -0.0460 -0.9021
13741TIP3    H162714   4.169   0.469  16.237 -0.2890 -1.2929 -1.8375
13741TIP3    H262715   4.305   0.532  16.213 -0.4228  0.0594  0.5627
13742TIP3   OH262716   2.509   0.738  11.145 -0.9769 -0.1024  0.7400
13742TIP3    H162717   2.437   0.714  11.087 -0.4498  0.0306  0.0058
13742TIP3    H262718   2.561   0.658  11.153  0.0378  0.3817 -0.6088
13743TIP3   OH262719   1.030   6.123  14.976 -0.2479 -0.0388 -0.4642
13743TIP3    H162720   1.104   6.106  14.917  1.0351 -1.0140  1.3310
13743TIP3    H262721   0.955   6.132  14.917  1.4829  2.7044 -2.5018
13744TIP3   OH262722   1.625   3.762  17.008  0.3570  0.6714  0.3196
13744TIP3    H162723   1.652   3.774  17.099 -2.3870 -0.6747  1.4398
13744TIP3    H262724   1.673   3.686  16.977  1.5026  1.2971  0.5332
13745TIP3   OH262725   4.273   6.325   3.051 -0.2785 -0.3259  0.0944
13745TIP3    H162726   4.258   6.264   3.123 -1.6879 -1.5045 -1.1258
13745TIP3    H262727   4.198   6.385   3.055  0.8904  1.1502  1.0395
13746TIP3   OH262728   4.907   6.777   4.839  0.1327  0.5294 -0.2417
13746TIP3    H162729   4.988   6.736   4.809 -0.0662 -0.5933  0.6421
13746TIP3    H262730   4.873   6.822   4.763  1.4625  0.8230 -0.6974
13747TIP3   OH262731   0.197   0.516  13.989  0.6357 -0.1713  0.1200
13747TIP3    H162732   0.104   0.502  13.975  0.6881  0.0685 -0.5168
13747TIP3    H262733   0.233   0.527  13.901  1.7279 -2.9699  0.1095
13748TIP3   OH262734   0.316   6.020   2.174 -0.0444 -0.5350  0.2675
13748TIP3    H162735   0.272   6.100   2.203  1.5557  0.1611  0.9472
13748TIP3    H262736   0.245   5.961   2.148 -1.3021  2.3050 -3.8095
13749TIP3   OH262737   3.091   1.752   2.478 -0.1187  0.1630 -0.3517
13749TIP3    H162738   3.058   1.666   2.452  0.5210  0.1935 -1.3398
13749TIP3    H262739   3.148   1.734   2.553 -1.4803 -0.0143  0.6793
13750TIP3   OH262740   6.357   3.348   1.566 -0.4202  0.1077  0.1055
13750TIP3    H162741   6.369   3.431   1.519  3.5129  0.3198  1.1863
13750TIP3    H262742   6.347   3.374   1.658 -0.9808 -0.6007  0.2573
13751TIP3   OH262743   4.872   2.431   1.444 -0.2607 -0.0290  0.6819
13751TIP3    H162744   4.837   2.343   1.462 -1.6639 -0.0804 -1.8376
13751TIP3    H262745   4.965   2.417   1.425 -0.3033 -0.8602  1.0531
13752TIP3   OH262746   5.833   0.365  15.326  0.1061 -0.0056 -0.0069
13752TIP3    H162747   5.892   0.415  15.269  0.9670 -0.1633  0.7124
13752TIP3    H262748   5.859   0.274  15.313 -2.6224 -0.5525 -2.6574
13753TIP3   OH262749   0.709   2.489   3.127 -0.0044 -0.1640 -0.3980
13753TIP3    H162750   0.747   2.453   3.207 -1.7536  0.5474  0.8279
13753TIP3    H262751   0.699   2.414   3.069  0.0972 -0.9312  0.5529
13754TIP3   OH262752   4.312   4.710   2.507 -0.7720  0.2809 -0.4809
13754TIP3    H162753   4.336   4.657   2.431 -1.3266  1.1664 -1.3048
13754TIP3    H262754   4.264   4.784   2.469  1.8472  2.5872  0.3743
13755TIP3   OH262755   6.334   1.115   4.917  0.6143  0.0205  0.0498
13755TIP3    H162756   6.258   1.058   4.927  0.1396  0.6438  0.0854
13755TIP3    H262757   6.297   1.202   4.903  1.3125  0.4820  0.9392
13756TIP3   OH262758   0.348   2.784   2.754 -0.1522  0.1681 -0.3370
13756TIP3    H162759   0.423   2.824   2.710 -0.3078  0.4829 -0.3156
13756TIP3    H262760   0.272   2.814   2.704 -0.0938 -2.8293 -2.4932
13757TIP3   OH262761   3.127   0.461  15.024  0.0891  0.3679 -0.1475
13757TIP3    H162762   3.159   0.383  14.978  0.7552  0.7209 -0.3086
13757TIP3    H262763   3.203   0.493  15.072 -0.1286  1.0078 -0.2124
13758TIP3   OH262764   3.589   5.468   0.743 -0.0879  0.6485 -0.0223
13758TIP3    H162765   3.602   5.378   0.712 -2.8811 -0.4255  1.5377
13758TIP3    H262766   3.636   5.471   0.826 -0.3164  0.4892  0.1144
13759TIP3   OH262767   6.640   3.199   1.845  0.4460 -0.9982 -0.3417
13759TIP3    H162768   6.648   3.147   1.925 -0.4301 -1.1323 -0.3274
13759TIP3    H262769   6.579   3.149   1.790 -1.1511  0.4338  0.0447
13760TIP3   OH262770   3.831   3.250  16.443  0.1406  0.2582  0.1214
13760TIP3    H162771   3.839   3.216  16.353 -1.0708  1.3701 -0.4308
13760TIP3    H262772   3.751   3.210  16.476 -1.1574  2.2837 -0.4420
13761TIP3   OH262773   2.741   4.823   2.641  0.8164  0.2026 -0.2513
13761TIP3    H162774   2.646   4.829   2.625  0.8895  1.3008 -0.3470
13761TIP3    H262775   2.761   4.896   2.699  1.9009  1.1467 -1.7388
13762TIP3   OH262776   4.422   4.988   5.534 -0.0474  0.1417  0.3708
13762TIP3    H162777   4.402   4.952   5.447 -0.7003 -0.4711  0.7727
13762TIP3    H262778   4.430   5.082   5.519  0.8089 -0.0489 -0.5284
13763TIP3   OH262779   0.665   4.453   2.612  0.3020 -0.5172  0.4528
13763TIP3    H162780   0.684   4.394   2.539 -0.5693 -0.8154  0.4527
13763TIP3    H262781   0.739   4.440   2.672  1.9290  0.9910 -1.0924
13764TIP3   OH262782   4.260   6.801  12.522 -0.3484  0.3909  0.3620
13764TIP3    H162783   4.344   6.761  12.545 -0.8515 -0.3015  1.0589
13764TIP3    H262784   4.248   6.870  12.588  0.6236  1.8883 -0.9705
13765TIP3   OH262785   0.300   0.315   3.402 -0.0167  0.1153 -0.6257
13765TIP3    H162786   0.295   0.380   3.332 -1.6335  1.6201  0.7542
13765TIP3    H262787   0.237   0.248   3.377  1.2433 -0.6907 -1.7810
13766TIP3   OH262788   2.747   1.064  17.110  0.3602 -0.0687  0.2424
13766TIP3    H162789   2.808   1.013  17.056  0.4409  0.2201  0.0604
13766TIP3    H262790   2.711   1.000  17.171 -0.6181 -0.6543 -0.9165
13767TIP3   OH262791   0.123   6.489  14.318 -0.3202  0.2242  0.7224
13767TIP3    H162792   0.096   6.417  14.261  0.8243  0.2111  0.1721
13767TIP3    H262793   0.187   6.450  14.377  0.7808  0.8996  0.0120
13768TIP3   OH262794   5.053   1.564   6.471 -0.1869  0.3589 -0.1154
13768TIP3    H162795   4.977   1.519   6.435 -0.5612 -0.6536  1.7730
13768TIP3    H262796   5.113   1.494   6.495  0.9767  1.1043 -0.7474
13769TIP3   OH262797   3.510   6.052   4.182  0.4527  0.4910 -0.1416
13769TIP3    H162798   3.503   6.065   4.277 -0.0219  0.3750 -0.1551
13769TIP3    H262799   3.419   6.056   4.151  0.5756  0.1875 -0.5443
13770TIP3   OH262800   3.719   5.479   0.341 -0.1561 -0.0849  0.3685
13770TIP3    H162801   3.775   5.417   0.387 -1.0502 -1.3228 -0.1532
13770TIP3    H262802   3.770   5.505   0.264 -0.4218 -1.4894 -0.3016
13771TIP3   OH262803   6.286   4.316   0.587  0.4034 -0.0885 -0.4911
13771TIP3    H162804   6.287   4.324   0.492 -0.9328  1.2846 -0.4318
13771TIP3    H262805   6.193   4.318   0.610  0.7334  0.6190  0.8983
13772TIP3   OH262806   2.738   5.973   0.951 -0.2227 -0.1196 -0.5644
13772TIP3    H162807   2.715   5.886   0.984  1.0152  0.1436  1.0928
13772TIP3    H262808   2.694   5.978   0.866 -2.2160 -1.4433  0.3150
13773TIP3   OH262809   1.388   0.914  15.878  0.0798 -0.0400  0.1628
13773TIP3    H162810   1.405   0.990  15.934  0.6387  0.4875 -0.6956
13773TIP3    H262811   1.443   0.929  15.801  1.6844 -2.2389  0.7848
13774TIP3   OH262812   3.156   2.233   5.551  0.0627 -0.7130  0.4240
13774TIP3    H162813   3.173   2.148   5.592 -0.3380 -0.7932  0.4252
13774TIP3    H262814   3.144   2.213   5.458 -0.3603 -0.7030  0.4736
13775TIP3   OH262815   4.610   1.040  16.871  0.5323 -0.4943 -0.2187
13775TIP3    H162816   4.686   1.068  16.921  0.2795  1.0985 -0.6813
13775TIP3    H262817   4.544   1.020  16.937  1.1632 -1.4052  0.1634
13776TIP3   OH262818   0.527   1.513   5.836  0.5106 -0.5250 -0.1420
13776TIP3    H162819   0.503   1.581   5.900  2.2820  0.6766 -0.6577
13776TIP3    H262820   0.445   1.468   5.816 -0.6622  1.1811  0.5769
13777TIP3   OH262821   2.477   1.236  16.673 -0.2557 -0.0366 -0.2574
13777TIP3    H162822   2.523   1.319  16.665 -0.8414  0.3541  0.2676
13777TIP3    H262823   2.404   1.243  16.610 -0.0371 -0.3414 -0.5435
13778TIP3   OH262824   4.079   6.511  12.355 -0.5739 -0.1551 -0.1579
13778TIP3    H162825   4.111   6.580  12.298  0.6697  0.1655  0.8825
13778TIP3    H262826   4.129   6.521  12.436 -1.7456 -1.0586  0.7286
13779TIP3   OH262827   6.058   2.722   2.617  0.4001  0.3571  0.5702
13779TIP3    H162828   6.038   2.797   2.672  3.0146  2.4018 -1.0488
13779TIP3    H262829   6.028   2.748   2.529 -0.0059 -1.1503  0.2233
13780TIP3   OH262830   2.856   5.603  15.545  0.1644  0.1235  0.0129
13780TIP3    H162831   2.889   5.690  15.525 -1.4823  0.3095 -2.3954
13780TIP3    H262832   2.885   5.549  15.471 -0.7135 -0.8476  0.3494
13781TIP3   OH262833   6.474   0.403  12.666  0.3030  0.5529 -0.2276
13781TIP3    H162834   6.499   0.400  12.573  0.3264 -0.4168 -0.2016
13781TIP3    H262835   6.399   0.342  12.672  0.5792  0.2779  0.4640
13782TIP3   OH262836   0.920   1.305   6.378  0.3569 -0.3140  0.3551
13782TIP3    H162837   1.009   1.339   6.371 -0.5452  1.9789 -1.2546
13782TIP3    H262838   0.928   1.228   6.433  2.5397  2.7489  4.9122
13783TIP3   OH262839   3.459   6.060  13.396 -0.4331 -0.6205 -0.2959
13783TIP3    H162840   3.551   6.041  13.379 -0.3421 -0.8601  0.4431
13783TIP3    H262841   3.416   5.975  13.393 -0.1472 -0.9077  2.2531
13784TIP3   OH262842   0.064   5.354   5.462  0.3944 -0.3526  0.0895
13784TIP3    H162843   0.104   5.267   5.470  1.3061  0.0980  0.5287
13784TIP3    H262844   0.032   5.375   5.549  2.0524  0.6217  0.5083
13785TIP3   OH262845   6.469   2.637   3.977 -0.4737 -0.1189  0.2820
13785TIP3    H162846   6.472   2.700   4.049 -0.6757 -1.0768  1.1592
13785TIP3    H262847   6.382   2.597   3.984 -1.4961  1.4766 -2.0235
13786TIP3   OH262848   2.906   6.158   3.106  0.4614  0.7034  0.8518
13786TIP3    H162849   2.898   6.153   3.201  0.9466  2.7390  1.0558
13786TIP3    H262850   2.834   6.106   3.072 -0.6956  1.2678  2.3593
13787TIP3   OH262851   4.485   2.397  13.469 -0.0742 -0.0094  0.0102
13787TIP3    H162852   4.523   2.312  13.452 -2.8605 -1.6768  1.3953
13787TIP3    H262853   4.489   2.406  13.564 -0.0261  1.3375 -0.0971
13788TIP3   OH262854   6.322   6.522   1.878 -0.2267 -0.0116  0.0620
13788TIP3    H162855   6.391   6.457   1.891  0.7778  0.2948 -3.0819
13788TIP3    H262856   6.242   6.477   1.905  0.9221 -0.9453  2.2063
13789TIP3   OH262857   0.486   2.733   1.778 -0.0389 -0.0450  0.4266
13789TIP3    H162858   0.578   2.711   1.763  0.1187 -0.2327  1.5583
13789TIP3    H262859   0.453   2.758   1.692  1.1426  0.2913  0.0448
13790TIP3   OH262860   6.204   1.798   3.236  0.2223  0.4494 -0.0977
13790TIP3    H162861   6.233   1.865   3.174  0.7225 -0.0988 -0.4700
13790TIP3    H262862   6.217   1.837   3.322  0.9200  0.6730 -0.2989
13791TIP3   OH262863   1.692   4.695  12.698 -0.3126  0.0367 -0.6022
13791TIP3    H162864   1.615   4.658  12.741 -0.9303  0.6521 -1.1419
13791TIP3    H262865   1.666   4.785  12.677  1.2978  0.9741  1.1065
13792TIP3   OH262866   6.488   3.630   4.264  0.2719 -0.2965  0.7182
13792TIP3    H162867   6.487   3.575   4.342  1.9922 -0.8307  0.4003
13792TIP3    H262868   6.403   3.615   4.223 -0.6086 -0.1207  2.3771
13793TIP3   OH262869   2.064   3.299  12.356  0.4511  0.6834  0.3641
13793TIP3    H162870   2.109   3.227  12.400 -1.1850  0.9993  2.7793
13793TIP3    H262871   2.027   3.260  12.277  0.3193 -0.9280  1.1833
13794TIP3   OH262872   4.517   0.796   4.166  0.0531  0.0351 -0.1871
13794TIP3    H162873   4.533   0.718   4.113  0.8478  0.6345 -0.8523
13794TIP3    H262874   4.471   0.856   4.107 -1.8243 -0.4163  0.7256
13795TIP3   OH262875   2.520   5.572   2.998  0.3830 -0.0663  0.1481
13795TIP3    H162876   2.550   5.579   2.907 -2.2106  0.1655 -0.7899
13795TIP3    H262877   2.577   5.507   3.038  0.0646 -2.0552 -2.3756
13796TIP3   OH262878   3.331   1.782  10.862  0.3032 -0.8026 -0.0750
13796TIP3    H162879   3.329   1.738  10.948  1.2534 -1.7400 -0.4995
13796TIP3    H262880   3.276   1.728  10.806  1.5321 -1.5430 -0.6200
13797TIP3   OH262881   5.149   3.903   0.047 -0.2936  0.5108  0.0703
13797TIP3    H162882   5.085   3.958   0.091 -1.3886 -0.8437  0.2199
13797TIP3    H262883   5.107   3.877  -0.035 -1.0645 -2.4931  1.3096
13798TIP3   OH262884   3.369   0.486  13.643 -0.7154 -0.3665 -0.8822
13798TIP3    H162885   3.403   0.423  13.579  0.4329 -1.2625  0.5569
13798TIP3    H262886   3.383   0.572  13.603 -1.4195 -0.9490 -2.4604
13799TIP3   OH262887   4.773   1.192  11.336 -0.3296 -0.3225  0.3433
13799TIP3    H162888   4.820   1.210  11.255 -0.3763  4.3057  1.0836
13799TIP3    H262889   4.701   1.135  11.310  2.2882 -2.9790 -1.8353
13800TIP3   OH262890   4.489   1.153  11.507  0.2628  0.0444  0.1001
13800TIP3    H162891   4.491   1.149  11.603 -1.4538  0.4900  0.1927
13800TIP3    H262892   4.576   1.124  11.480  0.2868 -1.6132  1.7444
13801TIP3   OH262893   2.080   3.379  17.090 -0.7423 -0.0032 -0.4768
13801TIP3    H162894   1.986   3.360  17.095 -0.6312 -0.4374  0.0139
13801TIP3    H262895   2.116   3.345  17.172  0.1536 -1.5711 -1.4798
13802TIP3   OH262896   2.076   6.262  11.230  0.3445  0.3279 -0.2690
13802TIP3    H162897   2.021   6.324  11.182 -0.1831  0.6186  0.6638
13802TIP3    H262898   2.022   6.236  11.305 -0.2448 -2.8059 -1.6378
13803TIP3   OH262899   3.023   5.698   0.258  0.1925 -0.5882 -0.2012
13803TIP3    H162900   3.000   5.788   0.237 -0.2669 -1.1770 -2.6096
13803TIP3    H262901   3.113   5.688   0.227  0.5935 -0.7194  0.9507
13804TIP3   OH262902   6.226   2.864  14.333  0.3592  0.9735 -0.2035
13804TIP3    H162903   6.184   2.786  14.297 -0.8834  1.8579 -0.7520
13804TIP3    H262904   6.266   2.907  14.258 -0.6748  1.8838 -0.2534
13805TIP3   OH262905   4.627   1.522  16.858  0.0090 -0.3093  0.3509
13805TIP3    H162906   4.637   1.532  16.763 -0.1745  1.1157  0.4665
13805TIP3    H262907   4.617   1.611  16.891 -0.7381 -0.8378  1.6277
13806TIP3   OH262908   1.054   0.584  11.214  0.0056 -0.3875  0.1376
13806TIP3    H162909   1.012   0.661  11.175 -0.1272  0.2111  1.3953
13806TIP3    H262910   0.985   0.518  11.215  0.4855 -0.9844 -2.1304
13807TIP3   OH262911   3.471   4.702  16.084 -0.0434  0.6942  0.4538
13807TIP3    H162912   3.491   4.774  16.024  0.2128 -0.5222 -0.9987
13807TIP3    H262913   3.556   4.672  16.115  0.1781 -1.1593 -1.6851
13808TIP3   OH262914   2.150   1.494   0.262 -0.0608 -0.2737 -0.0234
13808TIP3    H162915   2.064   1.462   0.235 -0.6495  0.1171  1.3296
13808TIP3    H262916   2.134   1.583   0.294  0.9898  0.1111 -0.5060
13809TIP3   OH262917   4.327   1.766  17.030 -0.0270 -0.1457  0.1339
13809TIP3    H162918   4.317   1.691  17.089 -0.2263 -1.4010 -1.4191
13809TIP3    H262919   4.262   1.750  16.961  0.9158  0.7097 -0.9799
13810TIP3   OH262920   0.592   6.780  14.330 -0.2060  0.2000 -0.4334
13810TIP3    H162921   0.512   6.793  14.381  0.0400  0.5917 -0.1435
13810TIP3    H262922   0.615   6.867  14.299  0.4175  0.1814 -0.0422
13811TIP3   OH262923   2.050   3.289   5.424  0.0528 -0.4361  0.7425
13811TIP3    H162924   2.127   3.235   5.442  0.1603 -1.1073 -1.4991
13811TIP3    H262925   2.079   3.378   5.444  0.9945 -0.8053  1.1110
13812TIP3   OH262926   2.833   0.989  12.148 -0.1753 -0.3374 -0.0658
13812TIP3    H162927   2.854   1.006  12.240 -0.1986  0.8074 -0.2616
13812TIP3    H262928   2.918   0.974  12.106  0.2019  2.5550 -0.5074
13813TIP3   OH262929   0.217   1.373   3.078 -0.2912  0.4828 -0.4012
13813TIP3    H162930   0.222   1.314   3.003 -0.5763 -0.6228  0.4229
13813TIP3    H262931   0.129   1.359   3.113  0.4071 -0.3164  1.1425
13814TIP3   OH262932   5.066   2.651  11.267  0.7961  0.2860 -0.1301
13814TIP3    H162933   4.982   2.604  11.269  0.2347  1.2818  0.2201
13814TIP3    H262934   5.121   2.604  11.329  0.0034  0.5162  0.7677
13815TIP3   OH262935   2.748   1.236  11.410  0.1099  0.5259  0.2208
13815TIP3    H162936   2.821   1.270  11.461 -0.0730 -0.3445  1.0930
13815TIP3    H262937   2.677   1.224  11.473 -0.9467  1.7424 -0.6746
13816TIP3   OH262938   5.162   1.428   5.485 -0.0683 -0.1246 -0.0122
13816TIP3    H162939   5.191   1.404   5.397 -0.7625 -0.9404 -0.0323
13816TIP3    H262940   5.110   1.507   5.472  1.0034  0.5902 -0.1378
13817TIP3   OH262941   3.130   4.211  14.774 -0.0307  0.2589 -0.1427
13817TIP3    H162942   3.210   4.224  14.722  0.2214  1.0173  0.4185
13817TIP3    H262943   3.160   4.175  14.857 -0.5797 -2.4678 -1.0441
13818TIP3   OH262944   6.160   3.802   0.712  0.3081 -0.1800  0.2160
13818TIP3    H162945   6.165   3.895   0.735 -0.9271  0.0041 -0.2238
13818TIP3    H262946   6.102   3.764   0.778  0.8182 -0.6522  0.4021
13819TIP3   OH262947   3.745   2.089  15.043  0.4954 -0.6544  0.0867
13819TIP3    H162948   3.696   2.116  14.965 -0.6623 -0.1597  0.9598
13819TIP3    H262949   3.777   2.171  15.081 -2.4503 -0.3676  2.3640
13820TIP3   OH262950   3.746   4.332  11.451  0.3831 -0.1043 -0.0509
13820TIP3    H162951   3.749   4.373  11.364  0.4316  0.6079  0.2809
13820TIP3    H262952   3.767   4.403  11.512  1.0939 -0.7773  0.4948
13821TIP3   OH262953   6.076   5.801  12.802  0.6374 -0.0326 -0.4738
13821TIP3    H162954   5.982   5.792  12.785  0.7188 -0.8503 -0.5237
13821TIP3    H262955   6.117   5.734  12.747  1.0692 -1.2868  1.2785
13822TIP3   OH262956   1.723   4.871  11.473 -0.5882 -0.3671 -0.2803
13822TIP3    H162957   1.643   4.822  11.454 -0.0618 -0.8256 -1.3944
13822TIP3    H262958   1.718   4.947  11.414 -1.7242  1.3543  1.8868
13823TIP3   OH262959   5.713   3.812  14.086 -0.9155 -0.2148 -0.1370
13823TIP3    H162960   5.697   3.790  14.178  1.4638 -0.6061  0.2473
13823TIP3    H262961   5.764   3.893  14.089 -0.7359 -0.2828 -1.1043
13824TIP3   OH262962   2.084   0.523  16.479 -0.0398  0.4537  0.1823
13824TIP3    H162963   2.042   0.564  16.403  1.3383  0.7733 -0.4410
13824TIP3    H262964   2.077   0.429  16.462 -0.4329  0.5033  0.0487
13825TIP3   OH262965   4.028   2.341  13.268 -0.3467  0.0361 -0.1027
13825TIP3    H162966   4.036   2.248  13.287 -1.2487 -0.0385 -0.0714
13825TIP3    H262967   4.096   2.357  13.202  1.8589  0.0018  2.0007
13826TIP3   OH262968   0.318   5.951  13.851 -0.6669 -0.1056 -0.1450
13826TIP3    H162969   0.258   5.881  13.826 -2.3424  0.8149  1.0087
13826TIP3    H262970   0.341   5.932  13.942  1.5909 -0.9281 -0.8284
13827TIP3   OH262971   2.282   0.657  16.861  0.5047  0.2079 -0.7556
13827TIP3    H162972   2.367   0.614  16.849  0.2956  0.0377 -1.8043
13827TIP3    H262973   2.301   0.735  16.913  0.9348 -0.9801  0.9545
13828TIP3   OH262974   3.683   4.211   0.443  0.1975  0.0958  0.4749
13828TIP3    H162975   3.674   4.119   0.468  1.9656  0.3644  2.3593
13828TIP3    H262976   3.619   4.257   0.499  1.8699  0.3334  2.3254
13829TIP3   OH262977   2.265   5.252   4.778  0.8317 -0.1900  0.1589
13829TIP3    H162978   2.329   5.183   4.800  0.2328 -0.6542  0.4684
13829TIP3    H262979   2.244   5.236   4.686 -1.2295 -2.0530  0.8760
13830TIP3   OH262980   6.824   2.037  12.077 -0.0961 -0.3845  0.1014
13830TIP3    H162981   6.745   1.987  12.096  0.8153 -1.6355  0.7474
13830TIP3    H262982   6.876   1.979  12.021 -0.1779  0.9382 -1.4264
13831TIP3   OH262983   4.911   2.224   0.404  0.2868  0.2434 -0.4315
13831TIP3    H162984   4.985   2.249   0.459  0.7275 -2.0119  0.1113
13831TIP3    H262985   4.950   2.204   0.319  0.3103 -0.8314 -0.1791
13832TIP3   OH262986   0.177   6.863  16.573 -0.4349 -0.4614  0.0606
13832TIP3    H162987   0.148   6.952  16.556 -1.3586 -0.7213  0.1973
13832TIP3    H262988   0.188   6.859  16.668 -3.3164 -1.2883  0.4559
13833TIP3   OH262989   3.586   4.132   5.346 -0.4835  0.5515 -0.3346
13833TIP3    H162990   3.514   4.078   5.380  0.5138  1.0885  3.0020
13833TIP3    H262991   3.606   4.193   5.417  4.2424 -0.5704 -0.3593
13834TIP3   OH262992   6.135   6.012  11.313 -0.2517  0.4145 -0.0530
13834TIP3    H162993   6.209   6.051  11.358 -1.0297  0.1518  1.5170
13834TIP3    H262994   6.058   6.043  11.362 -1.0884 -0.3715 -0.8388
13835TIP3   OH262995   2.761   2.019  15.228  0.2612 -0.3663  0.0602
13835TIP3    H162996   2.724   2.094  15.182  1.0176 -0.2817 -0.4206
13835TIP3    H262997   2.825   2.057  15.288  0.7822 -0.6350 -0.3178
13836TIP3   OH262998   3.609   0.287  16.951  0.7265 -0.3508 -0.2040
13836TIP3    H162999   3.550   0.361  16.944  0.4856 -0.0370  3.4941
13836TIP3    H263000   3.589   0.233  16.874 -2.0510  1.3360 -0.7841
13837TIP3   OH263001   0.134   1.585   0.959  0.2878 -0.3855  0.1041
13837TIP3    H163002   0.158   1.644   1.030  1.0780  1.3611 -1.5098
13837TIP3    H263003   0.092   1.511   1.002 -0.2919  1.1108  2.2784
13838TIP3   OH263004   5.689   4.088  12.929  0.1792 -0.2978 -0.5956
13838TIP3    H163005   5.663   4.012  12.981 -0.7083  0.7679  0.5661
13838TIP3    H263006   5.784   4.095  12.943 -0.0837  0.1976  1.2761
13839TIP3   OH263007   0.219   1.203  15.061  0.5477 -0.0325  1.1478
13839TIP3    H163008   0.168   1.233  14.985 -1.6227 -0.5839  2.2787
13839TIP3    H263009   0.301   1.251  15.056  0.2636  0.3041 -1.2713
13840TIP3   OH263010   1.002   1.174  11.800  0.5166 -0.2018 -0.1689
13840TIP3    H163011   0.950   1.206  11.727  1.4551  0.3383 -0.6112
13840TIP3    H263012   0.991   1.079  11.798  0.3596 -0.1695 -0.8663
13841TIP3   OH263013   4.873   5.786   4.574 -0.6085 -0.0206  0.0469
13841TIP3    H163014   4.860   5.717   4.639 -1.1691 -0.2835 -0.3397
13841TIP3    H263015   4.968   5.791   4.564 -0.4721  0.4224  1.3029
13842TIP3   OH263016   4.866   1.380  15.542  0.2908  0.1307 -0.2893
13842TIP3    H163017   4.871   1.475  15.544  0.6175  0.1873 -1.9585
13842TIP3    H263018   4.940   1.354  15.486  0.1442 -1.0930  0.0657
13843TIP3   OH263019   5.066   1.230  15.408 -0.0414  0.2362  0.4289
13843TIP3    H163020   5.132   1.170  15.444  0.4858  0.9053  0.6018
13843TIP3    H263021   5.060   1.205  15.315  0.5642  0.2595  0.3791
13844TIP3   OH263022   4.963   1.791  11.878 -0.3662 -0.5284  0.3727
13844TIP3    H163023   5.002   1.736  11.946 -0.1259  0.7531  1.3093
13844TIP3    H263024   4.869   1.773  11.883 -0.3163 -0.6620  0.8537
13845TIP3   OH263025   4.082   4.523   6.155 -0.0975 -0.7475 -0.6585
13845TIP3    H163026   4.125   4.540   6.238 -0.9952  0.4184 -0.3991
13845TIP3    H263027   4.034   4.603   6.135  0.8596 -0.6211 -2.8009
13846TIP3   OH263028   4.582   2.382   1.172  0.0672  0.9668 -0.0559
13846TIP3    H163029   4.515   2.377   1.240  0.1617  1.0597  0.0451
13846TIP3    H263030   4.570   2.469   1.133  0.3929  1.1468  0.2375
13847TIP3   OH263031   2.411   4.608  13.537  0.6864 -0.2380 -0.1112
13847TIP3    H163032   2.499   4.593  13.572  0.2870 -1.2751  0.5017
13847TIP3    H263033   2.372   4.670  13.598  0.1408 -1.7192  1.1386
13848TIP3   OH263034   0.165   6.784   5.167  0.3566 -0.3637 -0.2799
13848TIP3    H163035   0.235   6.731   5.129 -1.7478 -2.6219 -1.2564
13848TIP3    H263036   0.197   6.807   5.254  2.0192 -1.9219 -0.4129
13849TIP3   OH263037   5.934   6.791   0.924  0.4431 -0.7228  0.0596
13849TIP3    H163038   5.944   6.883   0.947  0.0886 -0.5953 -0.2993
13849TIP3    H263039   5.863   6.760   0.980 -1.3240 -0.0883 -1.7152
13850TIP3   OH263040   0.221   3.081   2.337 -0.5032  0.6466 -0.7545
13850TIP3    H163041   0.288   3.104   2.402 -0.8752  0.1420 -0.1820
13850TIP3    H263042   0.152   3.145   2.352 -1.8851 -1.1736  1.3671
13851TIP3   OH263043   5.108   6.451   4.375  0.0081  0.3540  0.7491
13851TIP3    H163044   5.180   6.400   4.413 -0.5555 -0.2744  0.9868
13851TIP3    H263045   5.055   6.477   4.451  0.6735  1.9180  0.7083
13852TIP3   OH263046   5.891   0.237  12.618 -0.3746 -0.6089  0.0815
13852TIP3    H163047   5.963   0.297  12.599 -0.7379  0.2348  1.1928
13852TIP3    H263048   5.812   0.290  12.605 -0.6897 -0.6485  1.5979
13853TIP3   OH263049   6.673   2.562   1.128  0.6900 -1.3497 -0.3597
13853TIP3    H163050   6.642   2.528   1.044  1.2378 -3.7710  0.3359
13853TIP3    H263051   6.706   2.485   1.174 -0.0835 -0.1859  2.3092
13854TIP3   OH263052   0.242   6.354   1.009 -0.4964  0.5990  0.0103
13854TIP3    H163053   0.233   6.446   1.032 -1.0588  0.5275  0.0805
13854TIP3    H263054   0.152   6.322   1.001 -0.3551 -0.4728  2.1003
13855TIP3   OH263055   5.625   1.053   2.875  0.0407 -0.1219  0.8590
13855TIP3    H163056   5.539   1.091   2.854  0.3780  0.1702 -0.0072
13855TIP3    H263057   5.604   0.963   2.902 -0.3830 -0.7793 -1.4332
13856TIP3   OH263058   0.107   5.807   3.683 -0.5605  0.0391 -1.0143
13856TIP3    H163059   0.081   5.896   3.706  0.4735 -0.1017  0.9070
13856TIP3    H263060   0.173   5.818   3.614 -0.7398  0.7439 -1.0797
13857TIP3   OH263061   2.979   2.273   0.560  0.3424 -0.2279 -0.6271
13857TIP3    H163062   2.949   2.328   0.632  0.1351 -1.8552  0.5817
13857TIP3    H263063   3.070   2.300   0.545  0.1913  0.5503 -0.1862
13858TIP3   OH263064   2.883   2.740  14.861 -0.5375 -0.3282  0.1163
13858TIP3    H163065   2.972   2.776  14.857 -1.4780  2.3794  1.3535
13858TIP3    H263066   2.851   2.748  14.771 -0.6633  2.0138  0.2994
13859TIP3   OH263067   4.791   0.898  12.245  0.1530 -0.2429  0.3216
13859TIP3    H163068   4.754   0.810  12.254 -0.2623 -0.3097 -1.6693
13859TIP3    H263069   4.719   0.951  12.212  0.6046  0.6845  0.7970
13860TIP3   OH263070   6.606   6.374   5.234  0.4837 -0.1192  0.0051
13860TIP3    H163071   6.683   6.392   5.287  0.4977 -0.3163  0.0495
13860TIP3    H263072   6.541   6.439   5.263  0.3290 -0.5355  0.5986
13861TIP3   OH263073   3.691   0.936   2.845 -0.2796 -0.1872 -0.0549
13861TIP3    H163074   3.599   0.907   2.843  0.2072 -1.8107  0.2338
13861TIP3    H263075   3.703   0.969   2.934 -0.5906  0.1423 -0.1271
13862TIP3   OH263076   6.250   2.844  15.117  0.4605  0.5762 -0.3473
13862TIP3    H163077   6.295   2.761  15.132  0.6597  0.6220 -0.6648
13862TIP3    H263078   6.158   2.821  15.106  0.2534  0.5769  1.2307
13863TIP3   OH263079   5.304   4.130   0.930 -0.0208  0.2329 -0.7128
13863TIP3    H163080   5.332   4.044   0.961 -0.5981 -0.2507 -1.4579
13863TIP3    H263081   5.310   4.124   0.834 -3.9726 -0.4879 -1.1057
13864TIP3   OH263082   6.212   3.657   5.523  0.1473  0.3592  0.1161
13864TIP3    H163083   6.299   3.642   5.485 -0.0436 -0.2915 -0.0738
13864TIP3    H263084   6.154   3.667   5.448  0.3159  2.5040  0.2173
13865TIP3   OH263085   2.339   2.632   4.348 -0.7020  0.8091  0.1521
13865TIP3    H163086   2.318   2.643   4.255  0.2646 -0.2705 -0.2064
13865TIP3    H263087   2.254   2.620   4.390 -1.1290  0.9961 -0.6301
13866TIP3   OH263088   1.258   2.033   3.364  0.5424 -0.7163 -0.2183
13866TIP3    H163089   1.213   2.035   3.449  1.2957  0.8969  0.1772
13866TIP3    H263090   1.251   2.123   3.331  2.0335 -0.8186 -0.8984
13867TIP3   OH263091   0.154   2.819  14.438  0.1243 -0.6238 -0.0192
13867TIP3    H163092   0.247   2.828  14.416  0.3495 -0.5307  0.9255
13867TIP3    H263093   0.130   2.906  14.472  0.1687 -1.1438  1.4160
13868TIP3   OH263094   5.313   5.873   2.412 -0.2064  0.2269 -0.1410
13868TIP3    H163095   5.249   5.805   2.393  1.8661 -1.5005 -1.5516
13868TIP3    H263096   5.270   5.955   2.387 -1.4467 -0.9745 -2.2416
13869TIP3   OH263097   5.039   6.029  14.763  0.4824  0.4938  0.0034
13869TIP3    H163098   5.030   6.120  14.735 -2.0666  1.0817  2.2918
13869TIP3    H263099   5.120   6.028  14.814 -0.6605  2.1538  1.9887
13870TIP3   OH263100   5.148   4.876  11.694  0.4391  0.0771 -0.2563
13870TIP3    H163101   5.194   4.915  11.768  0.5723  1.3890 -1.0057
13870TIP3    H263102   5.109   4.950  11.648 -0.5335 -0.8175 -0.9087
13871TIP3   OH263103   6.852   1.514  15.420 -0.3517  0.4100  0.0144
13871TIP3    H163104   6.777   1.466  15.453 -1.4978  1.9663 -0.2150
13871TIP3    H263105   6.910   1.447  15.384 -1.7979 -0.7933 -0.1712
13872TIP3   OH263106   4.306   1.188   5.018 -0.7599  0.1529  0.1014
13872TIP3    H163107   4.262   1.273   5.022 -1.8577 -0.3992  0.2059
13872TIP3    H263108   4.283   1.153   4.932 -1.9387 -0.8587  0.7955
13873TIP3   OH263109   3.507   3.678  12.118  0.0567  0.7778 -0.8065
13873TIP3    H163110   3.550   3.764  12.129  0.3676  0.2799  3.9176
13873TIP3    H263111   3.421   3.699  12.083 -0.0341  3.1477  0.6016
13874TIP3   OH263112   4.912   0.130  15.437 -0.3888  0.5715 -0.9517
13874TIP3    H163113   4.874   0.210  15.400  0.9460  1.8043  0.2160
13874TIP3    H263114   4.869   0.122  15.523  0.5195  0.8968 -0.4464
13875TIP3   OH263115   0.309   1.494  15.713 -0.2693 -0.3790  0.3158
13875TIP3    H163116   0.311   1.483  15.808 -0.8152 -0.1812  0.3555
13875TIP3    H263117   0.284   1.585  15.700  0.8869 -0.0952 -0.0212
13876TIP3   OH263118   1.566   4.147   3.205 -0.4305 -0.6009 -0.1837
13876TIP3    H163119   1.599   4.062   3.175 -2.0301 -1.0118 -0.9031
13876TIP3    H263120   1.534   4.130   3.294 -0.9035 -0.8075 -0.3894
13877TIP3   OH263121   1.486   2.360   2.397 -0.2330 -0.4937  0.2990
13877TIP3    H163122   1.557   2.344   2.335 -0.2820 -0.5915  0.2671
13877TIP3    H263123   1.507   2.445   2.436 -1.4626  0.7489 -1.5912
13878TIP3   OH263124   2.899   6.394   4.925 -0.1921 -0.0686 -0.0286
13878TIP3    H163125   2.847   6.322   4.962 -0.8379  0.5546  0.2969
13878TIP3    H263126   2.955   6.423   4.996 -1.3833  1.0828  0.4839
13879TIP3   OH263127   3.573   5.134   5.072  0.7420  0.4502 -0.1488
13879TIP3    H163128   3.659   5.147   5.032  1.2052 -1.5486  0.0837
13879TIP3    H263129   3.518   5.103   5.001  0.8193 -0.4044  0.1522
13880TIP3   OH263130   0.749   2.264  15.312 -0.2746 -0.6165 -0.1108
13880TIP3    H163131   0.658   2.248  15.335  0.3499 -1.7946  1.7368
13880TIP3    H263132   0.752   2.358  15.292 -1.3508  0.1464  2.7704
13881TIP3   OH263133   3.697   0.365  14.066  0.0596  0.0106 -0.2112
13881TIP3    H163134   3.633   0.326  14.125 -0.7418 -1.0624 -1.7259
13881TIP3    H263135   3.757   0.293  14.046  0.7800  0.5728 -0.1114
13882TIP3   OH263136   0.069   0.356   0.221 -0.5101 -0.2963  0.0032
13882TIP3    H163137   0.137   0.318   0.276 -0.9110 -1.4761 -0.2884
13882TIP3    H263138  -0.003   0.293   0.224 -1.2802  0.5329 -0.3461
13883TIP3   OH263139   0.356   4.771  11.132 -0.0035 -0.0657 -0.0766
13883TIP3    H163140   0.277   4.789  11.082 -0.8402  1.0364  1.5745
13883TIP3    H263141   0.418   4.838  11.105 -0.7501  1.0708  0.9590
13884TIP3   OH263142   4.345   2.869   1.051 -0.1357 -0.3226 -0.6234
13884TIP3    H163143   4.344   2.940   0.986 -3.0799  0.2061 -0.1388
13884TIP3    H263144   4.257   2.870   1.089  0.8324 -2.0003  1.9072
13885TIP3   OH263145   1.805   1.165  12.933  0.5654  0.2741 -0.5333
13885TIP3    H163146   1.855   1.239  12.967 -0.8249  0.7676  0.5412
13885TIP3    H263147   1.735   1.205  12.882 -1.2099 -0.1407  1.4248
13886TIP3   OH263148   4.925   2.241   3.495  0.9151  0.3990 -0.3885
13886TIP3    H163149   5.002   2.186   3.508  0.3304 -0.6277 -1.0991
13886TIP3    H263150   4.893   2.217   3.408  0.3761  1.5485 -0.5257
13887TIP3   OH263151   1.822   0.751  11.507 -0.1133  0.3989  0.8436
13887TIP3    H163152   1.764   0.712  11.572 -0.8309 -0.1311 -0.1039
13887TIP3    H263153   1.837   0.682  11.443 -0.2687  1.2356 -0.1235
13888TIP3   OH263154   4.036   1.749  16.020 -0.0984  0.6608 -0.0879
13888TIP3    H163155   4.066   1.671  15.975  0.0455  0.9676 -0.5298
13888TIP3    H263156   4.042   1.819  15.955 -0.3809  1.0091  0.2503
13889TIP3   OH263157   5.033   4.545   0.974  0.0118 -0.1421 -0.2411
13889TIP3    H163158   5.014   4.595   0.895 -0.1872 -1.2040 -0.8951
13889TIP3    H263159   5.006   4.601   1.046  0.3724  0.9213 -0.9201
13890TIP3   OH263160   0.134   3.897  16.666  0.4610 -0.1060  0.1033
13890TIP3    H163161   0.176   3.966  16.717  0.7483  0.1729 -0.4934
13890TIP3    H263162   0.196   3.825  16.666  0.3798 -0.1752  0.3050
13891TIP3   OH263163   5.303   5.241  16.887 -0.3951  0.4229  0.5024
13891TIP3    H163164   5.281   5.161  16.934 -0.5242 -1.2770 -2.2067
13891TIP3    H263165   5.224   5.262  16.837  0.6436  0.3648 -1.2514
13892TIP3   OH263166   4.485   0.218   2.641 -0.3066 -0.2958  0.3392
13892TIP3    H163167   4.569   0.186   2.607 -0.3171  0.1495 -0.1270
13892TIP3    H263168   4.423   0.202   2.569 -0.3898  0.3899  0.2521
13893TIP3   OH263169   0.874   3.763  16.204  0.0176  0.8370 -0.3753
13893TIP3    H163170   0.912   3.820  16.271 -1.0866 -0.2475  1.2426
13893TIP3    H263171   0.904   3.800  16.121  2.6514  1.3681  0.7238
13894TIP3   OH263172   4.699   5.565   6.053 -0.3685  0.0132  0.4519
13894TIP3    H163173   4.742   5.484   6.078  0.1026  0.2859  0.5290
13894TIP3    H263174   4.643   5.587   6.127 -1.5626 -0.9646 -0.1232
13895TIP3   OH263175   4.880   1.733  12.510 -0.4161 -0.0266 -0.7693
13895TIP3    H163176   4.900   1.640  12.497  0.8447  0.2675 -0.9999
13895TIP3    H263177   4.852   1.738  12.602  1.7334 -0.2968 -0.0461
13896TIP3   OH263178   6.188   3.897  15.001  0.0967  0.6080 -0.8285
13896TIP3    H163179   6.127   3.889  14.927 -0.6516 -0.9705 -0.0856
13896TIP3    H263180   6.157   3.832  15.064  1.0743  1.5181  0.6368
13897TIP3   OH263181   3.606   2.782   6.406 -0.1311  0.5611  0.1676
13897TIP3    H163182   3.640   2.860   6.362 -0.7604  0.0399 -1.3237
13897TIP3    H263183   3.617   2.712   6.342 -1.3166 -0.1807  0.7413
13898TIP3   OH263184   5.069   6.472  11.014  0.5276 -0.2059  0.6301
13898TIP3    H163185   4.977   6.478  11.040 -0.0861  1.4431 -1.6098
13898TIP3    H263186   5.067   6.423  10.931  1.8081 -1.0825  1.0935
13899TIP3   OH263187   2.008   6.281   5.634  0.5535  0.3103 -0.1106
13899TIP3    H163188   2.051   6.219   5.576 -1.0139 -1.0716  0.1227
13899TIP3    H263189   1.915   6.271   5.615 -0.0745 -0.4659  2.8066
13900TIP3   OH263190   6.285   1.993   6.160 -0.1368 -0.1510  0.0656
13900TIP3    H163191   6.244   2.017   6.243  2.0062  0.9862  0.8759
13900TIP3    H263192   6.293   1.898   6.164  0.6553 -0.0641  1.5840
13901TIP3   OH263193   5.606   4.743  16.662 -0.3340  0.6783  0.0468
13901TIP3    H163194   5.679   4.799  16.691 -0.2879 -0.1541  1.6822
13901TIP3    H263195   5.549   4.801  16.612  0.0107  2.0417  1.1806
13902TIP3   OH263196   4.255   5.862  11.298 -0.2632  0.1133 -0.1897
13902TIP3    H163197   4.217   5.835  11.214 -0.3381 -0.3229 -0.0218
13902TIP3    H263198   4.315   5.933  11.276 -0.1086 -0.1517 -0.6479
13903TIP3   OH263199   2.679   4.826   2.321 -0.2563 -0.0042  0.4372
13903TIP3    H163200   2.697   4.743   2.365 -0.3152 -0.3386 -0.1472
13903TIP3    H263201   2.605   4.863   2.369 -2.7198 -2.0511 -1.4597
13904TIP3   OH263202   5.191   1.464   1.748 -0.4126 -0.0568  0.1331
13904TIP3    H163203   5.150   1.548   1.769  0.2335 -0.0173  1.2928
13904TIP3    H263204   5.151   1.438   1.665 -0.3849  1.5445 -0.4028
13905TIP3   OH263205   6.282   5.388  13.200 -0.1173  0.3731  0.2377
13905TIP3    H163206   6.368   5.354  13.225 -0.6706 -1.2033  0.0375
13905TIP3    H263207   6.219   5.329  13.241 -1.0888  0.1933 -1.4130
13906TIP3   OH263208   4.862   6.237   3.334  0.4293 -0.3418  0.2597
13906TIP3    H163209   4.905   6.295   3.272  0.6471  1.0039  1.5928
13906TIP3    H263210   4.899   6.262   3.419 -0.5030 -1.4893  1.0367
13907TIP3   OH263211   1.188   3.304   6.215  0.2274 -0.4453  0.6572
13907TIP3    H163212   1.205   3.232   6.276  2.0522 -0.7963 -0.2287
13907TIP3    H263213   1.093   3.300   6.199  0.1128 -1.8533  1.5875
13908TIP3   OH263214   4.476   3.197  14.413 -0.3730  0.2415 -0.4290
13908TIP3    H163215   4.451   3.137  14.343 -0.9431  1.4539 -1.2919
13908TIP3    H263216   4.438   3.281  14.388 -0.2706  0.8004  1.1437
13909TIP3   OH263217   0.909   1.518  15.447 -0.4479 -0.2983  0.1725
13909TIP3    H163218   0.894   1.486  15.535  0.5724  0.0167  0.4672
13909TIP3    H263219   0.999   1.494  15.427 -0.5669 -0.0861 -0.6614
13910TIP3   OH263220   5.963   1.873  15.338  0.1322 -0.3144  0.0466
13910TIP3    H163221   6.035   1.930  15.312  0.1702 -0.8671 -1.1445
13910TIP3    H263222   6.005   1.799  15.382  0.0646  0.6534  1.8431
13911TIP3   OH263223   4.402   3.563   3.860  0.6049  0.3054 -0.3311
13911TIP3    H163224   4.413   3.589   3.769  1.2757  0.1955 -0.2820
13911TIP3    H263225   4.341   3.489   3.857 -1.1368  1.6732 -0.4969
13912TIP3   OH263226   1.444   5.909  13.177  0.2531  0.4687 -0.2504
13912TIP3    H163227   1.351   5.904  13.199  0.3495 -0.6625 -0.0382
13912TIP3    H263228   1.458   6.001  13.154 -0.4711  1.1150  1.6687
13913TIP3   OH263229   0.586   3.331   5.992 -0.2736  0.6450  0.0005
13913TIP3    H163230   0.499   3.303   5.964 -0.6741  1.9303 -0.0953
13913TIP3    H263231   0.603   3.280   6.071 -0.3066 -0.9803 -0.9858
13914TIP3   OH263232   0.891   0.310  15.158  0.2356  0.1992 -0.1475
13914TIP3    H163233   0.797   0.332  15.153  0.3130  0.8645  0.8716
13914TIP3    H263234   0.919   0.305  15.067 -0.6611  0.6109 -0.4643
13915TIP3   OH263235   1.703   5.034  12.311  0.0740 -0.2807 -0.4880
13915TIP3    H163236   1.662   5.097  12.251  2.1793  0.1305 -1.6069
13915TIP3    H263237   1.779   5.081  12.346  1.4127 -2.0190 -0.9518
13916TIP3   OH263238   1.395   6.536  11.618  0.0842  0.5379 -0.1868
13916TIP3    H163239   1.384   6.450  11.576 -0.4176  0.4377  0.1392
13916TIP3    H263240   1.353   6.597  11.558 -1.4888  0.2744  0.6068
13917TIP3   OH263241   5.015   5.451  15.296 -0.0067 -0.2365 -0.2915
13917TIP3    H163242   4.997   5.500  15.376 -0.9215 -2.1596  0.7574
13917TIP3    H263243   5.033   5.518  15.230 -1.0697  1.4830  1.0797
13918TIP3   OH263244   2.299   1.856   2.791  0.4656  0.2861 -0.6144
13918TIP3    H163245   2.286   1.761   2.781  0.6298  0.3809 -2.0241
13918TIP3    H263246   2.264   1.893   2.710 -1.4769  1.6470  0.7472
13919TIP3   OH263247   4.239   4.024   5.085  0.1458  0.4980  0.0004
13919TIP3    H163248   4.263   3.943   5.131 -0.3913  0.5093  0.3050
13919TIP3    H263249   4.294   4.023   5.007  0.8918  0.3497  0.5044
13920TIP3   OH263250   2.702   2.290  16.876  0.6192  0.2446  0.2908
13920TIP3    H163251   2.761   2.365  16.865  0.7192  0.1243 -0.0005
13920TIP3    H263252   2.740   2.221  16.821  0.6762 -0.1084  0.7603
13921TIP3   OH263253   1.862   2.191  13.152  0.4082 -0.2720 -0.5201
13921TIP3    H163254   1.797   2.228  13.212  0.0457 -0.7041 -0.6417
13921TIP3    H263255   1.941   2.182  13.205  0.6502  1.0921 -0.5961
13922TIP3   OH263256   5.711   1.891   5.736  0.2468 -0.1547  0.2050
13922TIP3    H163257   5.685   1.855   5.820 -0.9464 -1.1565 -0.5673
13922TIP3    H263258   5.775   1.828   5.702  0.8881  0.3576  0.4333
13923TIP3   OH263259   0.495   5.614  13.882  0.2282  0.6356  0.2108
13923TIP3    H163260   0.588   5.631  13.895  0.2494 -0.0475  1.0142
13923TIP3    H263261   0.477   5.647  13.794  1.5848 -0.6354 -0.5782
13924TIP3   OH263262   2.541   5.023  14.765  0.5373  0.0392 -0.3496
13924TIP3    H163263   2.479   5.085  14.726  1.5650  0.8903 -0.6797
13924TIP3    H263264   2.582   4.980  14.690  1.2161  0.3689 -0.1749
13925TIP3   OH263265   0.386   5.453   0.565  0.4632 -0.3509 -0.2405
13925TIP3    H163266   0.384   5.519   0.496  0.1741 -0.3495 -0.2302
13925TIP3    H263267   0.380   5.503   0.647  1.0051 -0.3381 -0.2052
13926TIP3   OH263268   0.535   6.290   4.782 -0.1485 -0.2889  0.0673
13926TIP3    H163269   0.517   6.377   4.818  1.6417 -0.1168  0.6801
13926TIP3    H263270   0.465   6.235   4.817 -0.3894  0.5790  1.0341
13927TIP3   OH263271   1.699   4.857   0.627 -0.5800  0.5320  0.5607
13927TIP3    H163272   1.640   4.791   0.664  0.5104  0.1825  1.8086
13927TIP3    H263273   1.765   4.870   0.696 -0.3016  2.3339  0.0028
13928TIP3   OH263274   1.141   6.059   2.235  0.6111 -0.4869 -0.2191
13928TIP3    H163275   1.184   5.994   2.290  0.9781  1.2034  1.6178
13928TIP3    H263276   1.050   6.030   2.229 -0.2787  0.6950  3.9316
13929TIP3   OH263277   6.733   4.997   4.978  0.5729  0.6672 -0.3068
13929TIP3    H163278   6.813   5.047   4.990 -0.6599  2.2096  2.0937
13929TIP3    H263279   6.666   5.046   5.024 -1.9264 -0.3064 -2.6188
13930TIP3   OH263280   5.462   1.561  15.992 -0.1582  0.4836 -0.3450
13930TIP3    H163281   5.484   1.468  16.005 -2.1691 -0.3122 -2.0959
13930TIP3    H263282   5.537   1.596  15.944  1.8050  0.5116  2.4517
13931TIP3   OH263283   1.332   1.955   4.352  0.1380  0.1147  0.6544
13931TIP3    H163284   1.355   2.040   4.314  2.2964 -0.5169  0.4248
13931TIP3    H263285   1.344   1.967   4.446 -0.2043  0.2449  0.6822
13932TIP3   OH263286   5.485   1.448  13.264  0.2935  0.2766 -0.1325
13932TIP3    H163287   5.526   1.366  13.294 -1.9923 -1.6299 -1.8436
13932TIP3    H263288   5.456   1.429  13.175  0.4578  3.3282 -0.9457
13933TIP3   OH263289   2.650   2.241   3.563 -1.1659 -0.1544  0.4444
13933TIP3    H163290   2.605   2.213   3.484 -0.0824  0.9867 -0.6388
13933TIP3    H263291   2.656   2.163   3.618 -2.1749 -0.8959 -0.4838
13934TIP3   OH263292   5.596   4.201  11.516  0.5314  0.0076 -0.5982
13934TIP3    H163293   5.600   4.297  11.522  1.0604 -0.0203 -0.4481
13934TIP3    H263294   5.587   4.184  11.422  1.4108  0.1783 -0.7194
13935TIP3   OH263295   3.025   4.727  15.757 -0.6938 -0.0203 -0.3729
13935TIP3    H163296   2.980   4.811  15.742 -0.8428  0.3933  1.9507
13935TIP3    H263297   2.967   4.680  15.817 -0.0272 -1.2790 -0.6982
13936TIP3   OH263298   4.468   5.674  16.201 -0.0343  0.2934 -0.4105
13936TIP3    H163299   4.563   5.687  16.193 -0.2572  1.2013 -1.7383
13936TIP3    H263300   4.456   5.579  16.191  0.8278 -0.0064  1.0564
13937TIP3   OH263301   0.505   2.637  14.778 -0.0586  0.1292  0.3800
13937TIP3    H163302   0.440   2.705  14.763 -1.9095 -1.9417 -1.7628
13937TIP3    H263303   0.549   2.626  14.694 -1.1811 -2.5497  0.0482
13938TIP3   OH263304   3.041   1.857  15.030  0.0409 -0.0732 -0.9494
13938TIP3    H163305   3.087   1.802  14.966  0.0252 -1.1369 -0.0935
13938TIP3    H263306   2.970   1.801  15.063 -0.2701  0.6352 -0.3838
13939TIP3   OH263307   3.475   2.968   1.311 -0.5541  0.1911  0.0743
13939TIP3    H163308   3.534   2.911   1.260 -0.5012 -0.7787  1.1940
13939TIP3    H263309   3.481   3.053   1.267  0.6547 -0.2345 -0.6406
13940TIP3   OH263310   5.303   2.278   0.141  0.1556 -0.2892 -0.1495
13940TIP3    H163311   5.368   2.293   0.072  0.3730 -1.2308 -0.1702
13940TIP3    H263312   5.252   2.359   0.145 -0.6633 -0.6489 -2.2620
13941TIP3   OH263313   2.415   0.858  11.689 -0.1261 -0.3927  1.0788
13941TIP3    H163314   2.447   0.798  11.622  0.9588 -0.8098  1.9347
13941TIP3    H263315   2.348   0.808  11.736 -0.5245 -0.2782  0.6364
13942TIP3   OH263316   3.747   6.520  11.357  0.6191 -0.3838  0.4155
13942TIP3    H163317   3.771   6.427  11.356  2.6197  0.0602  1.3362
13942TIP3    H263318   3.807   6.559  11.421 -2.6329  0.9456  2.9131
13943TIP3   OH263319   5.276   4.882   5.089  1.3635 -0.0705 -0.0728
13943TIP3    H163320   5.202   4.906   5.145  0.3948 -2.8263 -0.0349
13943TIP3    H263321   5.318   4.809   5.134  3.6670  0.8736 -0.5239
13944TIP3   OH263322   5.923   5.738   0.597  0.7922 -0.5305 -0.1624
13944TIP3    H163323   5.845   5.739   0.542  0.9684 -0.4274 -0.4125
13944TIP3    H263324   5.977   5.667   0.562  1.7863  0.7640 -1.3770
13945TIP3   OH263325   0.899   5.280  12.171  0.2681 -0.5228  0.7865
13945TIP3    H163326   0.862   5.193  12.186  1.9554 -1.3295  0.5783
13945TIP3    H263327   0.881   5.328  12.252 -1.4252 -0.7666  0.5837
13946TIP3   OH263328   0.228   6.719  11.118  0.6025  0.4549  0.3131
13946TIP3    H163329   0.167   6.757  11.055  0.2254 -0.8859 -0.1613
13946TIP3    H263330   0.179   6.649  11.161  1.1679  0.7024  1.3950
13947TIP3   OH263331   0.471   0.326  13.785  0.3062 -0.3033  0.0036
13947TIP3    H163332   0.453   0.405  13.736  0.8997  0.1044  0.4205
13947TIP3    H263333   0.520   0.356  13.862  0.2846 -1.0380  0.3176
13948TIP3   OH263334   0.508   1.522   0.409 -0.2098  0.1663  0.2815
13948TIP3    H163335   0.601   1.533   0.387 -0.5584  0.4018 -1.1127
13948TIP3    H263336   0.500   1.562   0.496  1.2750 -1.1589  1.1117
13949TIP3   OH263337   0.486   1.291   2.514  0.7890 -0.1650  0.0129
13949TIP3    H163338   0.482   1.384   2.534 -2.0168  0.3238 -2.1602
13949TIP3    H263339   0.476   1.247   2.598  0.5201  1.5319  0.8973
13950TIP3   OH263340   4.067   1.275  16.590  0.4184  0.0032  0.0796
13950TIP3    H163341   4.050   1.299  16.499  0.0473  0.7257  0.3364
13950TIP3    H263342   4.128   1.341  16.621  0.2421 -0.0191  0.4750
13951TIP3   OH263343   4.997   6.118  15.968 -0.5405  0.3140 -0.6112
13951TIP3    H163344   4.903   6.133  15.956 -1.0392  0.9457  2.8485
13951TIP3    H263345   5.039   6.186  15.915 -2.3007  3.3268  1.5448
13952TIP3   OH263346   1.238   3.550   3.181 -0.0232  0.2626  0.0310
13952TIP3    H163347   1.256   3.601   3.103  0.8496 -0.6585 -0.3923
13952TIP3    H263348   1.244   3.459   3.152 -4.8527 -0.2938 -0.1030
13953TIP3   OH263349   5.584   4.637  12.728  0.1765 -0.0563 -0.0349
13953TIP3    H163350   5.501   4.668  12.764  0.4301  0.5176  0.0754
13953TIP3    H263351   5.560   4.593  12.646 -0.2809 -0.3232  0.2406
13954TIP3   OH263352   4.671   6.669  15.853  0.3375  0.1896 -0.4167
13954TIP3    H163353   4.590   6.719  15.840 -0.8371 -1.1044  1.3232
13954TIP3    H263354   4.739   6.735  15.863 -0.6784  1.3547 -0.9342
13955TIP3   OH263355   4.421   5.153  12.178 -0.1076  0.1100 -0.5600
13955TIP3    H163356   4.376   5.232  12.149 -0.2356  0.5914  0.8517
13955TIP3    H263357   4.513   5.167  12.156 -0.2830  0.1836 -1.2621
13956TIP3   OH263358   3.600   4.412  15.199  0.4585 -0.5158 -0.5754
13956TIP3    H163359   3.508   4.429  15.181  0.5353  0.3944 -0.1948
13956TIP3    H263360   3.621   4.333  15.149 -0.7242 -1.1924 -0.0354
13957TIP3   OH263361   3.161   2.877   5.238 -0.0345  0.0173 -0.1534
13957TIP3    H163362   3.101   2.879   5.164 -0.9974 -1.6879  0.5100
13957TIP3    H263363   3.125   2.940   5.300  0.5353  1.1337 -0.9210
13958TIP3   OH263364   1.112   1.703  13.617 -0.2824 -0.1796 -0.2784
13958TIP3    H163365   1.090   1.763  13.688 -0.2988  0.6235 -0.9409
13958TIP3    H263366   1.099   1.616  13.654 -1.6263  0.2278  0.2830
13959TIP3   OH263367   1.553   0.821  11.421  0.6201 -0.1316  0.2683
13959TIP3    H163368   1.572   0.865  11.504 -1.2571 -0.2744  0.8080
13959TIP3    H263369   1.475   0.865  11.387  0.0163 -1.5772 -0.2880
13960TIP3   OH263370   2.537   6.320  11.956  0.0935 -0.5204 -0.1204
13960TIP3    H163371   2.479   6.345  12.027  0.1819  1.8809 -0.8056
13960TIP3    H263372   2.584   6.400  11.933  1.4880 -1.6755 -1.5887
13961TIP3   OH263373   1.339   4.186  16.128 -0.4193 -0.1944 -0.8011
13961TIP3    H163374   1.304   4.169  16.041 -0.4166 -3.6478 -0.2905
13961TIP3    H263375   1.433   4.193  16.115 -0.4995  0.2096 -1.1730
13962TIP3   OH263376   3.699   2.716   0.828 -0.0482  0.0420 -0.0990
13962TIP3    H163377   3.648   2.796   0.840  0.3270  0.3351 -0.4275
13962TIP3    H263378   3.740   2.727   0.742  1.4215  0.3052  0.6058
13963TIP3   OH263379   1.942   6.566  16.366  0.1103 -0.1414  0.5564
13963TIP3    H163380   1.992   6.611  16.433 -0.3433 -0.5876  1.2030
13963TIP3    H263381   1.896   6.637  16.320  0.6884  0.1954  0.4843
13964TIP3   OH263382   0.418   1.520  14.533  0.1910  0.2036  0.0122
13964TIP3    H163383   0.424   1.601  14.482 -1.0614  0.7277  0.6792
13964TIP3    H263384   0.402   1.452  14.468 -0.0676  0.6770 -0.4237
13965TIP3   OH263385   6.613   0.850   2.020  0.2286 -0.0555  0.3123
13965TIP3    H163386   6.666   0.834   1.941 -0.8973  0.4132 -0.5712
13965TIP3    H263387   6.643   0.935   2.052 -0.3207  0.4437 -0.4743
13966TIP3   OH263388   0.080   6.163  14.691 -0.3031 -0.4624 -0.6265
13966TIP3    H163389   0.043   6.078  14.714 -0.6248 -0.0743  0.3738
13966TIP3    H263390   0.173   6.155  14.710 -0.6777  0.1153  1.8364
13967TIP3   OH263391   2.558   6.770   1.451  0.6913  0.1464 -0.2935
13967TIP3    H163392   2.541   6.710   1.378  2.1944  0.7327 -1.1741
13967TIP3    H263393   2.477   6.770   1.501 -0.4199 -0.2603 -1.9893
13968TIP3   OH263394   0.186   2.460  16.715  0.5232  0.2475 -0.0922
13968TIP3    H163395   0.253   2.524  16.739 -0.1658  1.6574 -1.6977
13968TIP3    H263396   0.190   2.457  16.619 -0.9412 -0.4710 -0.1588
13969TIP3   OH263397   0.072   3.136   6.300  0.2919  0.1994  0.2587
13969TIP3    H163398   0.064   3.041   6.290 -1.0821  0.3683 -0.4292
13969TIP3    H263399  -0.001   3.171   6.250  0.9513  1.6399  0.2783
13970TIP3   OH263400   0.498   6.298  12.819 -0.1995 -0.2934 -0.0764
13970TIP3    H163401   0.411   6.337  12.812  0.3791  1.2316  0.7684
13970TIP3    H263402   0.534   6.303  12.730 -0.6562 -0.1700 -0.2540
13971TIP3   OH263403   6.254   0.520  16.603  0.5972  0.0331 -0.7472
13971TIP3    H163404   6.285   0.528  16.512  0.5549 -2.1475 -0.9881
13971TIP3    H263405   6.192   0.593  16.613  3.2611  2.5854 -1.2658
13972TIP3   OH263406   2.145   6.360  13.967  0.6498 -0.6898 -0.6746
13972TIP3    H163407   2.058   6.323  13.977  0.5506 -0.8967 -2.0855
13972TIP3    H263408   2.196   6.323  14.039 -0.9411  1.1759  1.5651
13973TIP3   OH263409   1.837   5.088  15.832  0.3879  0.2778 -0.3354
13973TIP3    H163410   1.915   5.131  15.865  0.2061 -0.3723  1.0221
13973TIP3    H263411   1.855   4.994  15.842 -0.1378  0.0925 -1.0233
13974TIP3   OH263412   1.408   0.856  16.150  0.6351  0.7629 -0.1915
13974TIP3    H163413   1.452   0.783  16.194  0.1538  0.3041 -0.4690
13974TIP3    H263414   1.389   0.823  16.062  0.9068  1.4126 -0.4998
13975TIP3   OH263415   3.142   3.895  16.010  0.2838 -0.1931  0.2978
13975TIP3    H163416   3.100   3.872  16.093  1.6082 -0.4473  0.9239
13975TIP3    H263417   3.194   3.973  16.031  0.4802 -0.1485 -0.3397
13976TIP3   OH263418   5.673   1.016   0.745  0.3427  0.2138 -0.3830
13976TIP3    H163419   5.670   0.929   0.705 -0.1782 -0.1356  0.3999
13976TIP3    H263420   5.581   1.045   0.746  0.1145 -0.3960  1.8309
13977TIP3   OH263421   4.530   0.377  11.175 -0.5566  0.3880  0.1017
13977TIP3    H163422   4.545   0.369  11.269 -1.0776  2.9792  0.4745
13977TIP3    H263423   4.560   0.465  11.153  0.5971 -0.5411 -2.4097
13978TIP3   OH263424   1.540   4.133  14.137 -0.2029 -0.5900 -0.2460
13978TIP3    H163425   1.544   4.199  14.206  0.9816 -0.2886 -0.5630
13978TIP3    H263426   1.449   4.104  14.135 -0.5292  0.3461  0.5452
13979TIP3   OH263427   4.350   3.934  11.673 -0.4296 -0.3744  0.1374
13979TIP3    H163428   4.414   4.005  11.664 -2.0329  1.1272 -0.0725
13979TIP3    H263429   4.396   3.856  11.643  1.5996  0.4440  0.9320
13980TIP3   OH263430   0.638   4.014   6.188  0.0590 -0.6770 -0.2808
13980TIP3    H163431   0.599   3.932   6.158  1.6097 -1.8343  0.7017
13980TIP3    H263432   0.732   4.001   6.175  0.3220  1.0894 -0.3911
13981TIP3   OH263433   5.843   0.100  16.350 -0.4805  0.5343  0.0298
13981TIP3    H163434   5.837   0.192  16.325  1.5546  0.5059 -0.7076
13981TIP3    H263435   5.834   0.053  16.267  0.9152  0.1900  0.0618
13982TIP3   OH263436   0.132   0.105  11.267 -0.1363 -0.5427 -0.1674
13982TIP3    H163437   0.177   0.022  11.251  0.9601  0.0080 -0.0256
13982TIP3    H263438   0.063   0.083  11.330 -0.0672 -1.4001 -0.3714
13983TIP3   OH263439   5.752   2.915   1.396  0.0987 -0.0788 -0.1547
13983TIP3    H163440   5.765   2.888   1.487  3.0113  0.8831 -0.1798
13983TIP3    H263441   5.694   2.991   1.401  2.4558  1.7489  1.2902
13984TIP3   OH263442   3.965   5.296  17.105 -0.4234  0.1371  0.4605
13984TIP3    H163443   3.909   5.357  17.154  0.0304  0.1616  0.9481
13984TIP3    H263444   3.903   5.239  17.060 -0.8513  0.6218  0.4208
13985TIP3   OH263445   2.599   4.166   3.578 -0.1263 -0.0391 -0.0463
13985TIP3    H163446   2.693   4.188   3.578 -0.3017  1.0658  2.3603
13985TIP3    H263447   2.591   4.095   3.642 -1.1862  1.7283  1.9277
13986TIP3   OH263448   6.395   1.652  11.512 -0.7715  0.4484 -0.1708
13986TIP3    H163449   6.438   1.687  11.434  0.7950 -1.7352 -0.3599
13986TIP3    H263450   6.427   1.708  11.583 -1.5249  1.8944 -0.9105
13987TIP3   OH263451   1.824   4.168  12.945 -0.7524 -0.0300  0.7739
13987TIP3    H163452   1.842   4.123  12.862 -2.2760 -0.4908  0.6503
13987TIP3    H263453   1.831   4.100  13.012  0.4639  0.3394  1.0366
13988TIP3   OH263454   5.674   3.828  12.091 -0.4526 -0.2583  0.5516
13988TIP3    H163455   5.637   3.914  12.074 -0.2601  0.0838  1.7166
13988TIP3    H263456   5.617   3.767  12.046 -1.0441  0.4272  0.3556
13989TIP3   OH263457   2.815   3.010   3.370  0.1162  0.4171  0.0949
13989TIP3    H163458   2.818   3.104   3.388  0.4170  0.3481  0.4167
13989TIP3    H263459   2.796   3.004   3.276  1.0069  0.8127 -0.1214
13990TIP3   OH263460   3.000   4.516  15.506 -0.0118 -0.1656 -0.0895
13990TIP3    H163461   2.984   4.462  15.583 -1.5619  1.2742  0.6707
13990TIP3    H263462   2.942   4.592  15.518 -0.0631  0.2460 -2.5264
13991TIP3   OH263463   6.572   6.684  13.626  0.2263 -0.6078  0.0743
13991TIP3    H163464   6.477   6.676  13.628  0.1758 -0.0405  0.1878
13991TIP3    H263465   6.603   6.606  13.672 -0.2749  0.4157  2.2824
13992TIP3   OH263466   5.932   1.684  16.565  0.4029 -0.0223  0.1359
13992TIP3    H163467   5.898   1.683  16.476  0.8059 -0.9986 -0.0191
13992TIP3    H263468   6.026   1.702  16.554  0.3598  0.4033  0.4099
13993TIP3   OH263469   2.222   1.712   5.838  0.4374  0.2925  0.3173
13993TIP3    H163470   2.315   1.735   5.834  0.2876  1.0147  0.9021
13993TIP3    H263471   2.192   1.747   5.922 -0.3153 -0.1266  0.2327
13994TIP3   OH263472   0.480   6.617  15.428 -0.2166  0.0192  0.4383
13994TIP3    H163473   0.528   6.539  15.457 -0.4272 -0.7458 -1.1532
13994TIP3    H263474   0.399   6.582  15.388 -0.5460  1.0767  0.1429
13995TIP3   OH263475   3.370   0.388   4.170 -0.0108  0.0747  0.1745
13995TIP3    H163476   3.449   0.335   4.180  2.5802  3.2346 -1.9295
13995TIP3    H263477   3.354   0.389   4.076 -1.0457  1.5806  0.3446
13996TIP3   OH263478   4.634   4.779   4.553 -0.5579  0.8503  0.3177
13996TIP3    H163479   4.574   4.854   4.560  0.4912  1.5902  2.1311
13996TIP3    H263480   4.694   4.790   4.627  0.6680 -0.8842 -0.3672
13997TIP3   OH263481   5.503   1.869  16.635  0.2328 -0.0021  0.0152
13997TIP3    H163482   5.449   1.879  16.557 -1.1031  0.1585  0.9273
13997TIP3    H263483   5.591   1.892  16.606 -0.5453  1.9833 -1.0109
13998TIP3   OH263484   4.398   3.580  16.605 -0.1203 -0.3929 -0.3940
13998TIP3    H163485   4.426   3.630  16.529 -2.2697 -0.1983 -1.1434
13998TIP3    H263486   4.387   3.645  16.674  0.9721 -0.4434 -0.1586
13999TIP3   OH263487   0.927   0.100   4.062 -0.0507  0.5055 -0.2678
13999TIP3    H163488   0.941   0.184   4.106 -1.2225  1.0204 -0.8400
13999TIP3    H263489   0.914   0.038   4.134  2.4199  0.4475  0.2191
14000TIP3   OH263490   5.343   2.771   4.262 -0.0817  0.5844 -0.1628
14000TIP3    H163491   5.384   2.783   4.348 -0.9450  1.1592  0.1868
14000TIP3    H263492   5.254   2.744   4.282 -0.7648  2.2163 -0.8206
14001TIP3   OH263493   1.911   1.670  16.349 -0.3544 -0.3190  0.0246
14001TIP3    H163494   1.971   1.615  16.300 -0.6778 -0.1466 -0.5701
14001TIP3    H263495   1.964   1.706  16.420 -0.0665 -1.1406  0.2383
14002TIP3   OH263496   1.378   2.989   5.612  0.0861  0.0812 -0.5353
14002TIP3    H163497   1.381   3.084   5.601 -1.6989  0.2641  0.1453
14002TIP3    H263498   1.437   2.971   5.685  1.4241  0.4919 -1.4938
14003TIP3   OH263499   0.284   1.683   0.332  0.3424  0.1358  0.3938
14003TIP3    H163500   0.235   1.626   0.391  1.2939 -1.3982 -0.2290
14003TIP3    H263501   0.375   1.652   0.340  1.2538  2.8266  1.4663
14004TIP3   OH263502   3.967   5.127   4.663 -0.6245  0.5125 -0.1093
14004TIP3    H163503   4.006   5.208   4.632 -0.4620  0.2670 -0.5477
14004TIP3    H263504   3.980   5.065   4.592 -0.8699  0.1386  0.1689
14005TIP3   OH263505   0.269   0.439  12.058  0.4961 -0.7145 -0.3957
14005TIP3    H163506   0.230   0.373  12.115  1.7303  0.5195  2.0179
14005TIP3    H263507   0.208   0.513  12.061  0.9241 -0.3705 -0.0591
14006TIP3   OH263508   1.727   1.685  11.229  0.4899  0.4586  0.4234
14006TIP3    H163509   1.671   1.691  11.307  1.0490  0.3129  0.8380
14006TIP3    H263510   1.743   1.591  11.219 -0.0460  0.4227 -0.2103
14007TIP3   OH263511   3.011   1.929  14.440 -0.3735  0.3143  0.0946
14007TIP3    H163512   2.976   1.995  14.380 -1.5687  0.0535  0.4716
14007TIP3    H263513   2.939   1.911  14.500 -0.0306 -1.2480  0.0721
14008TIP3   OH263514   3.800   0.467  13.363  0.1164 -0.2723 -0.6454
14008TIP3    H163515   3.726   0.524  13.384 -0.9438 -1.0750 -2.0379
14008TIP3    H263516   3.877   0.518  13.388 -0.7856  1.8083 -1.8177
14009TIP3   OH263517   4.107   5.648   3.186  0.0628 -1.0447 -0.2829
14009TIP3    H163518   4.121   5.742   3.184 -0.5010 -0.9155  1.1552
14009TIP3    H263519   4.164   5.614   3.116  1.7963  0.1504  0.4904
14010TIP3   OH263520   3.936   1.801   4.315 -0.1707  0.1324  0.0529
14010TIP3    H163521   3.861   1.746   4.338 -1.4650  1.7233 -0.1657
14010TIP3    H263522   3.897   1.884   4.287  1.6612  0.7902 -0.6949
14011TIP3   OH263523   5.344   5.707   5.034  0.3885 -0.1381  0.0742
14011TIP3    H163524   5.344   5.624   5.083 -0.7786  1.1070  2.3573
14011TIP3    H263525   5.435   5.737   5.037  0.2337  0.2680  2.2543
14012TIP3   OH263526   4.276   6.473   2.308 -0.1780 -0.2002  0.0990
14012TIP3    H163527   4.334   6.433   2.373  1.6547  0.1398 -1.2425
14012TIP3    H263528   4.221   6.400   2.278 -0.9129 -0.4050  1.8312
14013TIP3   OH263529   4.247   2.579   4.412  0.2772 -0.3112 -0.3843
14013TIP3    H163530   4.188   2.630   4.468 -0.1972 -0.8116 -0.4192
14013TIP3    H263531   4.329   2.629   4.412  0.0868  0.0157  0.2582
14014TIP3   OH263532   0.978   6.044  11.492  0.0155  0.4015 -0.4956
14014TIP3    H163533   1.002   6.124  11.538  0.3794 -0.2527  0.4998
14014TIP3    H263534   1.057   6.021  11.442  0.0453  0.4511 -0.4713
14015TIP3   OH263535   3.869   6.224   3.790 -0.1258  0.2189 -0.4590
14015TIP3    H163536   3.910   6.304   3.822 -1.3042  0.9534 -0.7382
14015TIP3    H263537   3.834   6.181   3.868 -0.6434  0.6545 -0.4435
14016TIP3   OH263538   1.703   2.039   0.587  0.2702  0.4398  0.5524
14016TIP3    H163539   1.789   2.082   0.594  2.1118 -2.8124 -0.1324
14016TIP3    H263540   1.678   2.053   0.496  1.0704 -0.2781  0.2117
14017TIP3   OH263541   4.500   3.821   2.160 -0.4613 -0.7081  0.3567
14017TIP3    H163542   4.523   3.764   2.087  0.9567  0.2091  0.0463
14017TIP3    H263543   4.543   3.780   2.236  1.4521  0.4100 -0.0374
14018TIP3   OH263544   3.295   0.907   4.307 -0.1961  0.7714  0.5759
14018TIP3    H163545   3.377   0.942   4.342  0.1835  1.4262 -0.8984
14018TIP3    H263546   3.276   0.962   4.230 -0.9932 -0.5787 -0.2308
14019TIP3   OH263547   2.559   5.176   6.048  0.0822 -0.2263  0.2763
14019TIP3    H163548   2.614   5.252   6.027  0.2819 -0.8083 -1.5652
14019TIP3    H263549   2.476   5.193   6.004  0.1744 -1.1039 -0.2755
14020TIP3   OH263550   4.238   5.975  15.714  0.2780  0.3725 -0.1389
14020TIP3    H163551   4.326   5.937  15.709  0.2306  0.1092  0.7802
14020TIP3    H263552   4.252   6.070  15.707  0.6022  0.3067 -0.3744
14021TIP3   OH263553   6.543   0.103  12.044 -0.1649  0.4777 -0.3018
14021TIP3    H163554   6.632   0.126  12.073 -0.5640  0.2327  1.1899
14021TIP3    H263555   6.532   0.012  12.071 -0.8216  0.4549 -0.6273
14022TIP3   OH263556   6.693   3.060   5.467  0.3363 -0.3071 -0.4347
14022TIP3    H163557   6.614   3.049   5.519  0.6651 -0.8808 -0.0510
14022TIP3    H263558   6.669   3.126   5.401 -0.2965 -0.0949 -0.0041
14023TIP3   OH263559   4.164   5.575   5.458  0.2744  0.2764  0.2251
14023TIP3    H163560   4.103   5.648   5.463 -0.0446  0.2821 -2.3937
14023TIP3    H263561   4.115   5.506   5.412  0.6456 -1.5597  2.3894
14024TIP3   OH263562   4.625   6.575   0.873 -1.1702  0.4751 -0.5771
14024TIP3    H163563   4.704   6.592   0.925 -1.6839 -2.3530  1.3864
14024TIP3    H263564   4.589   6.662   0.855  1.2541  1.7579  0.2523
14025TIP3   OH263565   5.026   6.438   0.011  0.3180 -0.1480 -0.4854
14025TIP3    H163566   5.025   6.522   0.057 -1.4735 -1.0868  1.3402
14025TIP3    H263567   4.935   6.422  -0.013  1.0392 -0.1492 -3.7154
14026TIP3   OH263568   1.677   5.744   0.909  0.4381  0.7506  0.6764
14026TIP3    H163569   1.757   5.721   0.957 -0.2752  0.1710  1.6332
14026TIP3    H263570   1.619   5.780   0.976 -0.6414 -0.1918  0.2792
14027TIP3   OH263571   2.290   5.530  13.564  0.5321 -0.1446  0.6968
14027TIP3    H163572   2.224   5.491  13.507  0.0782 -0.1294  1.1989
14027TIP3    H263573   2.240   5.589  13.621  1.3552  2.4808 -1.0985
14028TIP3   OH263574   0.540   0.725  11.012  0.7123 -0.0910  0.0315
14028TIP3    H163575   0.617   0.774  11.041  1.2135 -0.7319 -0.2024
14028TIP3    H263576   0.561   0.634  11.031 -0.1084 -0.2505  0.2240
14029TIP3   OH263577   1.635   6.360  16.104  0.4149  0.4034 -0.5609
14029TIP3    H163578   1.611   6.445  16.142  0.6872  0.0358  0.4510
14029TIP3    H263579   1.556   6.332  16.058 -0.6236 -0.0590  1.4060
14030TIP3   OH263580   3.265   1.001  14.043 -0.3406 -0.5061  0.9585
14030TIP3    H163581   3.265   1.038  14.131  1.4310 -0.0236  0.7829
14030TIP3    H263582   3.341   1.040  14.001 -0.5933 -1.5053 -0.4739
14031TIP3   OH263583   3.537   4.094   9.946 -0.1414  0.3429 -0.2658
14031TIP3    H163584   3.599   4.164   9.928 -0.5318  0.3770 -1.6626
14031TIP3    H263585   3.462   4.113   9.889 -1.0786 -0.1571  0.7521
14032TIP3   OH263586   2.553   0.659  13.642 -0.6216 -0.1490 -0.8305
14032TIP3    H163587   2.557   0.593  13.711  0.4607  0.9947  0.2483
14032TIP3    H263588   2.469   0.643  13.599 -1.1590 -1.1342  0.5102
14033TIP3   OH263589   3.282   2.669   3.393  0.0692 -0.2589  0.0988
14033TIP3    H163590   3.218   2.726   3.351  0.2615  0.5775  0.9124
14033TIP3    H263591   3.239   2.637   3.472  0.1443 -0.8497 -0.0934
14034TIP3   OH263592   6.284   3.157  12.792 -0.1986  0.0070  0.1448
14034TIP3    H163593   6.215   3.206  12.746  0.3746  0.5344 -0.1745
14034TIP3    H263594   6.360   3.214  12.788  0.6792 -1.1872 -0.8083
14035TIP3   OH263595   3.948   5.015   6.106 -0.0154 -0.6295 -0.2784
14035TIP3    H163596   3.968   4.926   6.135  0.0797 -0.4105  0.3559
14035TIP3    H263597   4.028   5.043   6.061  0.0749 -0.7532 -0.1987
14036TIP3   OH263598   5.069   2.205  13.371 -0.3145  0.5317  0.6021
14036TIP3    H163599   5.091   2.218  13.278 -0.3202 -0.7941  0.3922
14036TIP3    H263600   5.154   2.200  13.415 -0.2660 -0.3090  0.4330
14037TIP3   OH263601   5.700   3.593   1.586  0.1954 -0.3265 -0.5699
14037TIP3    H163602   5.621   3.640   1.560 -0.4456 -1.7649 -1.3721
14037TIP3    H263603   5.675   3.547   1.666  0.4530 -0.2218 -0.4271
14038TIP3   OH263604   6.001   1.820   3.816  0.1246 -0.5589 -0.0395
14038TIP3    H163605   5.975   1.876   3.743  0.2567 -1.8812 -1.1395
14038TIP3    H263606   6.096   1.813   3.807  0.0594 -1.3272 -0.2089
14039TIP3   OH263607   5.071   2.340   4.650  0.5627  0.3579 -0.4314
14039TIP3    H163608   5.116   2.329   4.734  2.1018  0.3917 -1.2004
14039TIP3    H263609   5.052   2.434   4.645  1.1066  0.4734 -0.4156
14040TIP3   OH263610   4.786   0.564   0.632  0.1004  0.5843 -0.5096
14040TIP3    H163611   4.770   0.656   0.653  1.1932  0.5162  0.7537
14040TIP3    H263612   4.703   0.521   0.652  0.1437  1.0287  0.7034
14041TIP3   OH263613   3.200   6.674  14.900  0.0668 -0.1197  0.0904
14041TIP3    H163614   3.150   6.633  14.971 -0.8446  0.6757 -0.0733
14041TIP3    H263615   3.156   6.757  14.885  0.9785  0.2508 -0.6062
14042TIP3   OH263616   3.311   3.965   3.605  0.2577 -0.4742 -0.2066
14042TIP3    H163617   3.327   3.900   3.536 -1.5491 -0.0609 -1.0787
14042TIP3    H263618   3.383   4.028   3.596  0.4765 -0.8508 -1.2007
14043TIP3   OH263619   3.738   2.219  12.925 -0.0787  0.5476 -0.2502
14043TIP3    H163620   3.755   2.303  12.968 -1.3391  1.5731 -1.6246
14043TIP3    H263621   3.682   2.171  12.985 -0.5459  1.3056 -0.0738
14044TIP3   OH263622   4.868   5.687  10.810 -0.4502 -0.3316  0.3789
14044TIP3    H163623   4.960   5.700  10.832 -0.4962  1.0295 -0.1597
14044TIP3    H263624   4.846   5.760  10.752 -1.2010 -1.9685 -1.5437
14045TIP3   OH263625   4.166   5.146  13.238  0.1595 -0.0327 -0.0838
14045TIP3    H163626   4.137   5.061  13.206  1.0846 -0.1367 -0.6782
14045TIP3    H263627   4.239   5.170  13.181  2.1034 -0.3540  2.1325
14046TIP3   OH263628   4.903   6.012   1.058  0.0420  0.3410  0.1917
14046TIP3    H163629   4.808   6.004   1.050 -0.0968  2.1278 -0.2837
14046TIP3    H263630   4.931   5.925   1.087 -1.5467 -0.7230 -1.2199
14047TIP3   OH263631   5.080   5.619  13.025  0.0610 -0.2675  0.4275
14047TIP3    H163632   5.014   5.643  13.090 -0.6110  1.2713 -0.7688
14047TIP3    H263633   5.035   5.626  12.941  1.8485  1.3151 -0.4712
14048TIP3   OH263634   3.169   5.670   4.477  0.2268  0.3085  0.1302
14048TIP3    H163635   3.176   5.591   4.424  1.0583  1.1853 -1.1172
14048TIP3    H263636   3.076   5.679   4.495  0.1484 -1.0593  0.4634
14049TIP3   OH263637   1.264   0.631  12.394 -0.6070  0.2035  0.7982
14049TIP3    H163638   1.301   0.565  12.335 -0.9012  0.6434  0.1143
14049TIP3    H263639   1.333   0.697  12.403 -0.8703  0.5579  0.2658
14050TIP3   OH263640   0.962   4.784  12.456  0.3236 -0.2606  0.4487
14050TIP3    H163641   0.949   4.879  12.462  2.9929  0.3979 -2.0112
14050TIP3    H263642   0.992   4.759  12.543 -1.2373  0.9343  1.3999
14051TIP3   OH263643   5.203   0.886  12.754  0.1075 -0.4826  0.4239
14051TIP3    H163644   5.147   0.933  12.816  1.6707  1.2654  0.6084
14051TIP3    H263645   5.223   0.803  12.798  0.9020  0.5707  2.1364
14052TIP3   OH263646   2.934   4.530   3.473  0.1490  0.5993  0.4163
14052TIP3    H163647   3.024   4.547   3.446  0.3883 -0.7942  0.2321
14052TIP3    H263648   2.881   4.584   3.414  0.7779 -0.3165 -1.0610
14053TIP3   OH263649   6.316   0.444  12.307  0.1779  0.2003  0.5699
14053TIP3    H163650   6.342   0.528  12.271 -2.7846  0.3069 -1.7176
14053TIP3    H263651   6.314   0.385  12.231 -3.3038 -0.3738  0.9211
14054TIP3   OH263652   0.523   4.370  16.665 -0.0950  0.2060  0.4007
14054TIP3    H163653   0.522   4.425  16.743 -0.2001  1.5138 -0.4728
14054TIP3    H263654   0.613   4.376  16.632 -0.1463 -0.0154  0.2197
14055TIP3   OH263655   0.666   5.079   4.379  0.3644 -0.2506  0.5296
14055TIP3    H163656   0.649   5.008   4.317  0.3677  0.9316 -0.8784
14055TIP3    H263657   0.692   5.034   4.460  0.2218 -1.8468 -0.2622
14056TIP3   OH263658   6.810   1.548  16.659  0.1761  0.0907 -0.0557
14056TIP3    H163659   6.803   1.471  16.603  0.6495  0.0407 -0.0492
14056TIP3    H263660   6.731   1.545  16.713  0.4160 -0.6483  0.2697
14057TIP3   OH263661   1.841   0.406   0.495  0.3100 -0.6438 -0.6180
14057TIP3    H163662   1.763   0.411   0.551 -0.1196 -1.2264 -1.1519
14057TIP3    H263663   1.908   0.366   0.551  0.1461 -0.3817 -0.2351
14058TIP3   OH263664   3.853   0.559  12.356 -0.0834 -0.0606  0.2968
14058TIP3    H163665   3.864   0.611  12.435  0.0851  0.0591  0.1937
14058TIP3    H263666   3.783   0.603  12.307 -1.5757 -1.2228  1.2853
14059TIP3   OH263667   6.759   3.503   4.581  0.3691  0.4358  1.1518
14059TIP3    H163668   6.687   3.458   4.625 -0.8221  0.3319 -0.8067
14059TIP3    H263669   6.818   3.528   4.652 -0.9352 -0.6312  2.6855
14060TIP3   OH263670   3.020   5.018  10.825 -0.5780 -0.0054 -0.1193
14060TIP3    H163671   3.030   4.970  10.743 -0.2743 -1.1241  0.5565
14060TIP3    H263672   2.985   4.954  10.887  0.2134  0.5299  0.9169
14061TIP3   OH263673   0.377   4.996  12.508  0.2578  0.0856  0.5513
14061TIP3    H163674   0.317   5.069  12.488  1.1939  0.9734  0.9025
14061TIP3    H263675   0.463   5.037  12.514  0.7679 -1.0252  1.0185
14062TIP3   OH263676   0.956   2.800   3.658 -0.6391  0.1226  1.1120
14062TIP3    H163677   0.986   2.749   3.733 -0.5417 -1.5275 -0.0043
14062TIP3    H263678   0.976   2.891   3.682  2.8424 -0.6116  1.5661
14063TIP3   OH263679   2.904   3.228  13.083  0.1710  0.1316 -0.0039
14063TIP3    H163680   2.920   3.137  13.058 -1.0176  0.0299 -0.4897
14063TIP3    H263681   2.980   3.276  13.049  0.7430 -0.6541  0.1340
14064TIP3   OH263682   0.482   0.574   3.973  0.1253  0.6454 -0.4361
14064TIP3    H163683   0.478   0.513   4.047  0.4099 -0.6847 -1.4951
14064TIP3    H263684   0.551   0.635   3.997  1.3028 -0.7028 -0.2603
14065TIP3   OH263685   2.213   4.412   4.771  0.0519 -0.2885 -0.3571
14065TIP3    H163686   2.179   4.342   4.827  0.4648  0.4018  0.7933
14065TIP3    H263687   2.138   4.469   4.756 -0.1406 -0.6495 -0.8061
14066TIP3   OH263688   1.902   2.958   4.077 -0.7180  0.5597  0.1994
14066TIP3    H163689   1.943   3.035   4.117 -1.0037  0.5138  0.5850
14066TIP3    H263690   1.882   2.901   4.151  0.0340 -0.1531 -0.1320
14067TIP3   OH263691   5.421   0.088   4.204  0.2265 -0.1535  0.6397
14067TIP3    H163692   5.425   0.154   4.135  1.9384 -0.7202  0.1634
14067TIP3    H263693   5.390   0.009   4.160  0.9536 -0.4157  0.5934
14068TIP3   OH263694   4.081   1.551   5.948 -0.7272 -0.1776  0.5633
14068TIP3    H163695   4.147   1.484   5.967 -0.5615 -0.2971 -0.3719
14068TIP3    H263696   3.997   1.505   5.957 -0.5789 -1.0239 -1.7797
14069TIP3   OH263697   3.519   5.770   2.599  0.2107 -0.2540 -0.0276
14069TIP3    H163698   3.520   5.766   2.695 -1.2172  1.2767  0.1120
14069TIP3    H263699   3.557   5.856   2.579  0.4116 -0.5296 -0.8322
14070TIP3   OH263700   1.258   1.437  14.348 -0.2165  0.1034  0.3213
14070TIP3    H163701   1.229   1.440  14.439 -2.5149  0.9175 -0.3717
14070TIP3    H263702   1.323   1.507  14.341  1.0068 -0.8233  1.5847
14071TIP3   OH263703   4.817   4.213  14.687 -0.0417  0.1486 -0.5895
14071TIP3    H163704   4.856   4.163  14.759 -1.3486  1.2860  0.9918
14071TIP3    H263705   4.882   4.208  14.617  1.8533 -0.0481  1.0581
14072TIP3   OH263706   1.739   5.440   5.242 -0.1120  0.0100  0.5250
14072TIP3    H163707   1.710   5.523   5.279  1.1266  1.2553 -1.0910
14072TIP3    H263708   1.675   5.421   5.173  0.9210  1.0085 -0.7872
14073TIP3   OH263709   6.266   0.422   4.191  0.2347  0.1363 -0.1687
14073TIP3    H163710   6.174   0.396   4.201  0.1677 -0.7163 -2.3657
14073TIP3    H263711   6.262   0.507   4.147  0.5018  0.2874  0.0985
14074TIP3   OH263712   2.231   1.511  15.798 -0.3470  0.2834  0.4053
14074TIP3    H163713   2.234   1.495  15.892  0.9215  1.2224  0.5522
14074TIP3    H263714   2.248   1.604  15.788  0.5527  0.0239 -0.7909
14075TIP3   OH263715   3.033   0.032  15.123 -0.0191 -0.5389 -0.3181
14075TIP3    H163716   3.032   0.075  15.209 -4.5053 -1.0218  0.0946
14075TIP3    H263717   3.080  -0.050  15.139  2.2026  0.8056  0.6925
14076TIP3   OH263718   3.130   6.437   4.289 -0.4420  0.0845  0.3817
14076TIP3    H163719   3.191   6.494   4.243  1.4142 -2.3111 -0.3370
14076TIP3    H263720   3.085   6.388   4.220  0.8503 -2.0546  0.9905
14077TIP3   OH263721   5.388   1.621  12.245 -0.0682 -0.0186  0.4321
14077TIP3    H163722   5.468   1.655  12.285  0.2167 -0.8007  0.5480
14077TIP3    H263723   5.420   1.560  12.178 -0.5670  0.0700  0.1076
14078TIP3   OH263724   6.633   2.390   3.686 -0.0157  0.4039  0.4780
14078TIP3    H163725   6.727   2.378   3.675 -0.2202 -1.5505  0.4846
14078TIP3    H263726   6.600   2.303   3.711 -1.7631  1.1306  0.8694
14079TIP3   OH263727   5.389   2.069  14.986  0.2521 -0.7313 -0.2069
14079TIP3    H163728   5.453   2.110  15.044 -0.4997 -0.4557  0.4372
14079TIP3    H263729   5.308   2.115  15.003  0.0793 -0.4400 -1.7112
14080TIP3   OH263730   6.630   6.312  13.558  0.0081 -0.4912 -0.5799
14080TIP3    H163731   6.545   6.292  13.597  0.1504  1.0564  0.6407
14080TIP3    H263732   6.608   6.360  13.478 -0.3035  0.4366  0.0381
14081TIP3   OH263733   3.992   3.403  11.544  0.0023  0.3465  0.2352
14081TIP3    H163734   3.902   3.422  11.572 -0.8242 -1.4313 -1.0106
14081TIP3    H263735   4.021   3.482  11.499 -0.3124  1.5327  2.0048
14082TIP3   OH263736   3.665   3.596  10.703 -0.5454 -0.1402  0.1702
14082TIP3    H163737   3.716   3.667  10.662  1.8804 -0.7960  1.8275
14082TIP3    H263738   3.706   3.516  10.670 -1.4605 -0.7348  0.4542
14083TIP3   OH263739   2.189   0.032  12.752  0.6076 -0.2718  0.1015
14083TIP3    H163740   2.166   0.125  12.757 -1.0181 -0.6479 -0.0347
14083TIP3    H263741   2.109  -0.014  12.777  1.5987 -1.6421  0.9118
14084TIP3   OH263742   2.325   3.411   5.842 -0.2844  0.4340  0.5223
14084TIP3    H163743   2.363   3.327   5.814 -0.5487 -0.0645  1.5987
14084TIP3    H263744   2.249   3.423   5.786  0.7529  0.8413 -0.8356
14085TIP3   OH263745   6.446   3.243   0.591 -0.3885 -0.0144 -0.0999
14085TIP3    H163746   6.409   3.216   0.675 -0.4644 -1.7321 -0.6467
14085TIP3    H263747   6.539   3.254   0.608 -0.6145  1.0483  0.5163
14086TIP3   OH263748   1.856   3.034  12.670 -0.4506 -0.0767  0.2169
14086TIP3    H163749   1.787   2.991  12.722 -0.7136  2.6865  2.4147
14086TIP3    H263750   1.826   3.025  12.580 -3.6742  0.7911  1.0481
14087TIP3   OH263751   4.171   6.317  16.973  0.3660 -0.0143  0.7292
14087TIP3    H163752   4.263   6.290  16.973  0.2854 -0.3314 -0.4633
14087TIP3    H263753   4.125   6.246  16.928 -0.0853  1.3251 -1.0201
14088TIP3   OH263754   1.325   5.154  14.746  0.0934 -0.4235 -0.0160
14088TIP3    H163755   1.261   5.104  14.696 -0.7109 -0.1587  0.7249
14088TIP3    H263756   1.409   5.131  14.707 -0.3767 -1.3820 -0.5014
14089TIP3   OH263757   5.297   4.720  16.463  0.0525  0.5250  0.5677
14089TIP3    H163758   5.270   4.635  16.497 -0.5432  0.6049  0.3044
14089TIP3    H263759   5.367   4.700  16.401 -0.0828  0.2250  0.5121
14090TIP3   OH263760   1.559   4.465   1.068  0.1266 -0.2525  0.1639
14090TIP3    H163761   1.602   4.439   0.987  0.8931 -3.4292  1.4580
14090TIP3    H263762   1.466   4.453   1.050  0.2474 -0.4060 -0.3848
14091TIP3   OH263763   0.798   0.359   3.653 -0.0266  0.2042 -0.8362
14091TIP3    H163764   0.846   0.295   3.704 -0.5537  0.9858  0.7154
14091TIP3    H263765   0.718   0.314   3.627 -1.0528  0.5739  1.4273
14092TIP3   OH263766   0.800   3.321  13.096  0.3405  0.7213 -0.3278
14092TIP3    H163767   0.853   3.344  13.019  0.2904  0.5276 -0.4184
14092TIP3    H263768   0.852   3.353  13.170  0.1473  1.3826 -0.4677
14093TIP3   OH263769   5.684   5.117  12.224  0.0144  0.1719 -0.0470
14093TIP3    H163770   5.714   5.033  12.190  0.0686  0.0598  0.2742
14093TIP3    H263771   5.636   5.157  12.152  2.1769  1.0139 -1.1199
14094TIP3   OH263772   6.637   5.201  12.654 -0.2064  0.0865  0.0719
14094TIP3    H163773   6.584   5.186  12.575 -0.1518 -0.6074  0.1602
14094TIP3    H263774   6.711   5.142  12.644  0.9362  1.5263 -0.3747
14095TIP3   OH263775   3.090   5.104   5.585  0.3858  0.2837 -0.1895
14095TIP3    H163776   3.126   5.080   5.500 -2.0952 -0.3154 -1.1719
14095TIP3    H263777   3.165   5.136   5.635  2.5095 -2.2907 -1.4725
14096TIP3   OH263778   6.860   0.419   0.610  0.2424 -1.0196 -0.0964
14096TIP3    H163779   6.860   0.326   0.631 -2.2425 -0.7778  1.3740
14096TIP3    H263780   6.953   0.442   0.604  0.9159 -3.5888 -0.6729
14097TIP3   OH263781   1.535   1.570  10.669 -0.0691  0.4070  0.3153
14097TIP3    H163782   1.505   1.569  10.760  0.0011 -1.2312  0.3502
14097TIP3    H263783   1.460   1.535  10.620 -1.8537  5.1945 -0.9310
14098TIP3   OH263784   6.535   0.773  14.842 -0.0612 -0.7223  0.3898
14098TIP3    H163785   6.556   0.828  14.918  1.1078 -1.8364  0.9263
14098TIP3    H263786   6.569   0.822  14.767 -0.0913 -0.1762  0.7274
14099TIP3   OH263787   3.513   4.939  14.677 -0.1008  0.3414  0.2122
14099TIP3    H163788   3.456   4.981  14.613 -1.2754  0.6804  1.4360
14099TIP3    H263789   3.551   4.865  14.629 -0.4715  0.9230 -1.0422
14100TIP3   OH263790   6.796   2.267   1.988  0.0016  0.0859 -0.0533
14100TIP3    H163791   6.772   2.214   1.912 -0.5188 -1.2683  1.0287
14100TIP3    H263792   6.774   2.357   1.962 -0.0934 -0.3355 -1.5213
14101TIP3   OH263793   2.889   6.524   1.243 -0.4143  0.1329  0.5189
14101TIP3    H163794   2.803   6.533   1.201 -0.6077 -0.0863  0.8603
14101TIP3    H263795   2.943   6.590   1.201 -0.4494 -0.4417 -0.4526
14102TIP3   OH263796   6.113   2.162  13.771  0.2062  0.0006  0.0820
14102TIP3    H163797   6.138   2.074  13.743  2.0580  0.1594  1.0759
14102TIP3    H263798   6.074   2.202  13.693  0.4677 -1.2808 -0.7340
14103TIP3   OH263799   1.250   2.746   5.827  0.3667 -0.6059  0.1849
14103TIP3    H163800   1.259   2.704   5.912  0.6123  1.9696  1.5488
14103TIP3    H263801   1.299   2.828   5.836 -1.8788  1.0623 -1.4494
14104TIP3   OH263802   3.280   3.022   1.899  0.0416 -0.4426 -0.1513
14104TIP3    H163803   3.207   3.083   1.905 -0.3834 -0.8595 -0.8873
14104TIP3    H263804   3.339   3.048   1.969 -1.3284 -0.7939  1.1872
14105TIP3   OH263805   2.893   4.959   3.750 -0.0503 -0.2291 -0.1107
14105TIP3    H163806   2.877   4.929   3.660 -0.6901  0.9891 -0.4113
14105TIP3    H263807   2.910   5.053   3.742  0.6623 -0.2461  0.9641
14106TIP3   OH263808   4.654   2.951   0.283  0.2293 -0.2809  0.7556
14106TIP3    H163809   4.613   2.866   0.294 -1.2593  0.3052  0.0421
14106TIP3    H263810   4.581   3.012   0.272  1.2691  1.0008  0.6611
14107TIP3   OH263811   3.800   6.291  15.355  0.5176  0.3910  0.4544
14107TIP3    H163812   3.739   6.236  15.305  0.9647 -0.1228  0.4641
14107TIP3    H263813   3.883   6.283  15.308  1.0981 -0.5836  1.6045
14108TIP3   OH263814   1.305   6.620   6.177  0.0591  0.1037  0.4748
14108TIP3    H163815   1.366   6.550   6.200  0.1597  0.3528  0.9862
14108TIP3    H263816   1.221   6.591   6.212  0.6454  1.5476  3.4216
14109TIP3   OH263817   2.422   1.962  13.485 -0.6499  0.5078  0.0650
14109TIP3    H163818   2.391   2.048  13.457 -0.5368  0.1852 -1.0867
14109TIP3    H263819   2.441   1.916  13.404  1.6449  0.2418  0.6975
14110TIP3   OH263820   3.265   4.406  17.077 -0.0143 -0.4014  0.2391
14110TIP3    H163821   3.222   4.476  17.027  0.4921 -1.0293 -1.1128
14110TIP3    H263822   3.195   4.370  17.132 -0.4993  0.5529  0.2810
14111TIP3   OH263823   5.309   5.522   5.873 -0.3350 -0.2081 -0.3438
14111TIP3    H163824   5.255   5.597   5.846 -0.6350 -0.8760 -1.6424
14111TIP3    H263825   5.327   5.475   5.792  2.7857  0.3360 -0.1122
14112TIP3   OH263826   4.222   1.425   5.119 -0.3386  0.1794 -0.0960
14112TIP3    H163827   4.129   1.416   5.098 -0.8047  0.6997  1.6138
14112TIP3    H263828   4.245   1.512   5.088 -1.1178  1.0927  1.7165
14113TIP3   OH263829   0.849   1.828  12.273  0.0275 -0.2162  0.1418
14113TIP3    H163830   0.897   1.910  12.260 -0.2026 -0.2180 -0.7625
14113TIP3    H263831   0.849   1.786  12.187 -2.0955  0.0568 -0.0297
14114TIP3   OH263832   6.578   1.968  16.644  0.3250 -0.2797 -0.2310
14114TIP3    H163833   6.499   1.977  16.591  1.0918  0.7737 -1.2443
14114TIP3    H263834   6.556   2.009  16.728 -0.7905 -1.6811  0.2129
14115TIP3   OH263835   5.954   1.337  11.178  0.1821  0.5012 -0.4729
14115TIP3    H163836   5.990   1.369  11.261 -0.6764 -1.4512  0.7217
14115TIP3    H263837   5.978   1.404  11.115 -1.9206  3.7709  1.8589
14116TIP3   OH263838   5.250   4.368  11.817  0.0007 -0.2781 -0.3012
14116TIP3    H163839   5.335   4.387  11.778  0.7336  1.3927  1.9150
14116TIP3    H263840   5.215   4.295  11.765  1.5822  0.7156 -2.9298
14117TIP3   OH263841   6.367   1.073  14.890 -0.2845 -0.2298  0.0393
14117TIP3    H163842   6.392   1.163  14.912 -0.5292 -0.2864  0.5768
14117TIP3    H263843   6.429   1.019  14.938  0.1794 -0.3508 -0.6815
14118TIP3   OH263844   2.640   3.028   4.837  0.3361 -0.1542 -0.1151
14118TIP3    H163845   2.574   3.021   4.906  3.0142  3.6093  3.3281
14118TIP3    H263846   2.593   3.007   4.757 -4.7558  1.0130  2.1554
14119TIP3   OH263847   3.286   4.120   6.369 -0.3589  0.3667  0.0900
14119TIP3    H163848   3.269   4.199   6.421  0.6229  0.6378  0.0154
14119TIP3    H263849   3.344   4.068   6.424 -2.1372 -1.0112  0.7729
14120TIP3   OH263850   2.165   1.913   2.552 -0.7481  0.6416  0.0650
14120TIP3    H163851   2.084   1.861   2.553 -0.3533 -0.0221 -1.0181
14120TIP3    H263852   2.209   1.887   2.472  0.0726  1.7415  0.1400
14121TIP3   OH263853   1.528   6.596   2.290  0.4043  0.1582  0.0068
14121TIP3    H163854   1.546   6.516   2.241 -0.0919  0.4325 -0.6339
14121TIP3    H263855   1.442   6.580   2.331  0.1193  0.5115 -0.4474
14122TIP3   OH263856   6.435   1.306  15.054 -0.3096  0.9909  0.4132
14122TIP3    H163857   6.396   1.380  15.009 -0.1996 -0.4599 -2.2886
14122TIP3    H263858   6.529   1.325  15.057 -0.4248  1.4948  0.8456
14123TIP3   OH263859   3.462   5.211   0.127  0.0899  0.4795 -0.1707
14123TIP3    H163860   3.505   5.153   0.190 -1.2335  0.5750  0.8590
14123TIP3    H263861   3.528   5.226   0.059  1.7778  0.8696  1.4805
14124TIP3   OH263862   1.683   0.819   0.003  0.3752 -0.1293 -0.1892
14124TIP3    H163863   1.641   0.733   0.001  0.8083 -0.3202 -1.5892
14124TIP3    H263864   1.665   0.851   0.092 -0.5084 -1.2925  0.0860
14125TIP3   OH263865   6.166   2.186  16.401 -0.4985  0.0240  0.1752
14125TIP3    H163866   6.139   2.258  16.459  1.1424  0.7761  0.0514
14125TIP3    H263867   6.129   2.209  16.316  0.4032  0.9805  0.0308
14126TIP3   OH263868   6.631   5.771  14.628  0.1262  0.0070  0.0838
14126TIP3    H163869   6.621   5.688  14.675 -2.0955 -0.7023 -1.4564
14126TIP3    H263870   6.599   5.752  14.540  2.0240  1.8748 -1.0696
14127TIP3   OH263871   6.323   6.030  14.401 -0.4504 -0.4769 -0.2413
14127TIP3    H163872   6.282   6.108  14.363 -0.4560 -0.1199  0.4801
14127TIP3    H263873   6.259   5.961  14.388 -0.8055 -0.1732 -0.1426
14128TIP3   OH263874   4.504   3.666  12.684 -0.5637 -0.0933 -0.2344
14128TIP3    H163875   4.518   3.663  12.778 -0.3504 -0.3165 -0.2723
14128TIP3    H263876   4.433   3.603  12.669 -0.4833 -0.1830 -0.2414
14129TIP3   OH263877   3.820   4.435  15.493 -0.5265 -0.0352  0.7875
14129TIP3    H163878   3.736   4.430  15.446 -0.9998  1.8980  1.3381
14129TIP3    H263879   3.885   4.448  15.424 -0.7684 -0.7622  0.4141
14130TIP3   OH263880   0.399   2.644  16.807 -0.3021 -0.6296 -0.0102
14130TIP3    H163881   0.461   2.652  16.880 -1.2775 -0.4279  0.8215
14130TIP3    H263882   0.452   2.663  16.729  0.3368  1.2474  0.7961
14131TIP3   OH263883   2.591   5.890  16.748  0.3905  0.2369  0.5339
14131TIP3    H163884   2.676   5.893  16.793  0.0261 -0.6691  1.3093
14131TIP3    H263885   2.609   5.847  16.665  1.0429  1.7778 -0.1712
14132TIP3   OH263886   5.418   1.052  16.230 -0.5009 -0.3016  0.0586
14132TIP3    H163887   5.353   0.984  16.217  1.6229 -2.2760 -0.8321
14132TIP3    H263888   5.367   1.132  16.244 -3.1004 -2.0623  1.4092
14133TIP3   OH263889   4.047   1.790  15.732  0.8371  0.1109 -0.1426
14133TIP3    H163890   4.124   1.766  15.680 -0.7453 -0.3461 -2.4167
14133TIP3    H263891   3.999   1.851  15.676 -0.2143  0.7999  1.4551
14134TIP3   OH263892   4.929   1.480   3.155  0.4847  0.1668 -0.0289
14134TIP3    H163893   4.857   1.465   3.093 -1.4247 -4.9858  2.8408
14134TIP3    H263894   4.993   1.413   3.135  0.4795 -0.7118  2.4769
14135TIP3   OH263895   1.421   4.573  16.430  0.0458  0.3531  0.3236
14135TIP3    H163896   1.516   4.569  16.423  0.4198  1.3152  3.3680
14135TIP3    H263897   1.401   4.667  16.431 -0.7177  0.1982  1.4295
14136TIP3   OH263898   3.528   2.101   4.510  0.0508 -0.9293  0.2385
14136TIP3    H163899   3.518   2.154   4.590  0.2240 -0.0919 -0.2832
14136TIP3    H263900   3.580   2.025   4.538  2.6563  0.7704  0.3536
14137TIP3   OH263901   1.007   0.851   6.367 -0.4769  0.1508 -0.2474
14137TIP3    H163902   0.930   0.798   6.345  0.6583 -1.5239 -0.3749
14137TIP3    H263903   1.081   0.801   6.332  0.7923  0.9898  1.1398
14138TIP3   OH263904   2.729   4.327  15.425  0.4123 -0.5972 -0.5334
14138TIP3    H163905   2.775   4.386  15.366  0.3089 -0.3136 -0.3281
14138TIP3    H263906   2.702   4.381  15.499 -1.2639 -0.4862 -1.1798
14139TIP3   OH263907   1.974   5.437  16.739  0.1731  0.5031  0.5273
14139TIP3    H163908   2.003   5.497  16.808  2.6726 -0.4949  0.4630
14139TIP3    H263909   2.052   5.386  16.718 -1.0394 -0.5750 -1.6738
14140TIP3   OH263910   1.587   3.235   2.815  0.1081 -0.1409  0.2715
14140TIP3    H163911   1.640   3.156   2.798 -0.3558 -0.8399  1.8712
14140TIP3    H263912   1.510   3.224   2.760  0.7131 -0.0653 -0.6185
14141TIP3   OH263913   2.688   3.218  11.276  0.2378  0.4292  0.0238
14141TIP3    H163914   2.669   3.281  11.206 -0.8056  2.8511  2.3330
14141TIP3    H263915   2.602   3.195  11.311  0.6061 -2.2184 -0.5690
14142TIP3   OH263916   6.276   1.195  12.794  0.1357  0.3510  0.1676
14142TIP3    H163917   6.225   1.185  12.713 -0.5941 -1.5725  0.8065
14142TIP3    H263918   6.212   1.223  12.859  0.3132 -0.0130  0.5051
14143TIP3   OH263919   2.053   5.538   5.164  0.0916 -0.8776  0.5379
14143TIP3    H163920   2.046   5.466   5.227  0.7014  0.6873  2.5151
14143TIP3    H263921   2.146   5.540   5.141 -0.1463 -1.5032 -0.5329
14144TIP3   OH263922   1.075   2.322   5.089 -0.0260 -0.3807 -0.1989
14144TIP3    H163923   1.068   2.291   4.999 -0.3846 -3.2742  0.7022
14144TIP3    H263924   1.007   2.273   5.136  0.5103  0.6445  1.7327
14145TIP3   OH263925   6.039   1.548   1.017 -0.5656  0.2217  0.2057
14145TIP3    H163926   6.050   1.643   1.025 -0.5709  0.1184  2.1027
14145TIP3    H263927   6.095   1.512   1.086  1.2460 -1.3174 -1.9368
14146TIP3   OH263928   5.265   6.126  16.315  0.5238  0.2158 -0.0474
14146TIP3    H163929   5.323   6.129  16.391  0.2390  0.1793  0.1757
14146TIP3    H263930   5.243   6.218  16.299  0.3229  0.2012  0.1242
14147TIP3   OH263931   6.717   5.944  12.652  0.5226  0.4897 -0.4926
14147TIP3    H163932   6.650   6.001  12.690  1.0981  0.5600  0.4471
14147TIP3    H263933   6.726   5.873  12.715  1.1533  0.3507 -0.7379
14148TIP3   OH263934   6.793   2.314   1.172 -0.2755  0.0665  0.1044
14148TIP3    H163935   6.724   2.248   1.181 -1.0737  0.9867  0.8463
14148TIP3    H263936   6.831   2.323   1.259  0.0098  0.3990 -0.0479
14149TIP3   OH263937   5.082   4.471   3.684  0.3749  0.0967  0.0404
14149TIP3    H163938   5.000   4.429   3.660  1.1106  0.0078 -2.7676
14149TIP3    H263939   5.122   4.412   3.748 -0.3358 -1.5366 -0.9631
14150TIP3   OH263940   3.475   4.005  15.234  0.2754 -0.0075  0.0581
14150TIP3    H163941   3.531   4.031  15.161  0.6198  0.0003  0.3221
14150TIP3    H263942   3.535   3.993  15.307  0.2197 -2.0353 -0.1590
14151TIP3   OH263943   0.008   0.157   0.720  0.6262 -1.2465  0.1709
14151TIP3    H163944   0.064   0.112   0.782 -0.1304 -1.4038  0.7626
14151TIP3    H263945  -0.067   0.186   0.772  0.9660  0.4977 -0.2270
14152TIP3   OH263946   3.919   4.377  15.036  0.3471  0.1265 -0.0597
14152TIP3    H163947   4.002   4.404  15.074 -0.7283  0.0728  2.5173
14152TIP3    H263948   3.931   4.284  15.016  1.0525  0.2454 -0.2231
14153TIP3   OH263949   0.959   6.571  16.901 -0.0452 -0.2971  0.3829
14153TIP3    H163950   0.999   6.501  16.952  0.0071 -0.3138  0.3197
14153TIP3    H263951   0.927   6.634  16.966  1.5456  0.5292  0.3980
14154TIP3   OH263952   5.982   5.511   1.049  1.3512 -0.0434  0.2176
14154TIP3    H163953   6.065   5.479   1.014  0.3447  0.4470 -2.8813
14154TIP3    H263954   5.958   5.584   0.993 -1.2315 -0.2179  0.9508
14155TIP3   OH263955   3.087   5.013  12.707  0.7556  0.4664  0.1669
14155TIP3    H163956   3.035   5.093  12.716  1.3439  0.7488  1.1506
14155TIP3    H263957   3.105   5.007  12.613  0.0168  1.0478 -0.0189
14156TIP3   OH263958   5.104   6.759  13.386 -0.8225 -0.1473  0.0003
14156TIP3    H163959   5.014   6.790  13.376 -0.8197  0.2470  1.1271
14156TIP3    H263960   5.096   6.663  13.383 -0.9833 -0.1088 -2.1490
14157TIP3   OH263961   3.778   6.146   1.560 -0.7038 -0.1564 -0.0859
14157TIP3    H163962   3.783   6.239   1.581  0.6784  0.0085 -0.9881
14157TIP3    H263963   3.849   6.107   1.612 -0.5843 -0.5281 -0.5272
14158TIP3   OH263964   3.676   5.552   2.610 -0.6265 -0.0122 -0.2347
14158TIP3    H163965   3.711   5.510   2.532 -0.4812 -0.5002  0.0925
14158TIP3    H263966   3.609   5.612   2.576 -0.1261  0.2504 -0.7817
14159TIP3   OH263967   2.958   4.627  13.999  0.3345 -0.8976  0.3810
14159TIP3    H163968   3.023   4.623  13.929  0.7537 -0.8057  0.7620
14159TIP3    H263969   2.874   4.636  13.954  0.6312 -0.5364 -0.0979
14160TIP3   OH263970   4.475   5.354  13.854  0.3700 -0.1742  0.0915
14160TIP3    H163971   4.550   5.301  13.828 -0.2681 -1.6973  1.1210
14160TIP3    H263972   4.400   5.310  13.814  0.0180  1.6136 -1.3501
14161TIP3   OH263973   6.828   3.954   0.656 -0.4712  0.4821  0.1929
14161TIP3    H163974   6.788   4.041   0.664  1.0311  1.4538 -1.8079
14161TIP3    H263975   6.804   3.925   0.568  0.2053 -0.5155  0.3275
14162TIP3   OH263976   2.423   0.380   4.796  0.3359  0.2756 -0.6787
14162TIP3    H163977   2.338   0.412   4.766  0.2569  1.6374  0.8311
14162TIP3    H263978   2.481   0.455   4.788  0.4034  0.6090  1.9740
14163TIP3   OH263979   5.305   0.546   1.660  0.1481 -0.1875  0.4402
14163TIP3    H163980   5.248   0.544   1.584 -0.1089  2.0172  0.4977
14163TIP3    H263981   5.390   0.574   1.625 -0.2065  1.7999  1.0014
14164TIP3   OH263982   0.263   2.244   1.841 -0.2512 -0.2458  0.1782
14164TIP3    H163983   0.249   2.204   1.926  1.4434  0.3110  0.7668
14164TIP3    H263984   0.268   2.338   1.859 -1.7918  0.0851 -0.8424
14165TIP3   OH263985   5.163   1.349  16.982  0.5584  0.2420 -0.0964
14165TIP3    H163986   5.214   1.319  17.057  1.1156 -0.1206 -0.6153
14165TIP3    H263987   5.227   1.361  16.912  0.0900  0.9122 -0.4166
14166TIP3   OH263988   2.458   2.107   2.299 -0.5141  0.0231 -0.2685
14166TIP3    H163989   2.377   2.125   2.346 -1.0437 -0.0948 -1.1193
14166TIP3    H263990   2.522   2.167   2.338 -0.5458 -1.0686  1.6102
14167TIP3   OH263991   0.748   6.261   3.695  0.4990  0.3572  0.2454
14167TIP3    H163992   0.714   6.349   3.678  0.0599 -0.1143 -1.4458
14167TIP3    H263993   0.843   6.273   3.696  0.4354  0.9026  0.3392
14168TIP3   OH263994   4.030   5.426   3.863 -0.1684  0.0887 -0.5642
14168TIP3    H163995   4.092   5.370   3.815  0.8506  1.2122 -0.6024
14168TIP3    H263996   4.037   5.397   3.954  0.2852  0.0921 -0.5975
14169TIP3   OH263997   1.240   2.020   5.885  0.0317  0.7840  0.1619
14169TIP3    H163998   1.270   1.971   5.808 -0.3824  2.6435 -1.2585
14169TIP3    H263999   1.253   1.960   5.958  1.2589 -0.7544 -1.2334
14170TIP3   OH264000   5.062   1.232  12.661  0.2048  0.1025  0.0617
14170TIP3    H164001   5.042   1.176  12.586 -1.6253  0.1115  0.5093
14170TIP3    H264002   5.052   1.176  12.737  0.1526  0.5808  0.4136
14171TIP3   OH264003   5.614   2.177  14.439 -1.2058  0.2044 -0.3180
14171TIP3    H164004   5.676   2.243  14.407 -1.7461  0.1749 -1.4394
14171TIP3    H264005   5.665   2.126  14.502 -0.6627  1.4294  0.2858
14172TIP3   OH264006   4.852   5.332   0.813  0.2906 -0.6117 -0.5311
14172TIP3    H164007   4.810   5.399   0.867 -0.9009  0.3396 -2.5482
14172TIP3    H264008   4.870   5.376   0.730  1.3803 -2.2479 -1.2080
14173TIP3   OH264009   0.338   2.359  16.136  0.1266 -0.1676 -0.1744
14173TIP3    H164010   0.260   2.359  16.080 -1.0839 -1.2962  1.4086
14173TIP3    H264011   0.305   2.382  16.223  2.1713  3.0480 -0.1061
14174TIP3   OH264012   4.279   6.611   3.957  0.3896 -0.2345 -0.0236
14174TIP3    H164013   4.192   6.617   3.917 -0.1002  0.9245  1.1094
14174TIP3    H264014   4.271   6.541   4.022  0.9210 -1.5018 -1.2820
14175TIP3   OH264015   0.266   5.746  14.274  0.6222 -0.9255 -0.0197
14175TIP3    H164016   0.228   5.695  14.203  1.1089 -0.0129 -0.9451
14175TIP3    H264017   0.191   5.772  14.328  0.1742 -1.0026 -0.6005
14176TIP3   OH264018   0.372   3.692  16.109  0.0221  0.4918 -0.3008
14176TIP3    H164019   0.376   3.680  16.204  1.0987  0.7164 -0.3087
14176TIP3    H264020   0.300   3.636  16.080  1.0233 -1.2019  0.3876
14177TIP3   OH264021   0.087   4.035   5.518  0.1290  0.0275 -0.3174
14177TIP3    H164022   0.180   4.019   5.499  0.4353  1.4741 -0.1491
14177TIP3    H264023   0.082   4.129   5.535 -1.2516 -0.1591  0.4157
14178TIP3   OH264024   1.000   2.964  12.128  0.5373 -0.3931 -0.0968
14178TIP3    H164025   1.035   2.935  12.043  1.1168  1.6726 -0.6314
14178TIP3    H264026   0.908   2.939  12.125  0.5952 -0.5572 -1.2576
14179TIP3   OH264027   0.650   5.422  15.793 -0.8333  0.1314  0.0292
14179TIP3    H164028   0.643   5.498  15.735 -1.2633  0.0378 -0.0491
14179TIP3    H264029   0.675   5.350  15.735 -1.1676  0.0584 -0.0298
14180TIP3   OH264030   6.777   2.541  11.139  0.3828  0.2190  0.1366
14180TIP3    H164031   6.854   2.522  11.085  0.7976  1.0447  0.4294
14180TIP3    H264032   6.731   2.611  11.092 -1.0122 -1.2723 -0.8136
14181TIP3   OH264033   4.083   6.157   4.673 -0.0862  0.0310  0.8264
14181TIP3    H164034   3.988   6.160   4.675 -0.1231 -0.8591  0.8043
14181TIP3    H264035   4.104   6.096   4.603  0.5153  0.6720  0.4424
14182TIP3   OH264036   5.527   5.349  13.877 -0.3884  0.5058 -0.4619
14182TIP3    H164037   5.581   5.289  13.929 -2.4364 -0.1784  1.0360
14182TIP3    H264038   5.583   5.425  13.861  1.1969 -0.4143  0.4359
14183TIP3   OH264039   0.467   5.703  13.625 -0.1094 -0.2389  0.5984
14183TIP3    H164040   0.550   5.746  13.605  0.4556 -2.0667 -1.4807
14183TIP3    H264041   0.401   5.771  13.612  0.9784  1.0528  1.5350
14184TIP3   OH264042   0.822   4.473   4.457  0.4029  0.1140  0.5200
14184TIP3    H164043   0.737   4.457   4.498  0.7245 -0.2129  1.0675
14184TIP3    H264044   0.808   4.549   4.400 -0.7265 -1.0439 -0.8253
14185TIP3   OH264045   5.072   5.312  16.181  0.2155 -0.3292 -0.2789
14185TIP3    H164046   5.113   5.257  16.114 -0.3783 -1.7948  0.5198
14185TIP3    H264047   5.006   5.362  16.133  2.0957  1.2276 -1.3770
14186TIP3   OH264048   3.892   1.539   5.323  0.4232  0.4061  0.1676
14186TIP3    H164049   3.816   1.568   5.273  0.8632  1.8704  0.3000
14186TIP3    H264050   3.896   1.445   5.308  0.5289  0.7685 -2.5806
14187TIP3   OH264051   5.783   2.256   5.706 -0.1237 -0.6440 -0.1566
14187TIP3    H164052   5.695   2.247   5.668 -0.9810  1.0853  1.2724
14187TIP3    H264053   5.788   2.187   5.772 -0.1330 -1.1590 -0.6832
14188TIP3   OH264054   3.983   0.275   0.464  0.3903  0.4811 -0.8039
14188TIP3    H164055   4.070   0.284   0.424  0.3317  1.4286 -0.7374
14188TIP3    H264056   3.945   0.197   0.421  1.3556 -0.0858 -0.6590
14189TIP3   OH264057   2.675   6.354  15.204 -0.1771  0.3275 -0.2393
14189TIP3    H164058   2.700   6.372  15.113  1.5861 -0.5996  0.0256
14189TIP3    H264059   2.735   6.406  15.257 -1.4626  1.1885  0.4226
14190TIP3   OH264060   5.880   5.769   5.931  0.1954  0.4216  0.5161
14190TIP3    H164061   5.831   5.721   5.998  1.3586  0.0194  1.0937
14190TIP3    H264062   5.944   5.707   5.898 -1.6139 -0.0723 -2.4751
14191TIP3   OH264063   6.172   5.182   4.995 -0.3303 -0.2747  0.0812
14191TIP3    H164064   6.113   5.120   4.951 -0.7214  1.7929 -2.5497
14191TIP3    H264065   6.188   5.143   5.081 -3.2872 -2.2941 -0.1468
14192TIP3   OH264066   0.709   5.176  16.912 -0.3858  0.4604  0.2112
14192TIP3    H164067   0.691   5.268  16.929 -1.0572  0.5821 -0.9802
14192TIP3    H264068   0.720   5.172  16.817 -1.3020 -0.8287  0.1400
14193TIP3   OH264069   1.565   3.739  13.712 -0.5197 -0.1964  0.7162
14193TIP3    H164070   1.557   3.671  13.645 -1.3167  0.7288 -0.1592
14193TIP3    H264071   1.526   3.817  13.672  0.7643  0.9094  1.5355
14194TIP3   OH264072   4.909   1.157  16.629  0.2901 -0.2358 -0.4544
14194TIP3    H164073   4.834   1.206  16.595 -0.3808  0.5908  2.0323
14194TIP3    H264074   4.876   1.068  16.644 -0.5986  0.3881  1.6513
14195TIP3   OH264075   2.102   0.917   2.049  0.1869 -0.2602 -0.0376
14195TIP3    H164076   2.034   0.889   2.111 -1.0928  0.5883 -1.0024
14195TIP3    H264077   2.171   0.953   2.105 -0.7959  0.1968  0.9317
14196TIP3   OH264078   0.954   4.758   0.189  0.0374  0.4663  0.6178
14196TIP3    H164079   1.005   4.768   0.270  1.1230 -0.5904  0.0974
14196TIP3    H264080   1.002   4.693   0.138 -1.3417  0.1369 -0.3245
14197TIP3   OH264081   2.080   2.393  11.460 -0.4999 -0.2448 -0.2098
14197TIP3    H164082   2.057   2.457  11.527 -1.2967 -0.1908 -0.5153
14197TIP3    H264083   2.007   2.331  11.460  0.3748 -1.3048  0.2509
14198TIP3   OH264084   1.043   2.836  15.961 -0.0393  0.0612  0.2982
14198TIP3    H164085   1.047   2.774  15.887 -1.1709 -0.0567  0.3093
14198TIP3    H264086   1.000   2.787  16.031  0.3204  0.4239  0.7795
14199TIP3   OH264087   2.177   5.483   0.829  0.2016 -0.3559  0.0882
14199TIP3    H164088   2.095   5.446   0.794 -0.4096 -0.3085  1.4023
14199TIP3    H264089   2.230   5.501   0.751 -0.5591 -1.4966 -0.7326
14200TIP3   OH264090   5.609   3.092   4.397  0.3849 -1.0592 -0.7173
14200TIP3    H164091   5.529   3.114   4.446 -0.8294 -2.5260 -1.9194
14200TIP3    H264092   5.588   3.115   4.307  2.0053  0.1494 -0.8202
14201TIP3   OH264093   3.107   2.918  12.714  0.1704 -0.0553 -0.1976
14201TIP3    H164094   3.118   2.827  12.688 -1.0203 -0.0048 -0.9938
14201TIP3    H264095   3.073   2.914  12.803  0.5422 -0.3731 -0.0688
14202TIP3   OH264096   5.184   3.682  12.434  0.0990  0.3357 -0.0577
14202TIP3    H164097   5.247   3.724  12.375 -0.0731  1.7158  0.6985
14202TIP3    H264098   5.206   3.715  12.521 -1.6350  0.8446  0.2374
14203TIP3   OH264099   5.938   2.920   5.504  0.5299 -0.7134  0.1488
14203TIP3    H164100   5.884   2.919   5.426  0.2089  2.8498  0.1432
14203TIP3    H264101   6.028   2.920   5.471  0.4014 -0.1230 -0.2273
14204TIP3   OH264102   4.957   5.160  13.923 -0.2554  0.4416 -0.2349
14204TIP3    H164103   5.016   5.197  13.989  2.1585  0.3898 -2.2043
14204TIP3    H264104   4.947   5.068  13.949  1.8338  0.0559 -0.6573
14205TIP3   OH264105   4.196   3.020  17.102  0.4354  0.4207 -0.0533
14205TIP3    H164106   4.125   3.034  17.165 -0.8238  0.8495 -1.5084
14205TIP3    H264107   4.179   2.934  17.065  0.5492  0.6039 -0.5440
14206TIP3   OH264108   2.596   3.046   2.737  0.6130  0.0090 -0.3830
14206TIP3    H164109   2.653   3.094   2.677 -0.4298  0.2619 -1.1941
14206TIP3    H264110   2.578   2.964   2.693  0.3337 -0.0642 -0.1316
14207TIP3   OH264111   1.639   1.410   0.093 -0.1132  0.7673  0.1429
14207TIP3    H164112   1.607   1.381   0.007  1.0610  0.9116 -0.3638
14207TIP3    H264113   1.664   1.502   0.080  0.9105  0.5352  0.3914
14208TIP3   OH264114   1.623   1.532   2.223 -0.4084 -0.4456  0.1211
14208TIP3    H164115   1.573   1.467   2.274 -0.6557 -0.0120  0.4454
14208TIP3    H264116   1.675   1.480   2.162 -0.1272 -0.9784  0.8019
14209TIP3   OH264117   2.600   5.736   0.968 -0.1183  0.0835 -0.0954
14209TIP3    H164118   2.602   5.653   0.920 -0.5756  1.2267 -2.1771
14209TIP3    H264119   2.517   5.734   1.015 -1.4592  0.4819 -2.3223
14210TIP3   OH264120   6.406   5.013   2.962  0.3011  0.1909 -0.2762
14210TIP3    H164121   6.430   5.015   3.054  2.2392 -0.4204 -0.7158
14210TIP3    H264122   6.366   5.099   2.945 -0.3479  0.1920  1.1704
14211TIP3   OH264123   0.377   5.699  11.560 -0.4133  0.1735  0.6774
14211TIP3    H164124   0.451   5.692  11.500 -0.7386  2.5467 -0.1024
14211TIP3    H264125   0.417   5.719  11.645 -0.0696 -0.9750  0.8039
14212TIP3   OH264126   2.317   0.598  14.107 -0.1697 -0.3059  0.1246
14212TIP3    H164127   2.380   0.556  14.164  0.9903  1.8491  0.5404
14212TIP3    H264128   2.257   0.644  14.167 -1.1078 -0.9242 -0.3143
14213TIP3   OH264129   5.726   3.869  16.928  0.6368 -0.0438 -0.9328
14213TIP3    H164130   5.762   3.920  16.855  0.8051 -0.2199 -0.9740
14213TIP3    H264131   5.685   3.935  16.985  0.6334  0.1091 -1.1105
14214TIP3   OH264132   4.006   5.304   3.069  0.4363  0.8389  0.2694
14214TIP3    H164133   4.060   5.335   2.996  0.6458 -0.2536 -0.0605
14214TIP3    H264134   4.065   5.303   3.144  0.0119  2.7688  0.6960
14215TIP3   OH264135   1.771   3.131  11.252  0.4589 -0.8258  0.1434
14215TIP3    H164136   1.855   3.125  11.206  0.3158 -2.7780  0.0403
14215TIP3    H264137   1.710   3.084  11.195 -1.1916  2.1157 -0.7025
14216TIP3   OH264138   0.855   3.293   5.313 -0.1750  0.2392 -0.5306
14216TIP3    H164139   0.843   3.330   5.400  0.0326  0.8655 -0.7690
14216TIP3    H264140   0.772   3.310   5.268 -0.8629 -1.4248  0.0184
14217TIP3   OH264141   2.675   3.576   0.747  0.2939 -0.3246  0.3876
14217TIP3    H164142   2.662   3.660   0.791  1.0377 -0.5459  1.0636
14217TIP3    H264143   2.768   3.557   0.759  0.3449 -0.7863 -0.5982
14218TIP3   OH264144   0.137   2.381   5.261 -0.2720 -0.2550 -0.3236
14218TIP3    H164145   0.095   2.303   5.299 -0.4747 -0.4018 -0.8471
14218TIP3    H264146   0.194   2.347   5.193 -2.1093  0.1825 -2.1737
14219TIP3   OH264147   2.153   6.592  11.912 -0.2432 -0.6429 -0.6492
14219TIP3    H164148   2.095   6.666  11.930  1.8018  0.6462  1.1498
14219TIP3    H264149   2.187   6.567  11.998  1.1362 -1.9717 -1.5288
14220TIP3   OH264150   6.347   6.739   1.038  0.6342 -0.6737  0.2108
14220TIP3    H164151   6.376   6.732   1.130 -0.3931  0.6259  0.6651
14220TIP3    H264152   6.324   6.831   1.028 -2.4292 -1.4194 -0.3843
14221TIP3   OH264153   2.977   1.218  14.048 -0.4297 -0.5399  0.4540
14221TIP3    H164154   3.009   1.175  13.968  1.1214 -2.5704  2.0529
14221TIP3    H264155   2.882   1.212  14.042 -0.3387 -0.8835 -1.0949
14222TIP3   OH264156   4.487   5.948  12.014 -0.1124 -0.3769 -0.0007
14222TIP3    H164157   4.539   6.011  11.964 -2.4028  1.0442 -0.7470
14222TIP3    H264158   4.468   5.878  11.952  0.4534 -0.6346  0.1139
14223TIP3   OH264159   1.053   6.603   1.620  0.1387  0.4141 -0.4986
14223TIP3    H164160   1.022   6.691   1.598 -0.6589  0.5289  0.9580
14223TIP3    H264161   0.974   6.556   1.649  0.5286 -0.8317 -1.3219
14224TIP3   OH264162   5.887   2.591  15.824 -0.1043  0.2346 -0.0355
14224TIP3    H164163   5.867   2.683  15.808 -1.1945 -0.0345 -0.2721
14224TIP3    H264164   5.886   2.582  15.919  0.1303  0.4813 -0.0050
14225TIP3   OH264165   4.735   1.448  11.080 -0.5300 -0.5594 -0.9170
14225TIP3    H164166   4.667   1.437  11.147 -0.1505 -0.8403 -0.5706
14225TIP3    H264167   4.817   1.431  11.126 -0.1442  0.7494 -1.0970
14226TIP3   OH264168   1.475   0.472   2.546  0.3267 -0.0519  0.4311
14226TIP3    H164169   1.529   0.476   2.467 -1.3084 -1.3042 -0.8067
14226TIP3    H264170   1.409   0.406   2.527 -2.3100  2.1059  1.4556
14227TIP3   OH264171   4.692   5.284   2.075 -0.0175 -0.5222 -0.0867
14227TIP3    H164172   4.774   5.268   2.122  0.1088  1.2017  0.3627
14227TIP3    H264173   4.663   5.198   2.046  1.7375 -1.2150  0.1162
14228TIP3   OH264174   1.892   5.433  13.644 -0.7016  0.6345  0.1889
14228TIP3    H164175   1.813   5.389  13.612 -0.2042 -0.0777 -0.1108
14228TIP3    H264176   1.941   5.364  13.689  0.1616  0.8447 -0.3960
14229TIP3   OH264177   3.842   1.191   3.489  0.3500  0.1266 -0.2284
14229TIP3    H164178   3.759   1.171   3.532 -0.4071 -1.1678 -2.1444
14229TIP3    H264179   3.845   1.287   3.487 -1.7684  0.2319 -1.2676
14230TIP3   OH264180   5.227   0.115   2.199  0.3744 -0.3346  0.6691
14230TIP3    H164181   5.204   0.207   2.212  2.4303  0.2443  0.5564
14230TIP3    H264182   5.315   0.107   2.234  0.1267 -2.3658  0.9581
14231TIP3   OH264183   4.077   3.592  11.341 -0.3406 -0.3499 -0.0034
14231TIP3    H164184   4.126   3.674  11.348  0.8382 -1.0500  0.3679
14231TIP3    H264185   3.993   3.617  11.304  0.6625  0.7828 -1.6642
14232TIP3   OH264186   3.065   5.529  10.599 -0.4461  0.0940 -0.2497
14232TIP3    H164187   3.016   5.453  10.630 -0.3327 -0.2934 -1.0007
14232TIP3    H264188   3.033   5.602  10.653 -0.2040 -0.5595  0.8152
14233TIP3   OH264189   3.452   6.396   0.308 -0.0496 -0.2413  0.2041
14233TIP3    H164190   3.379   6.436   0.261  0.9459  1.9787  0.4147
14233TIP3    H264191   3.425   6.398   0.400 -0.6677 -1.6340  0.0794
14234TIP3   OH264192   2.870   0.471   6.284 -0.4306 -0.4005 -0.6449
14234TIP3    H164193   2.896   0.539   6.221 -1.5088 -0.7052 -1.4521
14234TIP3    H264194   2.790   0.505   6.324 -0.5356 -0.8463 -0.4712
14235TIP3   OH264195   0.971   1.638  15.075  0.1471 -0.5746 -0.1646
14235TIP3    H164196   0.922   1.718  15.097 -1.6700 -1.3104 -1.3202
14235TIP3    H264197   0.950   1.577  15.146  0.2271 -0.5689 -0.1355
14236TIP3   OH264198   6.521   3.682  10.868  0.4797  0.2265  0.2888
14236TIP3    H164199   6.615   3.661  10.871  0.7574  1.0891 -1.2093
14236TIP3    H264200   6.484   3.638  10.944  2.1708  0.1992  1.1456
14237TIP3   OH264201   3.568   5.685   0.032 -0.4522  0.6200  0.1940
14237TIP3    H164202   3.632   5.722   0.094  1.2186 -1.1692 -0.3563
14237TIP3    H264203   3.525   5.616   0.081  1.0348 -0.9554 -0.6272
14238TIP3   OH264204   1.791   6.298   4.323 -0.1715  0.0041  0.2941
14238TIP3    H164205   1.717   6.342   4.281 -1.5574 -0.1015  2.4650
14238TIP3    H264206   1.782   6.206   4.297  0.9338  0.4081 -1.7488
14239TIP3   OH264207   5.460   0.370   5.558 -0.1279 -0.1992 -0.1706
14239TIP3    H164208   5.491   0.461   5.557 -0.7765  0.0342  0.1963
14239TIP3    H264209   5.397   0.367   5.630 -0.4499 -0.8329 -0.4703
14240TIP3   OH264210   1.966   4.714  14.369 -0.7259 -0.4383 -0.0467
14240TIP3    H164211   1.900   4.645  14.375  0.6292 -1.7623  0.3955
14240TIP3    H264212   2.043   4.676  14.411  0.4522  0.8772 -0.9503
14241TIP3   OH264213   5.984   2.968  11.173  0.0096  0.5229 -0.0047
14241TIP3    H164214   6.019   3.024  11.103  0.3683  0.1534 -0.1255
14241TIP3    H264215   5.936   2.899  11.127  3.7148 -2.2132 -0.2184
14242TIP3   OH264216   0.871   2.113   1.101  0.3633  0.1133  0.3145
14242TIP3    H164217   0.777   2.097   1.086  0.5446 -0.9095  0.2084
14242TIP3    H264218   0.882   2.206   1.084 -0.5152  0.1182 -0.3044
14243TIP3   OH264219   4.794   1.363  10.804  0.0595  0.5788 -0.1503
14243TIP3    H164220   4.763   1.357  10.894 -0.8900  2.0676 -0.3424
14243TIP3    H264221   4.759   1.285  10.761 -1.7159  1.1626  0.1579
14244TIP3   OH264222   5.457   3.706  11.506 -0.0250 -0.8121 -0.2961
14244TIP3    H164223   5.466   3.799  11.526 -1.4419 -0.4769 -1.1024
14244TIP3    H264224   5.408   3.670  11.580  1.1492 -1.1010  0.3776
14245TIP3   OH264225   1.783   6.585   4.821 -0.3024 -0.1955 -0.4110
14245TIP3    H164226   1.820   6.600   4.734 -0.6085  0.8415 -0.3800
14245TIP3    H264227   1.849   6.617   4.882  1.1016 -3.3313 -0.0818
14246TIP3   OH264228   5.690   5.609   3.147 -0.3187 -0.0331 -0.0538
14246TIP3    H164229   5.671   5.702   3.165  1.1609  0.2760  0.0688
14246TIP3    H264230   5.649   5.562   3.220 -1.2670  0.5046 -0.2319
14247TIP3   OH264231   1.756   4.258   4.254  0.3367 -0.8105  0.1255
14247TIP3    H164232   1.713   4.243   4.338 -0.2521 -1.2227 -0.2429
14247TIP3    H264233   1.840   4.299   4.277 -0.6780  1.0116  0.8027
14248TIP3   OH264234   6.252   5.561  12.186  0.4875 -0.2269 -0.0356
14248TIP3    H164235   6.270   5.580  12.278 -0.2641  0.6084 -0.0443
14248TIP3    H264236   6.335   5.578  12.141  0.9397 -0.9299  0.5191
14249TIP3   OH264237   6.657   6.480  12.546 -0.4981  0.2124  0.5016
14249TIP3    H164238   6.635   6.387  12.536 -1.0497  0.2543  1.2377
14249TIP3    H264239   6.572   6.524  12.551 -0.2408  0.8657 -0.7206
14250TIP3   OH264240   1.540   4.768   3.202 -0.2397 -0.8356 -0.4855
14250TIP3    H164241   1.580   4.851   3.179  1.8933 -1.2146  1.4254
14250TIP3    H264242   1.557   4.710   3.128 -0.8304  0.1080 -1.3781
14251TIP3   OH264243   0.359   3.299   2.147 -0.0037  0.1845  0.1402
14251TIP3    H164244   0.299   3.241   2.098 -0.3176  0.6098  0.0154
14251TIP3    H264245   0.335   3.286   2.239 -1.8197  1.9885 -0.0150
14252TIP3   OH264246   5.762   2.147  11.475 -0.4345  0.0653  0.4685
14252TIP3    H164247   5.685   2.140  11.532 -1.6474 -1.8479 -1.2444
14252TIP3    H264248   5.826   2.088  11.515  0.0999  1.4670  1.7614
14253TIP3   OH264249   2.024   6.147  12.843 -0.4129  0.4573 -0.3592
14253TIP3    H164250   2.042   6.196  12.763  0.1012 -2.2658 -2.0253
14253TIP3    H264251   2.104   6.098  12.860 -0.4492  1.0960  1.9768
14254TIP3   OH264252   1.642   1.101   0.554 -0.1137 -0.1804 -0.3150
14254TIP3    H164253   1.710   1.142   0.606  1.1663 -1.0653 -1.2343
14254TIP3    H264254   1.638   1.153   0.474 -1.3863  0.5841  0.2096
14255TIP3   OH264255   5.635   3.976  14.652  0.1290  0.4666  0.6343
14255TIP3    H164256   5.610   4.058  14.609  0.8521  0.7785  0.8031
14255TIP3    H264257   5.615   3.990  14.745 -0.1783  0.2773  0.6003
14256TIP3   OH264258   5.227   6.280   1.758  0.4185  0.3301  0.1000
14256TIP3    H164259   5.269   6.350   1.708  2.6831 -2.3670 -2.0902
14256TIP3    H264260   5.150   6.255   1.706 -0.4584  1.1857  0.9411
14257TIP3   OH264261   2.342   3.148  15.123  0.1942 -0.5196 -0.3277
14257TIP3    H164262   2.383   3.233  15.109 -0.9943 -0.0325 -1.0169
14257TIP3    H264263   2.389   3.089  15.064 -0.2848  0.0898 -1.3380
14258TIP3   OH264264   6.820   2.624  14.424  0.1852  0.4796  0.0133
14258TIP3    H164265   6.893   2.680  14.399 -1.2699  2.0144 -1.0447
14258TIP3    H264266   6.761   2.683  14.471 -0.5304 -0.6463  0.5608
14259TIP3   OH264267   0.266   4.084  11.814 -0.6226  0.4888  0.4683
14259TIP3    H164268   0.319   4.164  11.813 -0.1751  0.1932  0.3813
14259TIP3    H264269   0.276   4.047  11.726 -2.2286  1.2349 -0.0805
14260TIP3   OH264270   0.731   3.787  12.289  0.2519 -0.3939 -0.3596
14260TIP3    H164271   0.690   3.702  12.275  0.3157 -0.4639 -0.1356
14260TIP3    H264272   0.668   3.851  12.257  0.5425 -0.5582 -1.3076
14261TIP3   OH264273   4.658   2.060   4.694 -0.3755 -0.0757 -0.1404
14261TIP3    H164274   4.718   1.987   4.679 -0.0059  0.6773 -2.9876
14261TIP3    H264275   4.572   2.018   4.705 -0.0437 -0.9949 -0.8841
14262TIP3   OH264276   5.190   4.392  11.049  0.1752 -0.1162 -0.1435
14262TIP3    H164277   5.243   4.365  11.123 -0.7144  0.0558  0.5745
14262TIP3    H264278   5.100   4.367  11.073 -0.0063 -0.9455 -1.5820
14263TIP3   OH264279   0.336   2.940   6.472 -0.2241 -0.2556  0.4876
14263TIP3    H164280   0.241   2.943   6.465 -0.1501 -0.4592 -0.8446
14263TIP3    H264281   0.367   2.997   6.402  0.6358  0.0046  1.0667
14264TIP3   OH264282   3.629   2.435  15.355  0.5267 -1.1064  0.0135
14264TIP3    H164283   3.626   2.524  15.389  0.8933 -0.9968 -0.2259
14264TIP3    H264284   3.553   2.391  15.393  0.9322 -0.9971  0.9658
14265TIP3   OH264285   3.527   3.300  10.556  0.2699  0.5160 -0.3143
14265TIP3    H164286   3.612   3.316  10.596  0.8223 -1.1825 -0.7191
14265TIP3    H264287   3.524   3.206  10.542 -2.2890  0.3058  0.9854
14266TIP3   OH264288   5.719   4.143  11.775 -0.0770  0.7241 -0.0434
14266TIP3    H164289   5.634   4.126  11.815 -0.2401 -1.8880 -1.2450
14266TIP3    H264290   5.699   4.167  11.685  0.4255  0.8689 -0.1205
14267TIP3   OH264291   2.415   4.406   1.815  0.0004 -0.2923  0.0018
14267TIP3    H164292   2.397   4.449   1.898  1.2202  1.2571 -0.4809
14267TIP3    H264293   2.346   4.437   1.756  0.9929  1.2802 -0.4016
14268TIP3   OH264294   1.992   1.250  16.104 -0.2371  0.4045  0.1502
14268TIP3    H164295   2.048   1.323  16.132  0.1581  0.4562 -0.7560
14268TIP3    H264296   2.013   1.180  16.166  1.4754  0.1437 -0.6670
14269TIP3   OH264297   4.660   6.237  12.589  0.3109 -0.0431 -0.0874
14269TIP3    H164298   4.622   6.317  12.552  0.7882  0.4678  0.4858
14269TIP3    H264299   4.644   6.170  12.524 -1.7227  0.0999  0.1891
14270TIP3   OH264300   3.337   6.206   1.246 -0.2593 -0.4707 -0.7192
14270TIP3    H164301   3.341   6.136   1.180  0.2558 -1.0484 -0.0935
14270TIP3    H264302   3.304   6.162   1.325  2.6489 -0.6932  0.4899
14271TIP3   OH264303   4.807   0.591  11.412 -0.0860 -0.8123  0.3320
14271TIP3    H164304   4.789   0.498  11.428  1.0660 -1.0966  0.0210
14271TIP3    H264305   4.888   0.592  11.361 -0.2692  0.3524  0.0284
14272TIP3   OH264306   0.188   1.584   5.686  0.2014  0.1753  0.5502
14272TIP3    H164307   0.180   1.528   5.763 -1.8995 -0.4353 -0.0491
14272TIP3    H264308   0.128   1.656   5.702  0.2519  0.3977 -0.2286
14273TIP3   OH264309   6.433   5.200  13.512  0.0816 -0.6003 -0.1974
14273TIP3    H164310   6.428   5.134  13.443  0.7388 -1.2617  0.3696
14273TIP3    H264311   6.416   5.151  13.593 -1.7271  0.3458  0.0445
14274TIP3   OH264312   2.903   5.638  14.474 -0.3136  0.0193  0.1921
14274TIP3    H164313   2.851   5.712  14.440  2.5823  1.4246 -1.5542
14274TIP3    H264314   2.941   5.671  14.555 -1.3386 -0.6734  0.9751
14275TIP3   OH264315   5.077   3.648   6.199 -0.1015  0.4434 -0.1762
14275TIP3    H164316   5.168   3.623   6.218  0.2657  1.3480 -0.6762
14275TIP3    H264317   5.058   3.718   6.262 -0.2198  0.7063 -0.5006
14276TIP3   OH264318   0.768   5.785   2.108 -0.4532 -0.0710  0.1384
14276TIP3    H164319   0.794   5.711   2.163  1.5285  1.4331  1.3429
14276TIP3    H264320   0.682   5.811   2.141 -0.4214 -0.7987  0.8092
14277TIP3   OH264321   1.474   1.535   1.007 -0.4324 -0.1264  0.0886
14277TIP3    H164322   1.435   1.596   0.944 -0.6380  0.4570  0.7614
14277TIP3    H264323   1.545   1.585   1.047 -0.8775 -0.1767  0.9508
14278TIP3   OH264324   4.804   1.800   3.444  0.1652  0.2366 -0.4860
14278TIP3    H164325   4.720   1.845   3.456  1.1049  1.8727  0.3075
14278TIP3    H264326   4.786   1.709   3.468 -1.0452  0.8717  1.2078
14279TIP3   OH264327   4.123   2.739  16.796 -0.5255 -0.1609  0.1385
14279TIP3    H164328   4.100   2.701  16.881 -1.3041 -0.3617 -0.1529
14279TIP3    H264329   4.083   2.826  16.797  1.5851  0.8651  0.9632
14280TIP3   OH264330   6.443   6.729  12.151 -0.3658 -0.5921 -0.6262
14280TIP3    H164331   6.461   6.636  12.164 -0.0445 -0.4924 -0.3519
14280TIP3    H264332   6.347   6.736  12.155 -0.3373 -0.6374  1.3403
14281TIP3   OH264333   3.842   1.963   0.965  0.2507 -0.6407 -0.4576
14281TIP3    H164334   3.758   1.918   0.952 -1.9335  3.0243 -0.4663
14281TIP3    H264335   3.866   1.995   0.878  2.1894 -2.3077 -0.6028
14282TIP3   OH264336   2.132   4.469  16.814 -0.4738 -0.0530 -0.0974
14282TIP3    H164337   2.070   4.402  16.840 -0.8401  0.1372 -0.4692
14282TIP3    H264338   2.211   4.451  16.865 -0.3449 -1.1685 -0.6787
14283TIP3   OH264339   1.780   2.003   5.710  0.6043 -0.5694 -0.3237
14283TIP3    H164340   1.871   2.022   5.729  0.6768  0.0588 -1.2503
14283TIP3    H264341   1.736   2.011   5.795  1.3221 -0.3880  0.0405
14284TIP3   OH264342   5.787   3.599   2.930 -0.1436 -0.2437 -0.0031
14284TIP3    H164343   5.826   3.518   2.964 -0.5408 -0.1786  0.6129
14284TIP3    H264344   5.842   3.669   2.964 -1.7743 -0.0061  2.4158
14285TIP3   OH264345   3.922   5.258   5.686 -0.8959  0.3042  0.7969
14285TIP3    H164346   3.858   5.289   5.750 -1.1252  0.4400  0.5038
14285TIP3    H264347   3.973   5.192   5.733 -1.2071  0.2471  1.0554
14286TIP3   OH264348   4.935   1.144   3.273  0.7478  0.0808  0.0187
14286TIP3    H164349   4.982   1.203   3.332  3.4527 -1.5734 -0.2488
14286TIP3    H264350   4.987   1.063   3.276 -1.6776 -1.6258 -1.0820
14287TIP3   OH264351   0.303   1.938  11.511  0.4852  0.1584 -0.3524
14287TIP3    H164352   0.288   2.015  11.457 -0.7563  0.8824  0.9561
14287TIP3    H264353   0.249   1.870  11.472 -0.1479  0.5810 -0.2244
14288TIP3   OH264354   4.490   1.473  11.568  0.2204  0.5992 -0.0284
14288TIP3    H164355   4.425   1.428  11.622  0.5333  0.2590  0.0690
14288TIP3    H264356   4.574   1.451  11.607  0.5876 -1.0661 -1.6279
14289TIP3   OH264357   1.211   5.458   3.789  0.6376 -0.7088  0.4741
14289TIP3    H164358   1.179   5.543   3.819  0.9000 -0.6710  0.6553
14289TIP3    H264359   1.132   5.409   3.765  0.3867 -0.8585  1.5442
14290TIP3   OH264360   2.896   5.496   0.420 -0.1658  0.2306 -0.0569
14290TIP3    H164361   2.948   5.553   0.364 -0.1229 -0.8362 -1.1269
14290TIP3    H264362   2.805   5.519   0.399 -0.1491  0.0475 -0.3196
14291TIP3   OH264363   3.118   6.092   3.386  0.4533  0.6634 -0.4576
14291TIP3    H164364   3.146   6.056   3.301 -1.1273  1.6630 -1.4548
14291TIP3    H264365   3.164   6.175   3.393  0.1965  0.8176 -0.5836
14292TIP3   OH264366   3.266   0.167   5.730  0.7625  0.4037  0.0336
14292TIP3    H164367   3.289   0.209   5.647 -0.8930 -0.3997 -0.8964
14292TIP3    H264368   3.335   0.193   5.791  1.5228  1.7712 -1.3510
14293TIP3   OH264369   5.828   0.627  11.979 -0.2445  0.2015 -0.4463
14293TIP3    H164370   5.758   0.635  11.915  0.0300 -0.6497 -0.8609
14293TIP3    H264371   5.890   0.564  11.941  1.2932  1.7068 -0.5795
14294TIP3   OH264372   1.795   4.861   1.112 -0.3496  0.0214  0.2764
14294TIP3    H164373   1.836   4.776   1.123 -0.5128  0.0406  1.0871
14294TIP3    H264374   1.868   4.922   1.104 -0.2303 -0.2729 -1.0597
14295TIP3   OH264375   3.563   3.024   0.456 -0.2782  0.1069 -0.5576
14295TIP3    H164376   3.510   2.974   0.394  0.3272 -1.3716  0.0870
14295TIP3    H264377   3.529   3.000   0.542 -0.5888  1.5355 -0.2596
14296TIP3   OH264378   4.171   4.212   2.023 -0.0098 -0.1312  0.2547
14296TIP3    H164379   4.115   4.175   2.091  0.3611 -0.6355  0.2886
14296TIP3    H264380   4.110   4.242   1.955 -0.3511 -0.0872  0.5782
14297TIP3   OH264381   0.942   6.260  13.315  0.2260 -0.5258  0.0328
14297TIP3    H164382   0.986   6.331  13.268 -3.6197  1.8722 -0.4768
14297TIP3    H264383   0.858   6.249  13.269 -0.8538 -2.9211  2.2886
14298TIP3   OH264384   0.209   2.304  14.474 -1.2087 -0.0791  0.0195
14298TIP3    H164385   0.257   2.377  14.434 -2.9460 -0.0223 -2.0876
14298TIP3    H264386   0.204   2.238  14.406 -1.2846 -1.4501  1.3077
14299TIP3   OH264387   2.499   3.727  15.115  0.0660 -0.5628  0.4708
14299TIP3    H164388   2.461   3.692  15.034 -1.7641  2.2820 -0.0176
14299TIP3    H264389   2.424   3.741  15.172  0.7887  1.6754  0.9290
14300TIP3   OH264390   2.779   3.755   6.050 -0.7090  0.2801 -0.0390
14300TIP3    H164391   2.855   3.734   5.996 -1.0359 -1.3897  0.1095
14300TIP3    H264392   2.754   3.843   6.023  1.0267  0.7038 -0.3694
14301TIP3   OH264393   3.418   4.882   5.569 -0.3056 -0.5693 -0.1113
14301TIP3    H164394   3.338   4.929   5.545 -1.4644 -1.5460  1.6051
14301TIP3    H264395   3.425   4.812   5.504  0.4402  0.8184 -1.6006
14302TIP3   OH264396   3.446   2.920  12.849 -0.2421 -0.4757  0.0359
14302TIP3    H164397   3.484   2.912  12.762  1.2592 -1.2486  0.7170
14302TIP3    H264398   3.423   3.012  12.857  1.0033 -0.0854 -0.6379
14303TIP3   OH264399   6.839   3.683   1.781 -0.5289  0.2667  0.5572
14303TIP3    H164400   6.851   3.588   1.780  2.3842  0.4912 -1.3015
14303TIP3    H264401   6.766   3.699   1.721 -1.6721 -0.7960  1.6217
14304TIP3   OH264402   6.670   1.508  16.134 -0.3212 -0.8324  0.0741
14304TIP3    H164403   6.728   1.522  16.059 -0.3403 -0.4111  0.1357
14304TIP3    H264404   6.591   1.471  16.096 -1.8508  2.7422 -0.7006
14305TIP3   OH264405   5.499   0.438   2.741 -0.2289 -0.1652  0.6373
14305TIP3    H164406   5.553   0.499   2.691  1.8943 -0.6247  2.2261
14305TIP3    H264407   5.530   0.351   2.716 -0.5785 -0.4666  1.2139
14306TIP3   OH264408   1.025   4.917  16.356 -0.7037 -0.5027  0.5780
14306TIP3    H164409   1.086   4.989  16.368 -0.2576 -0.9151  0.8203
14306TIP3    H264410   0.976   4.940  16.277 -0.0263 -0.3128  0.2008
14307TIP3   OH264411   3.823   6.154   4.652 -0.5667  0.4395  0.4801
14307TIP3    H164412   3.845   6.085   4.590  3.3525  1.0473  0.9657
14307TIP3    H264413   3.772   6.110   4.720 -0.5666 -1.3302 -0.6078
14308TIP3   OH264414   5.613   1.303   1.816  0.6844  0.0611 -0.3716
14308TIP3    H164415   5.652   1.331   1.733 -0.0118  1.1931 -0.3362
14308TIP3    H264416   5.563   1.378   1.846  1.5014 -0.0580  1.4608
14309TIP3   OH264417   1.926   0.944   0.135  0.3293 -0.0652  0.3505
14309TIP3    H164418   1.833   0.924   0.143  0.6024 -1.3111  0.5727
14309TIP3    H264419   1.948   0.990   0.216  0.0757 -0.4314  0.6249
14310TIP3   OH264420   0.255   5.780  12.077 -0.4536 -1.3069 -0.0605
14310TIP3    H164421   0.334   5.830  12.096  0.0700 -2.1594  0.0282
14310TIP3    H264422   0.214   5.826  12.003 -0.1867 -0.5354  0.2587
14311TIP3   OH264423   0.487   3.461  12.641  0.0392 -0.0546 -0.2644
14311TIP3    H164424   0.577   3.461  12.610 -0.2321 -0.4172 -1.0752
14311TIP3    H264425   0.476   3.547  12.682  0.5299  0.2833 -0.8234
14312TIP3   OH264426   5.563   4.926  16.435  0.0855 -0.5289 -0.4764
14312TIP3    H164427   5.542   4.997  16.495 -2.7111 -2.5879  1.2604
14312TIP3    H264428   5.493   4.929  16.369  0.8789 -0.7089 -1.3568
14313TIP3   OH264429   1.305   2.350   1.647  0.3635 -0.9263  0.2832
14313TIP3    H164430   1.379   2.331   1.704  1.3653 -0.7781 -0.9230
14313TIP3    H264431   1.337   2.330   1.559 -1.4744 -2.1789 -0.1550
14314TIP3   OH264432   2.095   2.817   3.110 -0.1345 -0.2540 -0.6033
14314TIP3    H164433   2.112   2.903   3.071  2.3952 -0.3075  0.2066
14314TIP3    H264434   2.178   2.771   3.103  0.0931 -0.8073  3.4095
14315TIP3   OH264435   6.855   1.010  13.028 -0.1209 -0.1500  0.3738
14315TIP3    H164436   6.857   0.929  12.976 -1.5890 -0.0138  0.0398
14315TIP3    H264437   6.842   1.079  12.963  1.7809  0.4657  0.5858
14316TIP3   OH264438   0.918   1.501  16.180 -0.0618  0.1894  0.4476
14316TIP3    H164439   0.957   1.415  16.195 -0.8282 -0.3704 -0.6391
14316TIP3    H264440   0.831   1.495  16.220  0.0930  0.6402  0.8458
14317TIP3   OH264441   5.718   1.928   1.920 -0.3926 -0.3227  0.4701
14317TIP3    H164442   5.757   1.951   2.004 -1.1654  1.2754  0.4141
14317TIP3    H264443   5.708   1.833   1.924  2.4597 -0.7002  0.9112
14318TIP3   OH264444   1.978   4.229  16.593  0.0605 -0.2584  0.2202
14318TIP3    H164445   1.911   4.165  16.617  0.9209 -0.8833  1.0037
14318TIP3    H264446   1.930   4.298  16.546 -0.9834 -1.1160  0.0054
14319TIP3   OH264447   1.155   4.477  10.330 -0.0442  0.2649 -0.8163
14319TIP3    H164448   1.239   4.435  10.311 -0.7243 -1.0416 -1.0448
14319TIP3    H264449   1.142   4.539  10.258  0.9393  0.8288 -0.5196
14320TIP3   OH264450   1.591   6.383  13.526 -0.2076 -0.6837 -0.2777
14320TIP3    H164451   1.628   6.446  13.465 -2.6375 -0.0942 -1.2348
14320TIP3    H264452   1.499   6.406  13.533 -0.9613 -3.4421  0.2130
14321TIP3   OH264453   0.166   4.666   3.432 -0.0773  0.3520  0.5981
14321TIP3    H164454   0.136   4.740   3.380 -3.0014 -0.3649  1.1129
14321TIP3    H264455   0.149   4.692   3.523  1.1910 -0.0091  0.9622
14322TIP3   OH264456   4.845   5.053  13.602 -0.0475  0.4500 -0.4621
14322TIP3    H164457   4.876   4.963  13.612  0.7064  0.8911  1.6074
14322TIP3    H264458   4.916   5.107  13.637 -0.8717  1.8122 -0.8274
14323TIP3   OH264459   0.176   2.934   0.235 -0.3365  0.0608 -0.7313
14323TIP3    H164460   0.185   2.864   0.171  0.9373 -0.1714 -0.3436
14323TIP3    H264461   0.263   2.941   0.275 -1.4657 -0.9587  2.1712
14324TIP3   OH264462   6.274   0.535  12.800  0.6830  0.3457 -0.4074
14324TIP3    H164463   6.360   0.510  12.766 -0.7512 -1.3239 -3.1629
14324TIP3    H264464   6.257   0.473  12.871  0.8653 -0.7976 -1.3298
14325TIP3   OH264465   1.306   1.144   2.130  0.0308 -0.3296 -0.3030
14325TIP3    H164466   1.272   1.216   2.184 -0.7644  0.4914 -1.8167
14325TIP3    H264467   1.330   1.076   2.193 -2.6815 -0.2135  0.9786
14326TIP3   OH264468   6.077   0.362   6.094  0.0652 -0.0845  0.2642
14326TIP3    H164469   6.132   0.389   6.021  0.4468 -1.5573 -0.0206
14326TIP3    H264470   5.988   0.363   6.059  0.1947 -0.3139 -0.0742
14327TIP3   OH264471   6.103   0.808   3.322  0.0749 -0.2190 -0.6340
14327TIP3    H164472   6.136   0.885   3.274 -0.2016  0.2616 -0.0701
14327TIP3    H264473   6.181   0.771   3.364 -0.1595  1.3914  1.3677
14328TIP3   OH264474   3.071   4.859   5.186 -0.6018  0.1720  0.3834
14328TIP3    H164475   3.124   4.849   5.107  0.4318  1.8812  0.8064
14328TIP3    H264476   3.047   4.770   5.210  3.4432 -0.9796  1.0423
14329TIP3   OH264477   3.411   6.130   3.770  0.0847 -0.0964 -0.3105
14329TIP3    H164478   3.459   6.079   3.835  0.4889  1.3300  0.5735
14329TIP3    H264479   3.393   6.069   3.699  1.1483 -1.2643  0.3889
14330TIP3   OH264480   4.709   2.011  11.092  0.2208 -0.3551 -0.0325
14330TIP3    H164481   4.797   1.994  11.057 -0.2812 -0.8137 -1.1142
14330TIP3    H264482   4.658   2.037  11.015 -0.4356  0.5634  0.6905
14331TIP3   OH264483   3.853   1.142  12.629 -0.0325 -0.0235 -0.1660
14331TIP3    H164484   3.934   1.177  12.591  0.7320 -1.1061  0.4048
14331TIP3    H264485   3.868   1.148  12.724 -0.0000 -1.5508 -0.0453
14332TIP3   OH264486   2.701   1.499   1.387  0.6378  0.1178  0.5183
14332TIP3    H164487   2.715   1.433   1.455 -1.1049 -0.4873  0.3461
14332TIP3    H264488   2.657   1.452   1.317  3.9366  0.2857 -1.9080
14333TIP3   OH264489   4.521   0.408  15.115 -0.0281 -0.0755  0.4738
14333TIP3    H164490   4.442   0.442  15.074  0.8786  1.2206 -0.2934
14333TIP3    H264491   4.587   0.475  15.099  1.6205 -1.7640 -0.2360
14334TIP3   OH264492   3.251   4.328   3.580 -0.1723 -0.1798 -0.1905
14334TIP3    H164493   3.221   4.417   3.563 -1.2729 -0.0110  2.1982
14334TIP3    H264494   3.285   4.330   3.669 -0.6610 -2.2406  0.1022
14335TIP3   OH264495   3.657   4.604  12.276 -0.3558 -0.3409 -0.4813
14335TIP3    H164496   3.629   4.665  12.344  2.2228  1.4140 -0.8267
14335TIP3    H264497   3.720   4.547  12.320 -2.2728 -2.4543 -0.3237
14336TIP3   OH264498   5.657   3.860  13.834  0.1996  0.3014  0.2534
14336TIP3    H164499   5.680   3.829  13.921  0.5699 -0.1195  0.0125
14336TIP3    H264500   5.740   3.886  13.795  0.3099 -1.2482 -0.6335
14337TIP3   OH264501   2.057   2.081   0.239  0.1992  0.1402 -0.5860
14337TIP3    H164502   2.032   2.153   0.181 -0.3083  1.0743  0.7698
14337TIP3    H264503   2.092   2.123   0.317  2.1151 -1.1024 -0.6875
14338TIP3   OH264504   2.649   0.943   4.127 -0.3534  0.2053 -0.1388
14338TIP3    H164505   2.622   0.998   4.201  0.9746  0.3794  0.2418
14338TIP3    H264506   2.665   1.006   4.056 -1.3784  0.0594 -0.5205
14339TIP3   OH264507   5.423   2.929  14.545 -0.0678  0.4587 -0.3957
14339TIP3    H164508   5.411   2.978  14.627  0.2998 -0.3885  0.1747
14339TIP3    H264509   5.338   2.889  14.528  0.1916 -0.4217  0.2835
14340TIP3   OH264510   5.437   3.427   2.181 -0.1317 -0.0736 -0.4831
14340TIP3    H164511   5.437   3.458   2.272  0.3210 -2.7315  0.5064
14340TIP3    H264512   5.392   3.343   2.184  1.8924 -1.3224 -2.2649
14341TIP3   OH264513   4.458   5.016  17.017  0.2857  0.1754  0.0898
14341TIP3    H164514   4.515   4.998  17.092  0.7190  0.6752 -0.1171
14341TIP3    H264515   4.374   5.039  17.056 -0.1335 -1.6965  0.3798
14342TIP3   OH264516   1.484   0.117   1.907  0.4567  0.5606  0.0237
14342TIP3    H164517   1.517   0.136   1.994  0.7158 -0.5534  0.1732
14342TIP3    H264518   1.430   0.039   1.918 -0.7238  1.2646 -0.5517
14343TIP3   OH264519   2.285   3.317   3.418  0.7173  0.1068  0.0744
14343TIP3    H164520   2.379   3.300   3.424  0.7349  0.1260 -0.1617
14343TIP3    H264521   2.254   3.314   3.509  0.6877 -1.3327  0.0358
14344TIP3   OH264522   0.029   1.364   5.330  0.4239  0.0990  0.0885
14344TIP3    H164523   0.100   1.343   5.269 -1.0547 -2.4787 -0.8664
14344TIP3    H264524   0.005   1.454   5.308  1.4143 -0.0158 -1.5983
14345TIP3   OH264525   0.283   0.152   1.240 -0.3388 -0.0924 -0.2784
14345TIP3    H164526   0.367   0.114   1.217 -1.0146 -0.8762 -1.5645
14345TIP3    H264527   0.239   0.084   1.291 -1.2561 -0.8023 -1.9528
14346TIP3   OH264528   0.248   5.778   4.466  0.6028 -0.3612  0.3283
14346TIP3    H164529   0.181   5.764   4.399  2.6445  1.3556 -2.2592
14346TIP3    H264530   0.305   5.701   4.459  1.6587  0.4973 -1.0851
14347TIP3   OH264531   6.539   6.608   2.498  0.1903  0.0057  0.0480
14347TIP3    H164532   6.471   6.651   2.549  1.2458  2.2307 -0.2986
14347TIP3    H264533   6.621   6.635   2.540  0.9429 -0.9960 -0.7191
14348TIP3   OH264534   2.688   3.736   3.300  0.6538 -0.1323 -0.1716
14348TIP3    H164535   2.679   3.803   3.232  0.4041 -0.9301 -0.9378
14348TIP3    H264536   2.642   3.772   3.375  0.9106  0.7530 -0.4256
14349TIP3   OH264537   6.798   0.823  16.676  0.1962  0.1225 -0.4876
14349TIP3    H164538   6.890   0.817  16.703 -0.1611 -1.8746  0.4849
14349TIP3    H264539   6.778   0.737  16.640 -1.3499  0.4694 -0.5244
14350TIP3   OH264540   5.356   2.875   0.245  0.0396  0.2123 -0.1543
14350TIP3    H164541   5.264   2.875   0.220  0.0745  0.9161 -0.2924
14350TIP3    H264542   5.391   2.956   0.209  1.1201 -0.8430 -1.6053
14351TIP3   OH264543   1.320   4.636   4.893 -1.2215 -0.3196  0.1071
14351TIP3    H164544   1.270   4.717   4.889 -3.5127 -1.6872 -0.6568
14351TIP3    H264545   1.369   4.633   4.811 -0.5780  0.5658  0.4378
14352TIP3   OH264546   3.542   2.411  12.735 -0.4159  0.1730 -0.2521
14352TIP3    H164547   3.536   2.339  12.799  0.7546 -0.7909 -1.1887
14352TIP3    H264548   3.621   2.458  12.759  0.8766 -1.0784 -1.8065
14353TIP3   OH264549   5.432   5.535   5.393  0.6205  0.3571  0.7538
14353TIP3    H164550   5.395   5.595   5.328 -0.8231 -1.9301 -0.6961
14353TIP3    H264551   5.516   5.508   5.355 -1.1541 -2.6472 -1.4911
14354TIP3   OH264552   1.931   3.115   0.444  0.5530 -0.1068  0.0486
14354TIP3    H164553   1.920   3.193   0.389 -1.1705 -0.6711 -0.4876
14354TIP3    H264554   1.990   3.058   0.393 -0.2792 -0.2289 -0.8220
14355TIP3   OH264555   3.630   4.633   4.528 -0.4225  0.3219  0.5972
14355TIP3    H164556   3.570   4.563   4.506  0.0876 -0.2585  1.0069
14355TIP3    H264557   3.704   4.589   4.570 -0.8873  1.2445  2.5217
14356TIP3   OH264558   5.184   6.784  15.798  0.3678  0.1948  0.2621
14356TIP3    H164559   5.180   6.759  15.705  0.9423 -0.7790  0.4916
14356TIP3    H264560   5.265   6.746  15.830  0.3298  0.7906  1.1035
14357TIP3   OH264561   3.388   4.668   5.406  0.2103  0.5616 -0.4265
14357TIP3    H164562   3.471   4.676   5.358  0.5420  1.7420  0.3013
14357TIP3    H264563   3.345   4.592   5.367  1.4363  0.1954 -1.1210
14358TIP3   OH264564   0.943   4.475  12.065 -0.0399 -0.2279  0.1042
14358TIP3    H164565   1.005   4.508  12.000 -1.5748  0.9248 -0.8622
14358TIP3    H264566   0.897   4.403  12.021  1.2220 -1.7442  1.1547
14359TIP3   OH264567   5.252   6.048   5.904 -0.1063 -0.0908 -0.0931
14359TIP3    H164568   5.156   6.039   5.902  0.0563 -2.4962 -1.8203
14359TIP3    H264569   5.283   5.985   5.839  2.6966  0.4800  0.5625
14360TIP3   OH264570   6.161   5.866   3.857 -0.3996 -0.2551  0.1270
14360TIP3    H164571   6.093   5.925   3.891  0.1062 -0.1092  0.9151
14360TIP3    H264572   6.137   5.780   3.891 -0.1162 -0.1783  0.5291
14361TIP3   OH264573   6.861   5.760   4.016 -0.1497 -0.2880 -0.2548
14361TIP3    H164574   6.869   5.705   4.094 -1.2644  0.2865  0.2867
14361TIP3    H264575   6.937   5.737   3.963  0.2602 -1.1896  0.6836
14362TIP3   OH264576   1.159   2.255   1.204  0.4896 -0.1193  0.4063
14362TIP3    H164577   1.195   2.209   1.128  0.3139 -0.6188  0.6262
14362TIP3    H264578   1.092   2.313   1.167 -1.2871 -2.0824  0.4018
14363TIP3   OH264579   0.021   5.013  17.052  0.1890  0.1422  0.1075
14363TIP3    H164580  -0.022   4.941  17.096  0.5779  0.4383  0.9888
14363TIP3    H264581  -0.017   5.013  16.963  1.5300 -2.2949 -0.5444
14364TIP3   OH264582   2.594   4.675   0.309 -0.0533 -0.3767  0.3638
14364TIP3    H164583   2.667   4.635   0.357  2.6435 -0.1483 -3.1365
14364TIP3    H264584   2.597   4.767   0.333  1.1719 -0.2797 -0.1019
14365TIP3   OH264585   2.412   4.460  16.934  0.6215 -0.5937  0.0032
14365TIP3    H164586   2.462   4.457  17.016  0.4440 -0.3171  0.1227
14365TIP3    H264587   2.462   4.520  16.878  1.2173 -1.4628 -0.4119
14366TIP3   OH264588   6.178   5.174   5.280  0.2106 -0.4130 -0.4746
14366TIP3    H164589   6.217   5.258   5.256 -0.2284  0.0622  0.4264
14366TIP3    H264590   6.089   5.177   5.244  0.0946 -0.3652 -0.1850
14367TIP3   OH264591   4.193   3.423   5.420  0.1323  0.6481 -0.2018
14367TIP3    H164592   4.130   3.403   5.490 -0.1403  1.2452 -0.2747
14367TIP3    H264593   4.251   3.347   5.418 -0.4855  0.1656 -0.0187
14368TIP3   OH264594   1.408   5.413   5.942 -0.0928 -0.5862 -0.8366
14368TIP3    H164595   1.335   5.402   6.003 -0.3646  1.7350 -0.6233
14368TIP3    H264596   1.485   5.382   5.990 -0.2285  1.5905  0.9892
14369TIP3   OH264597   1.128   3.189   5.618 -0.7427 -0.1658  0.2632
14369TIP3    H164598   1.044   3.233   5.621 -0.6852 -0.0584  2.4957
14369TIP3    H264599   1.185   3.243   5.674 -0.1786 -2.0127  1.5849
14370TIP3   OH264600   0.165   2.289   3.352  0.4614  0.3087 -0.8657
14370TIP3    H164601   0.128   2.277   3.264 -0.5051 -0.3078 -0.3873
14370TIP3    H264602   0.207   2.205   3.371  0.5662  0.4025 -0.6877
14371TIP3   OH264603   6.582   1.214  13.258 -0.6552 -0.4837  0.1084
14371TIP3    H164604   6.544   1.169  13.183 -1.5543  0.7408 -0.2042
14371TIP3    H264605   6.585   1.306  13.232  0.1048 -0.1996  1.1415
14372TIP3   OH264606   0.877   5.831  12.981  0.2126 -1.3827 -0.5693
14372TIP3    H164607   0.954   5.887  12.994 -1.4806  0.7275  0.9634
14372TIP3    H264608   0.887   5.798  12.891  0.9734  1.9814 -1.8681
14373TIP3   OH264609   0.339   3.431  11.412 -0.2878  0.2774 -0.3761
14373TIP3    H164610   0.246   3.453  11.411 -0.3595  0.3316 -3.4405
14373TIP3    H264611   0.381   3.501  11.461 -1.8217  0.2902  0.9819
14374TIP3   OH264612   1.732   6.482   0.221 -0.2549 -0.2234  0.3764
14374TIP3    H164613   1.803   6.517   0.167 -1.3439  0.2915 -0.7770
14374TIP3    H264614   1.666   6.551   0.221 -1.2904 -1.1861  0.3680
14375TIP3   OH264615   1.393   3.112  15.845 -0.6428 -0.4224  0.7546
14375TIP3    H164616   1.318   3.092  15.902 -0.9456  0.6955  0.7673
14375TIP3    H264617   1.419   3.200  15.869 -1.2130  0.3595 -1.2773
14376TIP3   OH264618   5.193   5.123   5.813  0.3537 -0.3681 -0.2286
14376TIP3    H164619   5.205   5.161   5.900 -0.3967  0.0248 -0.2899
14376TIP3    H264620   5.272   5.071   5.798  0.2847 -0.8008  0.8653
14377TIP3   OH264621   3.017   4.628   0.716  0.0985 -0.3572  0.2127
14377TIP3    H164622   2.965   4.569   0.770  0.9797 -0.0240  1.4594
14377TIP3    H264623   2.999   4.715   0.751 -0.5626  0.0621 -1.0925
14378TIP3   OH264624   1.995   1.973   5.879 -0.3708 -0.4599 -0.0766
14378TIP3    H164625   2.005   1.947   5.970 -0.4697 -0.3507 -0.0341
14378TIP3    H264626   2.084   1.974   5.845  0.0115  2.0590  0.7434
14379TIP3   OH264627   4.152   1.411  16.924 -0.1993 -0.3913  0.1596
14379TIP3    H164628   4.238   1.440  16.952  0.4014 -1.0554 -0.9080
14379TIP3    H264629   4.145   1.321  16.956 -0.1926 -0.5820 -0.3568
14380TIP3   OH264630   4.922   6.782   2.761 -1.0354 -0.3208 -0.2841
14380TIP3    H164631   4.868   6.704   2.748 -0.7583 -0.7512  0.9846
14380TIP3    H264632   4.862   6.847   2.799 -1.2057  0.0212 -1.1041
14381TIP3   OH264633   1.002   1.397   1.618 -0.1334 -0.3607  0.6429
14381TIP3    H164634   0.942   1.330   1.649 -1.4759  0.8190  0.7258
14381TIP3    H264635   0.963   1.429   1.537  2.5447 -2.3749 -1.6514
14382TIP3   OH264636   4.786   3.256   5.641  0.1698 -0.2904 -0.6382
14382TIP3    H164637   4.879   3.265   5.621  0.0805 -0.1984 -1.0116
14382TIP3    H264638   4.783   3.190   5.711  0.6278  0.8192  0.4499
14383TIP3   OH264639   2.095   3.872   4.970  0.3161  0.3113 -0.0550
14383TIP3    H164640   2.091   3.795   4.914 -1.6783 -1.4498  2.2871
14383TIP3    H264641   2.176   3.860   5.021  0.4228  0.1925 -0.2501
14384TIP3   OH264642   5.283   1.026   2.759  0.1153 -0.4754  0.4252
14384TIP3    H164643   5.208   1.062   2.712  0.8207 -1.6421 -1.7237
14384TIP3    H264644   5.341   1.101   2.771  0.5483 -0.3634 -1.9174
14385TIP3   OH264645   1.990   4.759   3.446  0.1819  0.0952  0.1705
14385TIP3    H164646   1.953   4.690   3.391 -0.7631 -0.2433  1.1954
14385TIP3    H264647   1.980   4.727   3.535 -0.4382  1.6269  0.6886
14386TIP3   OH264648   6.362   0.830   4.355 -0.1415 -0.2700  0.3583
14386TIP3    H164649   6.351   0.883   4.434 -2.2029 -0.2070  0.0640
14386TIP3    H264650   6.299   0.759   4.365  1.6941 -2.0178  0.1477
14387TIP3   OH264651   1.262   6.728  11.481  0.1405  0.1791 -0.0321
14387TIP3    H164652   1.215   6.786  11.541 -2.0483 -0.8723 -0.6123
14387TIP3    H264653   1.217   6.739  11.397  1.2841 -0.5208 -0.7604
14388TIP3   OH264654   0.373   0.008   1.761 -0.2171  0.5388 -0.5747
14388TIP3    H164655   0.429   0.084   1.748  1.4556 -0.3026  1.0528
14388TIP3    H264656   0.383  -0.013   1.854 -3.1879  0.2373 -0.2432
14389TIP3   OH264657   0.286   1.148  13.039 -0.2988  0.4638 -0.1758
14389TIP3    H164658   0.229   1.109  13.106 -0.3261 -0.3286 -0.6437
14389TIP3    H264659   0.233   1.217  13.000 -1.3753 -0.9408 -1.3222
14390TIP3   OH264660   4.569   1.995  13.693  0.0973  0.1885  0.2872
14390TIP3    H164661   4.585   2.053  13.767 -0.2131  0.4640  0.1428
14390TIP3    H264662   4.655   1.958  13.672  0.1079 -0.2565  1.0751
14391TIP3   OH264663   0.013   3.167  10.600 -0.4659 -0.4746 -0.5126
14391TIP3    H164664  -0.034   3.213  10.670 -1.5664 -1.3019 -0.6774
14391TIP3    H264665   0.098   3.209  10.597 -0.5896 -0.0553  0.9658
14392TIP3   OH264666   0.911   4.913  16.934  0.3160 -0.2598 -0.7639
14392TIP3    H164667   0.915   4.905  16.839  0.2395 -0.1224 -0.7791
14392TIP3    H264668   0.822   4.942  16.952  0.1881 -0.7345 -0.6140
14393TIP3   OH264669   2.769   3.908  16.038  0.4034 -0.1269  0.3575
14393TIP3    H164670   2.849   3.914  15.985  0.7007 -1.0924  0.6791
14393TIP3    H264671   2.738   3.998  16.044  1.5241  0.2833  0.3072
14394TIP3   OH264672   0.863   1.404  11.400  0.0896 -0.6903  0.0125
14394TIP3    H164673   0.887   1.496  11.412  1.1849 -0.7126 -1.6335
14394TIP3    H264674   0.810   1.382  11.476 -0.2836  1.3347  0.3726
14395TIP3   OH264675   6.456   3.942  12.329  0.2519 -0.1959  0.0858
14395TIP3    H164676   6.448   4.037  12.320  2.2185 -0.1338 -1.8298
14395TIP3    H264677   6.378   3.907  12.287  0.6157  0.5596 -1.2781
14396TIP3   OH264678   4.744   1.694  13.522  0.3567  0.0196 -0.1771
14396TIP3    H164679   4.767   1.782  13.553  0.1129 -0.0916  0.3274
14396TIP3    H264680   4.752   1.639  13.599  0.4381 -0.3941 -0.4762
14397TIP3   OH264681   1.024   2.221   2.946 -0.4092 -0.0096  0.1329
14397TIP3    H164682   1.092   2.264   2.997  0.5941 -2.4209  0.9704
14397TIP3    H264683   1.064   2.139   2.916 -2.5543 -0.9356 -0.4078
14398TIP3   OH264684   2.106   0.917   3.347  0.1496  0.3992  0.2535
14398TIP3    H164685   2.082   0.858   3.275  0.8744 -1.6561  1.6026
14398TIP3    H264686   2.201   0.923   3.342  0.1566  0.6790  0.7249
14399TIP3   OH264687   5.272   3.881   0.311 -0.0960 -0.2822  0.0232
14399TIP3    H164688   5.245   3.855   0.223 -2.2401 -0.3687  0.6410
14399TIP3    H264689   5.360   3.843   0.321 -0.7447 -2.3186 -1.2252
14400TIP3   OH264690   4.747   1.685  13.925  0.5959  0.1822 -0.0900
14400TIP3    H164691   4.703   1.620  13.870  1.4614 -0.6072  0.1313
14400TIP3    H264692   4.778   1.636  14.000  1.7283  0.7560 -0.1698
14401TIP3   OH264693   4.466   2.871  12.532  0.5031 -0.1804  0.2319
14401TIP3    H164694   4.412   2.939  12.492 -0.4243 -0.8162  0.3850
14401TIP3    H264695   4.409   2.830  12.597  1.1791 -0.8524  0.4149
14402TIP3   OH264696   5.756   5.429  10.606 -0.4920  0.1432 -0.3258
14402TIP3    H164697   5.713   5.409  10.689 -1.2994  0.1836 -0.7302
14402TIP3    H264698   5.715   5.510  10.576 -0.2469  0.0968 -0.8022
14403TIP3   OH264699   2.124   5.841  11.539 -0.2554 -0.7633  0.0723
14403TIP3    H164700   2.071   5.778  11.587  0.4561 -1.3678  0.0803
14403TIP3    H264701   2.061   5.904  11.503 -0.8704 -0.8772  0.9475
14404TIP3   OH264702   6.743   1.784   3.918  0.2294 -0.1522 -0.5659
14404TIP3    H164703   6.679   1.712   3.923 -0.6964  0.4835 -2.4094
14404TIP3    H264704   6.827   1.740   3.906 -0.4144 -0.9703 -2.4599
14405TIP3   OH264705   6.351   6.619   1.437  0.4537  0.4096  0.1491
14405TIP3    H164706   6.356   6.524   1.431 -0.1767  0.3684  0.1677
14405TIP3    H264707   6.440   6.649   1.418  0.4546 -0.1368 -0.8180
14406TIP3   OH264708   4.791   0.064  11.805  0.3287  0.3949  0.5319
14406TIP3    H164709   4.858   0.107  11.858 -0.4176  0.8010  1.1751
14406TIP3    H264710   4.708   0.091  11.845 -0.2632  0.7337 -0.8530
14407TIP3   OH264711   2.710   5.890  11.679 -0.3789  0.4367  0.2663
14407TIP3    H164712   2.658   5.906  11.600 -0.4041 -0.8012  0.0055
14407TIP3    H264713   2.795   5.929  11.660 -0.9147  1.6895  0.3404
14408TIP3   OH264714   2.356   5.310  16.148 -0.2476 -0.3607 -0.6915
14408TIP3    H164715   2.329   5.265  16.229  0.4785  0.1386 -0.1658
14408TIP3    H264716   2.447   5.335  16.163 -0.3421  0.4263 -1.3679
14409TIP3   OH264717   6.483   3.853  11.824  0.1249 -0.5240  0.0861
14409TIP3    H164718   6.519   3.884  11.907  0.9017  0.5575 -0.6339
14409TIP3    H264719   6.557   3.811  11.780 -0.5665 -2.1668  0.4229
14410TIP3   OH264720   6.088   5.435   2.875  0.5903  0.5762  0.6563
14410TIP3    H164721   5.993   5.448   2.879  0.3819 -0.4314 -0.7250
14410TIP3    H264722   6.124   5.520   2.903 -0.7156  1.5402 -0.4604
14411TIP3   OH264723   4.079   3.200  16.788  0.0191 -0.5377 -0.3839
14411TIP3    H164724   4.173   3.182  16.791  0.1507  0.0182 -0.8999
14411TIP3    H264725   4.057   3.195  16.695 -0.1388  0.8897 -0.4462
14412TIP3   OH264726   5.311   0.523  11.401 -0.5555  0.4748 -0.0883
14412TIP3    H164727   5.278   0.445  11.444  0.3517 -0.1106 -0.4317
14412TIP3    H264728   5.262   0.595  11.441 -0.8599 -0.1948  0.7688
14413TIP3   OH264729   3.468   5.884  11.098  0.1608  0.3687 -0.1825
14413TIP3    H164730   3.459   5.897  11.004 -2.3120  0.6592  0.0282
14413TIP3    H264731   3.440   5.793  11.112 -1.2281  0.8670  0.4307
14414TIP3   OH264732   0.155   6.452   6.254 -0.3956 -0.1370  0.5551
14414TIP3    H164733   0.059   6.449   6.250 -0.3955  0.1531  0.3243
14414TIP3    H264734   0.175   6.453   6.348 -0.5999 -0.7495  0.6103
14415TIP3   OH264735   0.779   1.358   5.853  0.5998  0.3656 -0.2228
14415TIP3    H164736   0.796   1.333   5.944  0.8628  1.6164  0.0850
14415TIP3    H264737   0.706   1.419   5.857  0.4168  0.2060 -0.8919
14416TIP3   OH264738   5.779   5.623   2.342 -0.2118 -0.1744 -0.2555
14416TIP3    H164739   5.778   5.531   2.316 -0.2516 -0.1604 -0.3029
14416TIP3    H264740   5.733   5.625   2.426 -2.1122  0.1096 -1.2532
14417TIP3   OH264741   5.667   6.217  13.874  0.1835 -0.4524 -0.0371
14417TIP3    H164742   5.721   6.209  13.795  1.8349 -0.6588  1.0629
14417TIP3    H264743   5.680   6.134  13.920  0.7601  0.3606  1.3371
14418TIP3   OH264744   2.204   3.765  11.197  0.1197  0.1088  0.2669
14418TIP3    H164745   2.197   3.820  11.275 -0.3261  0.5812 -0.1007
14418TIP3    H264746   2.205   3.827  11.124  2.6361 -0.1647 -0.0476
14419TIP3   OH264747   6.169   4.401   0.294  0.4580  0.1838  0.0890
14419TIP3    H164748   6.139   4.310   0.288 -0.0599  0.1926  1.8601
14419TIP3    H264749   6.089   4.451   0.314  0.7952  0.9868 -0.5292
14420TIP3   OH264750   6.770   5.240  13.665  0.6773  0.6615 -0.4530
14420TIP3    H164751   6.865   5.251  13.662  0.7022  0.3645 -2.4828
14420TIP3    H264752   6.743   5.281  13.747  2.6694 -0.2957  0.7494
14421TIP3   OH264753   3.526   5.083  12.917  0.5769  0.8899 -0.9122
14421TIP3    H164754   3.554   4.996  12.946 -1.5950  0.6471  0.7422
14421TIP3    H264755   3.607   5.135  12.917  1.8798 -1.0168 -1.6600
14422TIP3   OH264756   6.071   2.030  12.149 -0.2159 -0.1083  0.2603
14422TIP3    H164757   6.158   2.011  12.186  0.2781  0.6287 -0.4931
14422TIP3    H264758   6.086   2.034  12.055 -1.4982 -2.2126 -0.0894
14423TIP3   OH264759   1.122   5.585   2.821 -0.3598  0.1343  0.2130
14423TIP3    H164760   1.175   5.528   2.876 -0.7821 -1.4495 -0.9588
14423TIP3    H264761   1.176   5.664   2.810  0.2428 -0.0170  1.8354
14424TIP3   OH264762   0.533   2.920  17.098 -0.0885  0.0122 -0.2164
14424TIP3    H164763   0.583   2.930  17.179 -0.0463  0.8078 -0.3341
14424TIP3    H264764   0.468   2.990  17.101 -1.5292 -1.2951  0.1490
14425TIP3   OH264765   5.010   1.948  13.226 -0.1820 -0.5452 -0.2182
14425TIP3    H164766   4.964   1.993  13.156  0.6100 -1.8298 -1.6197
14425TIP3    H264767   5.071   2.013  13.261 -1.3922  0.4551  0.0966
14426TIP3   OH264768   6.096   5.967  13.122 -0.0737 -0.1632 -0.3220
14426TIP3    H164769   6.083   5.874  13.142  1.2490 -0.2714  0.1260
14426TIP3    H264770   6.170   5.969  13.061 -0.0027  0.6029 -0.2243
14427TIP3   OH264771   3.440   2.005   5.750 -0.6055  0.0022  0.0931
14427TIP3    H164772   3.465   2.092   5.720 -1.2607  0.4234  0.7373
14427TIP3    H264773   3.476   1.998   5.839 -2.0932  0.3381  0.7477
14428TIP3   OH264774   0.448   0.417  10.963 -0.2151 -0.2253 -0.0218
14428TIP3    H164775   0.447   0.450  11.053  1.1211 -0.5822  0.1430
14428TIP3    H264776   0.387   0.474  10.917 -1.9155 -0.8379  1.3621
14429TIP3   OH264777   2.564   2.908   4.276 -0.5206  0.1226 -0.7086
14429TIP3    H164778   2.489   2.892   4.219 -0.5987 -0.8856 -0.3476
14429TIP3    H264779   2.609   2.823   4.279  0.0329  0.4388 -0.0713
14430TIP3   OH264780   0.610   6.161   2.370  0.3474  0.5590  0.3905
14430TIP3    H164781   0.517   6.146   2.388  0.6558 -1.4301  0.5504
14430TIP3    H264782   0.633   6.235   2.426 -1.0671  0.8878  0.5751
14431TIP3   OH264783   5.900   6.654   3.116  0.6648  0.5292 -0.7087
14431TIP3    H164784   5.820   6.700   3.140  1.0651  0.0623  1.8276
14431TIP3    H264785   5.965   6.723   3.104  0.0118  0.8890 -2.4988
14432TIP3   OH264786   2.740   2.396   4.223  0.3849  0.1558  0.2328
14432TIP3    H164787   2.684   2.414   4.298  2.2954 -1.3425  2.1562
14432TIP3    H264788   2.682   2.400   4.148 -2.6834 -2.7564  2.1895
14433TIP3   OH264789   0.758   5.369  16.044 -0.5066 -0.8197 -0.2347
14433TIP3    H164790   0.711   5.401  16.120  0.7868  0.3718  0.1151
14433TIP3    H264791   0.707   5.400  15.969  0.0248  1.0141  0.1267
14434TIP3   OH264792   4.146   6.580  12.016  0.3141 -0.0732 -0.1327
14434TIP3    H164793   4.113   6.647  12.075  2.0013  1.7576 -1.1636
14434TIP3    H264794   4.225   6.547  12.058  1.8253  1.6182 -1.4971
14435TIP3   OH264795   3.436   6.408   0.584 -0.0006  0.5637  0.1136
14435TIP3    H164796   3.528   6.384   0.576 -0.2355 -0.1015 -0.7108
14435TIP3    H264797   3.419   6.404   0.678  0.8502  0.8712  0.2919
14436TIP3   OH264798   1.646   4.788   4.187  0.0264 -0.1515  0.0089
14436TIP3    H164799   1.623   4.700   4.157  1.8163 -0.3225 -1.0019
14436TIP3    H264800   1.564   4.825   4.219 -0.9588 -1.8088 -0.5027
14437TIP3   OH264801   2.813   5.773  16.924  0.0536  0.0149  0.3400
14437TIP3    H164802   2.872   5.840  16.890  0.7780 -0.6977  0.1800
14437TIP3    H264803   2.849   5.691  16.893 -2.0188 -0.3798 -1.3186
14438TIP3   OH264804   6.806   5.701  16.920 -0.2641  0.1033  0.8256
14438TIP3    H164805   6.778   5.683  16.830  0.6096  0.6846  0.4323
14438TIP3    H264806   6.727   5.735  16.962 -0.5421  0.3555  0.1272
14439TIP3   OH264807   0.896   6.348   5.971 -0.2458  0.5629  0.6669
14439TIP3    H164808   0.907   6.428   5.919  0.4623 -0.4609 -0.8278
14439TIP3    H264809   0.975   6.342   6.024  1.4737 -0.9338 -1.8435
14440TIP3   OH264810   0.228   0.496   3.153  0.1028  0.4040  0.6278
14440TIP3    H164811   0.297   0.533   3.098 -1.9047  2.3519 -0.7373
14440TIP3    H264812   0.181   0.436   3.095  0.9393 -1.3962  1.7202
14441TIP3   OH264813   5.822   2.053   3.756  0.0033  0.1359  0.6587
14441TIP3    H164814   5.873   2.115   3.810 -1.6692  0.5836  1.8062
14441TIP3    H264815   5.782   2.108   3.689  2.0583 -0.4174 -1.1388
14442TIP3   OH264816   5.115   2.405  12.726 -0.1983  0.2723 -0.7514
14442TIP3    H164817   5.058   2.331  12.747  0.8055 -0.1333  0.6589
14442TIP3    H264818   5.072   2.448  12.652 -1.6670 -0.7406 -0.5215
14443TIP3   OH264819   5.634   0.831   3.409  0.4972  0.3060 -0.7860
14443TIP3    H164820   5.693   0.883   3.463  0.2054 -0.0876 -0.0721
14443TIP3    H264821   5.682   0.817   3.327  0.6435  1.5319 -0.9302
14444TIP3   OH264822   3.912   3.297   4.764  0.6765  0.2115  0.0959
14444TIP3    H164823   3.921   3.222   4.705  2.3334 -0.1407  0.7587
14444TIP3    H264824   3.861   3.264   4.838 -1.7198  0.7454 -1.2069
14445TIP3   OH264825   2.620   3.800  15.477  0.0262 -0.2020 -0.8159
14445TIP3    H164826   2.598   3.892  15.463  0.0229  0.0265  0.5540
14445TIP3    H264827   2.715   3.797  15.469  0.9666  1.2575  5.2153
14446TIP3   OH264828   0.018   1.648  13.966 -0.1444  0.0673 -0.2639
14446TIP3    H164829   0.079   1.592  13.918  1.4102  1.0392  0.4845
14446TIP3    H264830   0.068   1.678  14.043 -0.7345  2.7932 -0.8334
14447TIP3   OH264831   0.347   3.589   2.088 -0.4353  0.1776  0.5270
14447TIP3    H164832   0.318   3.545   2.007 -1.4808  1.6818  0.0353
14447TIP3    H264833   0.427   3.543   2.113 -0.9490 -1.3399 -0.4983
14448TIP3   OH264834   2.575   0.775  15.161 -0.4926 -0.5575  0.3527
14448TIP3    H164835   2.571   0.740  15.071 -0.4837 -0.1846  0.2065
14448TIP3    H264836   2.641   0.844  15.157  0.6120 -1.5419  0.9939
14449TIP3   OH264837   5.320   4.858  14.261 -0.6349 -0.2052 -0.7038
14449TIP3    H164838   5.374   4.911  14.319  0.3550 -0.2378 -1.5667
14449TIP3    H264839   5.231   4.871  14.293 -0.0911 -0.5314  1.0336
14450TIP3   OH264840   1.636   0.826  14.233 -0.5301 -0.2998  0.3944
14450TIP3    H164841   1.725   0.795  14.222 -0.3205  0.3645  0.1611
14450TIP3    H264842   1.635   0.913  14.193 -1.7759 -1.0653 -1.3714
14451TIP3   OH264843   5.843   5.972  13.501  0.1754 -0.8546 -0.5537
14451TIP3    H164844   5.789   6.051  13.501  1.0986 -0.1057  1.9241
14451TIP3    H264845   5.829   5.933  13.415 -3.3008 -0.0901 -0.4774
14452TIP3   OH264846   2.526   1.157  13.428  0.0286  0.0686  0.2318
14452TIP3    H164847   2.435   1.186  13.438 -0.4648 -1.3376  0.1110
14452TIP3    H264848   2.532   1.080  13.485  0.9898 -0.1798 -0.1865
14453TIP3   OH264849   3.010   0.921   3.314  0.3410  0.1598  0.0311
14453TIP3    H164850   2.955   0.974   3.257 -0.4653  0.0615  0.6897
14453TIP3    H264851   3.086   0.976   3.332 -0.5012  1.1398  0.7415
14454TIP3   OH264852   1.588   1.457  14.164  0.0955  0.3694  0.2238
14454TIP3    H164853   1.601   1.541  14.207  0.9534 -0.0982  0.8953
14454TIP3    H264854   1.638   1.395  14.216 -0.1737 -0.4902 -0.5173
14455TIP3   OH264855   4.039   0.386   4.711 -0.0689  0.0381 -0.1913
14455TIP3    H164856   4.061   0.302   4.751  0.4913 -0.5310 -1.6181
14455TIP3    H264857   4.114   0.406   4.655 -0.3381  1.3419 -0.1279
14456TIP3   OH264858   3.426   4.445   4.442  0.3383 -0.2206  0.0895
14456TIP3    H164859   3.441   4.355   4.414 -1.2618 -0.2152 -0.8346
14456TIP3    H264860   3.431   4.497   4.362 -0.4275  0.2917  0.3636
14457TIP3   OH264861   6.816   3.767  14.668 -0.3324 -0.5698  0.2037
14457TIP3    H164862   6.869   3.761  14.748 -0.0360  1.3045  0.1860
14457TIP3    H264863   6.858   3.705  14.608  1.3192  0.2202  0.4912
14458TIP3   OH264864   5.549   3.314   6.316  0.3101 -0.4472 -0.2178
14458TIP3    H164865   5.644   3.324   6.324  0.6940 -1.6948 -2.3705
14458TIP3    H264866   5.529   3.239   6.373  0.9308 -1.3222 -1.1135
14459TIP3   OH264867   0.731   1.403   1.452 -0.3749 -0.4525  0.3864
14459TIP3    H164868   0.689   1.325   1.415 -0.8419  0.2386 -0.5771
14459TIP3    H264869   0.679   1.423   1.530  0.8877 -2.1793  1.7785
14460TIP3   OH264870   0.304   0.939  15.103  0.3671  0.9183 -0.4534
14460TIP3    H164871   0.235   0.886  15.062 -0.8900  1.4182  0.9471
14460TIP3    H264872   0.284   1.029  15.076 -0.4012  1.2377  1.1058
14461TIP3   OH264873   2.751   3.735   5.451  0.0705  0.1273  0.0860
14461TIP3    H164874   2.748   3.784   5.533  0.4012  1.5663 -0.7128
14461TIP3    H264875   2.702   3.655   5.468  0.2219  0.3495  1.7021
14462TIP3   OH264876   3.767   4.714  11.057 -0.0922 -0.0645  0.3543
14462TIP3    H164877   3.768   4.650  10.986  0.4998  1.7893 -1.4182
14462TIP3    H264878   3.689   4.767  11.042  2.2326  3.1745 -1.7702
14463TIP3   OH264879   2.644   4.157   0.083  0.1464 -0.2011  0.3427
14463TIP3    H164880   2.695   4.084   0.120  0.0371 -0.0558  0.7894
14463TIP3    H264881   2.553   4.136   0.104  0.1326  0.1671  0.6593
14464TIP3   OH264882   0.202   2.646   4.483 -0.6192 -0.0881  0.3555
14464TIP3    H164883   0.293   2.651   4.514 -0.0160 -2.0953 -0.9244
14464TIP3    H264884   0.159   2.588   4.546 -0.3299 -1.2044 -0.4498
14465TIP3   OH264885   3.604   3.942   1.467 -0.4271 -0.1579 -0.0947
14465TIP3    H164886   3.569   3.985   1.389 -0.9192  2.8015  1.5901
14465TIP3    H264887   3.533   3.948   1.531  0.9938  0.3003  1.4999
14466TIP3   OH264888   0.595   6.030  15.602  0.0923 -0.0788 -0.4363
14466TIP3    H164889   0.579   6.104  15.543  2.9306  2.8544  2.0705
14466TIP3    H264890   0.623   6.070  15.684 -1.5036 -3.9698  2.3053
14467TIP3   OH264891   2.145   3.934   0.801  0.9046  0.3465  0.0922
14467TIP3    H164892   2.183   4.022   0.805 -0.9514  1.2481 -0.4447
14467TIP3    H264893   2.055   3.949   0.769  0.1229 -1.6212  1.2029
14468TIP3   OH264894   5.978   2.438   3.182 -0.5216 -0.2172  0.0606
14468TIP3    H164895   5.956   2.347   3.200  0.9771 -0.3275  1.6028
14468TIP3    H264896   5.894   2.484   3.187 -1.1280 -1.3253  0.5634
14469TIP3   OH264897   1.688   4.029  11.545 -0.0024  0.2203 -0.2409
14469TIP3    H164898   1.713   3.939  11.569  1.0830  0.0903 -1.7474
14469TIP3    H264899   1.765   4.064  11.501  0.0190  2.3249  1.3453
14470TIP3   OH264900   4.411   0.180   0.753  0.3939  0.4677 -0.1123
14470TIP3    H164901   4.343   0.242   0.779  0.3378 -0.2594  1.5649
14470TIP3    H264902   4.400   0.172   0.658 -2.4143 -0.2418  0.1703
14471TIP3   OH264903   2.391   1.961   5.532  0.9482 -0.3466  0.4589
14471TIP3    H164904   2.355   1.902   5.466  0.4874 -0.9672  1.2390
14471TIP3    H264905   2.484   1.939   5.536  0.4508 -2.5606  2.2018
14472TIP3   OH264906   4.379   5.829  12.675  0.3730 -0.1831  0.6834
14472TIP3    H164907   4.316   5.821  12.747 -0.8043 -0.2948 -0.3267
14472TIP3    H264908   4.415   5.741  12.664 -1.2182 -0.7531 -0.3871
14473TIP3   OH264909   2.356   5.774  16.490  0.4068  0.6804 -0.6313
14473TIP3    H164910   2.378   5.700  16.546 -0.5659  1.5326  0.9367
14473TIP3    H264911   2.265   5.758  16.463 -0.6668  2.3754  1.6433
14474TIP3   OH264912   1.452   3.624   3.551 -0.2388  0.1420 -0.7790
14474TIP3    H164913   1.466   3.558   3.619  2.3668 -0.1562 -1.4944
14474TIP3    H264914   1.494   3.588   3.473  0.4330  2.2359 -1.4422
14475TIP3   OH264915   2.943   3.301   0.127 -0.2204 -0.6920  0.2965
14475TIP3    H164916   3.021   3.266   0.172 -1.6153 -1.2982  2.3815
14475TIP3    H264917   2.869   3.257   0.169 -1.8032  1.0576 -0.5078
14476TIP3   OH264918   3.710   1.304  15.161 -0.9742  0.0965  0.4464
14476TIP3    H164919   3.677   1.385  15.121 -2.5283  0.0324  1.5370
14476TIP3    H264920   3.799   1.326  15.188 -0.2174  0.4644 -2.0519
14477TIP3   OH264921   6.731   4.856  10.739 -0.0574  0.4890  0.4696
14477TIP3    H164922   6.734   4.820  10.828 -0.3672 -0.8553 -0.0311
14477TIP3    H264923   6.642   4.839  10.709  0.7929 -1.8086 -1.1128
14478TIP3   OH264924   6.752   5.766   1.508 -0.1812 -0.2076 -0.1436
14478TIP3    H164925   6.841   5.779   1.475 -0.1734  1.0813  0.3371
14478TIP3    H264926   6.739   5.837   1.571 -0.8548 -1.5217  1.2648
14479TIP3   OH264927   1.528   5.589   2.284 -0.0038 -0.6601  0.3868
14479TIP3    H164928   1.467   5.549   2.346 -0.6169 -1.3651 -0.6562
14479TIP3    H264929   1.472   5.631   2.219  0.6369  0.5011  0.5572
14480TIP3   OH264930   4.031   5.841   5.935  0.1692 -0.3336  0.3002
14480TIP3    H164931   4.062   5.757   5.901  0.6398 -0.4835  1.0641
14480TIP3    H264932   4.086   5.906   5.892 -0.7294 -0.3325 -0.9111
14481TIP3   OH264933   3.300   4.598  12.132  0.1643 -0.2003 -0.6164
14481TIP3    H164934   3.368   4.666  12.131 -0.8938  0.8828 -0.9309
14481TIP3    H264935   3.311   4.553  12.048  1.3529 -0.9476 -0.0908
14482TIP3   OH264936   6.420   5.889   5.602  0.0958  0.0962 -0.2225
14482TIP3    H164937   6.499   5.911   5.652  1.1965  0.3469 -1.9544
14482TIP3    H264938   6.419   5.954   5.532 -1.6588  0.0642 -0.2529
14483TIP3   OH264939   6.840   0.910  14.731  0.3373 -0.9433 -0.8227
14483TIP3    H164940   6.882   0.957  14.659  2.7362 -2.4041 -0.4776
14483TIP3    H264941   6.765   0.866  14.691  0.0964  0.3290 -1.8404
14484TIP3   OH264942   1.293   6.091   0.944 -0.1620  0.3283  0.3508
14484TIP3    H164943   1.261   6.155   1.008  0.1568  1.6640 -0.7761
14484TIP3    H264944   1.306   6.142   0.864 -0.4809 -1.2902 -0.7639
14485TIP3   OH264945   5.776   1.876  13.076 -0.1166  0.5761  0.8256
14485TIP3    H164946   5.773   1.815  13.002  0.3092  1.7540 -0.1906
14485TIP3    H264947   5.839   1.836  13.137 -0.6777 -0.5428  0.7086
14486TIP3   OH264948   0.582   0.045   3.929 -0.0915  0.3604  0.1859
14486TIP3    H164949   0.624   0.098   3.861 -0.1577  0.3639  0.1467
14486TIP3    H264950   0.653  -0.004   3.970  0.1604  1.4433  1.0954
14487TIP3   OH264951   0.277   3.776  12.124  0.5515 -0.3772  0.1928
14487TIP3    H164952   0.217   3.795  12.196 -0.1753 -0.7457 -0.2984
14487TIP3    H264953   0.299   3.683  12.136 -0.1350 -0.6301 -0.4589
14488TIP3   OH264954   1.360   5.017   2.627  0.3773  0.2117 -0.1974
14488TIP3    H164955   1.404   5.090   2.585  1.4673 -0.1937  0.2144
14488TIP3    H264956   1.325   5.052   2.708 -1.0928  0.8139 -1.0387
14489TIP3   OH264957   1.148   3.200  11.815 -0.3779  0.3414  0.2301
14489TIP3    H164958   1.211   3.213  11.886  0.1020  0.0161 -0.1366
14489TIP3    H264959   1.201   3.178  11.739 -0.9474 -0.2099 -0.0182
14490TIP3   OH264960   5.357   6.795  12.951 -0.0996 -0.5257  0.4109
14490TIP3    H164961   5.337   6.754  13.035 -0.3992  1.3872  1.3174
14490TIP3    H264962   5.292   6.759  12.891 -0.9590 -0.6444  1.3841
14491TIP3   OH264963   1.196   6.848   5.811 -0.0907  0.5753 -0.1983
14491TIP3    H164964   1.133   6.839   5.882 -1.3375 -0.2333 -1.3581
14491TIP3    H264965   1.252   6.771   5.820 -0.6768  0.1095 -0.4927
14492TIP3   OH264966   6.328   0.129  15.937  0.6429 -0.1422 -0.3690
14492TIP3    H164967   6.372   0.045  15.951 -1.2933 -1.2412 -0.4959
14492TIP3    H264968   6.358   0.184  16.009  0.9376 -1.3856  0.4912
14493TIP3   OH264969   1.091   0.310   0.774 -0.5860 -0.7152 -0.3757
14493TIP3    H164970   0.997   0.308   0.787 -0.4134 -2.7204  1.0688
14493TIP3    H264971   1.113   0.220   0.749  0.8738 -0.1215 -1.3513
14494TIP3   OH264972   5.013   3.791  12.899 -0.2321 -0.0940  0.0118
14494TIP3    H164973   4.980   3.826  12.816 -2.4825 -0.2537  0.7482
14494TIP3    H264974   4.991   3.858  12.964  2.4784  0.5188  0.3919
14495TIP3   OH264975   1.166   0.624   1.410  0.2622 -0.0676 -0.6653
14495TIP3    H164976   1.109   0.627   1.333 -0.6294 -1.9638 -0.1308
14495TIP3    H264977   1.141   0.544   1.455 -0.7124  1.9292  2.7204
14496TIP3   OH264978   6.462   4.670   0.187  0.0879 -0.1035 -0.0409
14496TIP3    H164979   6.432   4.588   0.225  2.1772 -1.4191 -1.0226
14496TIP3    H264980   6.430   4.667   0.096 -2.3655  1.6380  0.6701
14497TIP3   OH264981   0.040   5.922   4.913  0.1064 -0.2258  0.5725
14497TIP3    H164982   0.096   5.889   4.842 -0.3036  1.5351 -0.6404
14497TIP3    H264983   0.049   5.857   4.982  0.7254 -1.9181 -0.9940
14498TIP3   OH264984   5.252   1.760  11.976  0.5008 -0.0538 -0.3391
14498TIP3    H164985   5.321   1.695  11.968 -0.0654 -0.6384 -0.5681
14498TIP3    H264986   5.203   1.734  12.054 -0.3841 -0.5422 -1.0533
14499TIP3   OH264987   5.997   4.927   1.859 -0.5249  0.4831 -0.0717
14499TIP3    H164988   5.916   4.977   1.854 -1.2741 -0.4726  1.6661
14499TIP3    H264989   5.994   4.869   1.783 -2.0229 -0.2994  0.5471
14500TIP3   OH264990   5.477   2.122   2.028  0.4760  0.1954 -0.2696
14500TIP3    H164991   5.566   2.124   1.992  0.4186  1.6763 -0.4165
14500TIP3    H264992   5.461   2.212   2.056 -0.4711 -0.3453  1.0446
14501TIP3   OH264993   1.769   6.859  15.145 -0.2019  0.4615  0.5060
14501TIP3    H164994   1.825   6.888  15.073  1.8770 -1.4420  1.2429
14501TIP3    H264995   1.769   6.932  15.207  0.9346  0.7672  0.1634
14502TIP3   OH264996   5.617   0.003   1.189  0.5169 -0.1160  0.2512
14502TIP3    H164997   5.564  -0.033   1.260  2.3672 -0.7628  1.3761
14502TIP3    H264998   5.625  -0.069   1.126  0.4046 -0.1504  0.2760
14503TIP3   OH264999   6.243   4.384   4.130  0.1354  0.2766 -0.4242
14503TIP3    H165000   6.212   4.447   4.065  1.8546  1.1799 -0.4051
14503TIP3    H265001   6.323   4.422   4.166 -0.2609 -0.6276  1.5866
14504TIP3   OH265002   0.706   4.773  11.822 -0.3879 -0.2156 -0.6320
14504TIP3    H165003   0.625   4.823  11.831  0.2472  0.5358  1.8709
14504TIP3    H265004   0.774   4.838  11.811 -0.0515 -0.8374 -2.5757
14505TIP3   OH265005   1.690   6.251  16.577 -0.0516 -0.4316 -0.1311
14505TIP3    H165006   1.704   6.281  16.488 -0.0383 -0.2025 -0.0515
14505TIP3    H265007   1.769   6.203  16.600  0.6649  0.9443  0.3610
14506TIP3   OH265008   2.957   3.992  13.592 -0.5880  0.0803 -0.4747
14506TIP3    H165009   2.911   3.907  13.588 -2.8395  1.2721 -2.2319
14506TIP3    H265010   2.901   4.047  13.647 -0.5071  1.1554 -1.4376
14507TIP3   OH265011   3.650   1.030   2.321 -0.4979  0.5855  0.1489
14507TIP3    H165012   3.689   0.998   2.402  2.1944 -0.1594 -1.3184
14507TIP3    H265013   3.645   1.125   2.331 -1.7986  0.3903  1.7750
14508TIP3   OH265014   3.802   0.186  13.038  0.0141 -0.3426 -0.0884
14508TIP3    H165015   3.709   0.169  13.045 -0.1478  0.2744 -0.6306
14508TIP3    H265016   3.843   0.100  13.036 -0.5346 -0.6097  0.2468
14509TIP3   OH265017   2.484   2.847   1.444 -0.4443 -0.6748 -0.4575
14509TIP3    H165018   2.496   2.940   1.427 -1.5055 -0.6982 -1.4229
14509TIP3    H265019   2.433   2.843   1.525  0.9801 -0.4771  0.4923
14510TIP3   OH265020   4.080   4.846  11.021 -0.7455  0.6623  0.2488
14510TIP3    H165021   4.108   4.857  10.930 -1.1900 -0.6725 -0.0817
14510TIP3    H265022   3.998   4.797  11.014  0.0337 -0.8905  1.3996
14511TIP3   OH265023   5.005   2.411   5.111  0.0085 -0.0480  0.5017
14511TIP3    H165024   4.983   2.367   5.193 -0.8046 -0.9240 -0.1557
14511TIP3    H265025   4.927   2.464   5.091  0.6654  1.0974  0.8774
14512TIP3   OH265026   2.616   3.034  16.519  0.3910 -0.5349 -0.3843
14512TIP3    H165027   2.642   3.120  16.553  0.3702 -0.6021 -0.1975
14512TIP3    H265028   2.588   2.985  16.597 -0.1232 -0.5259 -0.5572
14513TIP3   OH265029   1.614   2.520   3.713 -0.3747 -0.3096 -0.6464
14513TIP3    H165030   1.668   2.442   3.701 -0.3390 -0.1316 -1.7221
14513TIP3    H265031   1.526   2.492   3.686 -1.0354 -0.8074  1.7529
14514TIP3   OH265032   3.358   4.967   6.009  0.1788 -0.7592  0.0597
14514TIP3    H165033   3.361   4.874   5.984  0.7156 -0.6570 -0.2855
14514TIP3    H265034   3.420   4.973   6.082 -0.7463 -0.8915  0.8816
14515TIP3   OH265035   2.356   5.610  11.933  0.1968 -0.2101 -0.0245
14515TIP3    H165036   2.318   5.694  11.960  1.0065 -0.5564  2.4707
14515TIP3    H265037   2.448   5.616  11.959  0.3814 -1.6716 -0.2592
14516TIP3   OH265038   1.805   6.560   2.043  0.5174 -0.1650  0.2508
14516TIP3    H165039   1.848   6.608   2.114 -0.1104  0.4695  0.2105
14516TIP3    H265040   1.750   6.495   2.088  1.3056 -0.8071  0.3062
14517TIP3   OH265041   0.028   1.189  12.262 -0.6436 -0.2543 -0.5466
14517TIP3    H165042  -0.008   1.144  12.338  0.4665 -2.3513 -1.1991
14517TIP3    H265043  -0.015   1.148  12.187  1.0268 -0.9022 -1.1983
14518TIP3   OH265044   2.057   3.561   3.697 -0.0934 -0.0352  0.2125
14518TIP3    H165045   2.062   3.465   3.701  0.8022  0.0471  1.3468
14518TIP3    H265046   2.093   3.591   3.780 -0.6508  1.2940  0.0062
14519TIP3   OH265047   4.428   4.170  16.546  0.3534  0.1676 -0.2691
14519TIP3    H165048   4.356   4.111  16.524  1.0926 -0.5637 -0.8052
14519TIP3    H265049   4.387   4.256  16.558 -0.4992 -0.0872 -1.3045
14520TIP3   OH265050   3.620   3.190   2.799  0.7512  0.6893  0.4961
14520TIP3    H165051   3.548   3.246   2.829 -0.0919  0.3592 -0.8132
14520TIP3    H265052   3.614   3.111   2.853 -1.7978 -0.6303 -1.4861
14521TIP3   OH265053   2.912   1.075  14.807  0.7612  0.4000 -0.8252
14521TIP3    H165054   2.950   1.088  14.894 -1.0028 -0.4790  0.1188
14521TIP3    H265055   2.848   1.005  14.819 -2.8167  3.2051 -1.7910
14522TIP3   OH265056   3.967   2.394  15.779 -0.4342 -0.1739 -0.0434
14522TIP3    H165057   3.957   2.475  15.830 -1.3979  0.7789 -1.6581
14522TIP3    H265058   3.906   2.332  15.821 -0.7661  0.3915  0.3246
14523TIP3   OH265059   5.834   3.434   4.671  0.2470  0.0005  0.1083
14523TIP3    H165060   5.847   3.340   4.659  0.9643  0.2436 -1.2734
14523TIP3    H265061   5.912   3.464   4.717 -0.4273 -0.2168  1.4254
14524TIP3   OH265062   2.391   4.947  12.057  0.5615  0.2356  0.1088
14524TIP3    H165063   2.330   4.951  12.131  0.3821 -0.5250  0.0115
14524TIP3    H265064   2.344   4.898  11.990  0.7986  0.7537 -0.4473
14525TIP3   OH265065   2.106   5.364  16.399  0.1832 -0.2051 -0.0297
14525TIP3    H165066   2.199   5.347  16.417  0.2743  0.7800  0.5094
14525TIP3    H265067   2.060   5.316  16.468  0.3970  0.8335  0.8854
14526TIP3   OH265068   0.842   4.288   1.697 -0.7898 -0.2562  0.4539
14526TIP3    H165069   0.838   4.284   1.601 -0.8187 -0.5581  0.4659
14526TIP3    H265070   0.892   4.367   1.716 -2.0040  0.6125  0.2123
14527TIP3   OH265071   2.004   1.029   5.986 -0.0569  0.0366  0.2589
14527TIP3    H165072   2.013   1.042   5.892  1.0948  2.1950  0.6088
14527TIP3    H265073   2.072   0.965   6.008  0.3456  0.2858 -0.2369
14528TIP3   OH265074   6.012   3.843  11.823  0.3752 -0.4474  0.1284
14528TIP3    H165075   6.012   3.750  11.847  1.8301  0.0322  2.1821
14528TIP3    H265076   5.999   3.842  11.728 -0.5427 -2.6894  0.1919
14529TIP3   OH265077   2.880   6.152   2.645 -0.4402 -0.0175  0.5114
14529TIP3    H165078   2.949   6.212   2.616 -1.7692  2.3087  1.7942
14529TIP3    H265079   2.926   6.088   2.699  1.1491 -0.6808 -1.5221
14530TIP3   OH265080   0.242   0.426  12.800 -0.3689  0.0576 -0.4468
14530TIP3    H165081   0.334   0.453  12.792  0.0963 -1.1212  0.5106
14530TIP3    H265082   0.223   0.434  12.893 -0.6461 -1.4182 -0.3448
14531TIP3   OH265083   2.470   2.299  12.162 -0.1327  0.6672 -0.7859
14531TIP3    H165084   2.522   2.379  12.174 -1.7240  1.7563 -0.9458
14531TIP3    H265085   2.536   2.230  12.154  1.2932  1.9442 -0.6631
14532TIP3   OH265086   1.525   3.220  11.350 -0.5171 -0.2891  0.2986
14532TIP3    H165087   1.518   3.213  11.445 -1.1400  0.0687  0.2805
14532TIP3    H265088   1.611   3.182  11.329 -0.5081 -0.6421  0.9695
14533TIP3   OH265089   0.803   1.345  12.126 -0.0922  0.3074 -0.3043
14533TIP3    H165090   0.751   1.316  12.051 -0.1819 -1.9882  0.5540
14533TIP3    H265091   0.894   1.333  12.099 -0.0902  0.8135 -0.5255
14534TIP3   OH265092   4.596   1.875  14.046 -0.1810  0.0509  0.1849
14534TIP3    H165093   4.627   1.954  14.001 -1.2691  0.1513 -0.4063
14534TIP3    H265094   4.652   1.805  14.012  0.5950  0.5056  0.4903
14535TIP3   OH265095   0.525   2.037  14.310  0.2648 -0.6138 -0.5471
14535TIP3    H165096   0.554   2.000  14.393  2.0981 -0.4439 -1.0749
14535TIP3    H265097   0.589   2.006  14.246 -0.6531 -0.0833 -1.7659
14536TIP3   OH265098   1.956   0.287   4.293 -0.3793  0.1509  0.3340
14536TIP3    H165099   1.932   0.277   4.385 -1.0933  0.0309  0.1470
14536TIP3    H265100   2.028   0.350   4.293 -1.2220  1.1437  0.8816
14537TIP3   OH265101   2.780   3.860   5.697  0.6301 -0.1281 -0.0766
14537TIP3    H165102   2.830   3.790   5.740 -0.0074  0.1264  1.1219
14537TIP3    H265103   2.738   3.907   5.769  1.0053  1.4747 -0.8620
14538TIP3   OH265104   2.576   6.453   5.556  0.2367 -0.0186  0.5524
14538TIP3    H165105   2.632   6.507   5.611  1.3344  0.1803 -0.7016
14538TIP3    H265106   2.593   6.363   5.586  0.4868  0.1185  0.8265
14539TIP3   OH265107   4.024   2.794  13.485  0.3180 -0.4564  0.3175
14539TIP3    H165108   4.096   2.748  13.528  0.2974  0.8704  1.9196
14539TIP3    H265109   3.953   2.792  13.549 -0.6823 -0.7538 -0.7741
14540TIP3   OH265110   2.977   3.342  15.475 -0.4453  0.6696 -0.0493
14540TIP3    H165111   2.995   3.405  15.406 -1.6946  2.2133  0.9596
14540TIP3    H265112   2.935   3.268  15.431  0.1973  0.9219 -1.1180
14541TIP3   OH265113   1.207   1.612   0.038 -0.2142  0.3478 -0.1467
14541TIP3    H165114   1.235   1.586  -0.050 -1.9014 -0.6271 -0.4587
14541TIP3    H265115   1.188   1.529   0.082  1.0271  0.8038  1.3170
14542TIP3   OH265116   1.149   1.491   2.145 -0.1103 -0.5782 -0.4465
14542TIP3    H165117   1.144   1.582   2.174 -0.5570 -0.5869 -0.4967
14542TIP3    H265118   1.207   1.450   2.209  0.3191 -0.1993 -0.5847
14543TIP3   OH265119   1.884   3.149   0.155  0.6567  0.1920 -0.4526
14543TIP3    H165120   1.969   3.109   0.177  0.6851  0.3194 -0.3331
14543TIP3    H265121   1.832   3.076   0.120  0.7934  0.1000 -0.4651
14544TIP3   OH265122   1.067   2.922   5.720 -0.3783 -0.1281 -0.3551
14544TIP3    H165123   1.119   3.003   5.715 -0.9164  0.3262  0.9357
14544TIP3    H265124   1.125   2.860   5.765 -0.6048  0.0873  0.2370
14545TIP3   OH265125   2.194   2.314   3.195 -0.2344 -0.5051 -0.3996
14545TIP3    H165126   2.260   2.322   3.126  2.5773  0.1293  2.1286
14545TIP3    H265127   2.195   2.220   3.217  0.7527 -0.3332  0.3830
14546TIP3   OH265128   6.446   1.789   1.110 -0.6361  0.1291  0.3031
14546TIP3    H165129   6.426   1.788   1.204 -0.4648 -0.2058  0.3375
14546TIP3    H265130   6.496   1.869   1.097  0.7554 -0.6345  0.7989
14547TIP3   OH265131   6.661   5.198   0.452  0.4231  0.3313  0.0094
14547TIP3    H165132   6.756   5.191   0.446  0.5929  1.0029  1.5343
14547TIP3    H265133   6.645   5.240   0.537 -1.1687  1.6102 -0.8609
14548TIP3   OH265134   2.134   3.126   1.584 -0.0968  0.0260 -0.1544
14548TIP3    H165135   2.135   3.121   1.488  0.3446  1.5933 -0.2603
14548TIP3    H265136   2.186   3.052   1.613  0.6220  0.1157 -1.1751
14549TIP3   OH265137   4.740   2.940   5.043  0.3397 -0.2708  0.1569
14549TIP3    H165138   4.752   2.912   4.952  2.0147 -3.0269  1.1118
14549TIP3    H265139   4.815   2.997   5.060 -0.0935  0.4273 -0.2134
14550TIP3   OH265140   4.430   3.712   5.707  0.0980 -0.2637  0.4063
14550TIP3    H165141   4.339   3.739   5.715  0.4538  1.0941  0.1442
14550TIP3    H265142   4.464   3.763   5.633  1.4387  0.3530  1.4030
14551TIP3   OH265143   6.228   2.261  17.116  0.3952 -0.1644  0.1890
14551TIP3    H165144   6.231   2.174  17.076  0.3847 -0.9789  1.8569
14551TIP3    H265145   6.155   2.256  17.177  0.1939  1.1441  0.0664
14552TIP3   OH265146   4.209   1.983  16.442  0.8415  0.2155  0.4712
14552TIP3    H165147   4.297   1.988  16.480  1.2156  1.8231 -0.5156
14552TIP3    H265148   4.219   2.018  16.354 -0.4879 -1.1598 -0.2609
14553TIP3   OH265149   5.379   6.719  16.229  0.2156 -1.0734  0.7665
14553TIP3    H165150   5.301   6.733  16.283  0.0304  0.1466  0.2258
14553TIP3    H265151   5.433   6.658  16.279 -0.9631 -1.7400  1.2657
14554TIP3   OH265152   3.475   3.526  16.963  0.1622 -0.2712 -0.2412
14554TIP3    H165153   3.557   3.486  16.934  0.3656 -0.0266 -0.0020
14554TIP3    H265154   3.416   3.452  16.974  0.2020 -0.4110 -0.8759
14555TIP3   OH265155   3.967   1.774   1.721 -0.4868  0.0803 -0.2888
14555TIP3    H165156   4.045   1.766   1.666 -0.7416  0.2342 -0.6747
14555TIP3    H265157   3.948   1.868   1.722 -0.5603  0.0635 -0.0436
14556TIP3   OH265158   5.781   2.568   3.938  0.4550  0.2437  0.0137
14556TIP3    H165159   5.746   2.544   4.024  1.2761 -0.7785  0.0897
14556TIP3    H265160   5.772   2.663   3.934 -1.2581  0.1257  0.4761
14557TIP3   OH265161   6.582   0.011   3.788  0.2188  0.0904 -0.5076
14557TIP3    H165162   6.540   0.022   3.874  0.7249  2.8674 -0.5562
14557TIP3    H265163   6.520   0.049   3.726  1.1010  0.7235 -1.0225
14558TIP3   OH265164   5.791   2.840  12.226  0.0952  0.2786  0.6774
14558TIP3    H165165   5.780   2.759  12.275  1.1170  0.2790  0.9291
14558TIP3    H265166   5.874   2.829  12.180  0.4474  1.3420  1.0357
14559TIP3   OH265167   2.374   4.185   4.154 -0.3523  0.2804 -0.6972
14559TIP3    H165168   2.396   4.265   4.106  0.6207 -0.3197 -1.2844
14559TIP3    H265169   2.458   4.143   4.171 -0.7069  0.2913  1.2513
14560TIP3   OH265170   5.889   5.424  16.123  0.3239 -0.4173  0.0868
14560TIP3    H165171   5.911   5.340  16.163  0.2793 -0.6609 -0.3894
14560TIP3    H265172   5.882   5.485  16.196 -0.7707 -1.0770  0.5530
14561TIP3   OH265173   5.890   2.184   4.200 -0.7206 -0.1054 -0.0042
14561TIP3    H165174   5.867   2.091   4.206 -1.5519  0.1346  0.7413
14561TIP3    H265175   5.835   2.218   4.130 -1.4280  0.1020  0.6348
14562TIP3   OH265176   5.342   3.437   6.520  0.5702 -0.6549 -0.4986
14562TIP3    H165177   5.389   3.379   6.580 -0.5666 -1.7210 -0.6103
14562TIP3    H265178   5.266   3.387   6.492 -0.5491  0.9613 -0.4717
14563TIP3   OH265179   2.125   5.374   1.989 -0.1220  0.1849 -0.0876
14563TIP3    H165180   2.152   5.380   1.898  1.6140  1.1936  0.4319
14563TIP3    H265181   2.137   5.462   2.024  0.5598 -0.4647  1.4229
14564TIP3   OH265182   4.803   0.595   5.290  0.0150 -0.4127 -0.0887
14564TIP3    H165183   4.729   0.635   5.244 -0.5739  0.5374  1.5797
14564TIP3    H265184   4.766   0.518   5.332  0.1969 -0.4542 -0.0057
14565TIP3   OH265185   0.005   3.519  13.593 -0.4621 -0.8733 -0.0438
14565TIP3    H165186   0.046   3.450  13.541  0.8298  0.0616 -0.3432
14565TIP3    H265187  -0.079   3.535  13.550 -0.2309 -1.4207 -0.7159
14566TIP3   OH265188   5.929   5.830   1.296 -0.4099 -1.2882 -0.4856
14566TIP3    H165189   5.935   5.896   1.226  2.0936  0.2894  1.0763
14566TIP3    H265190   5.991   5.762   1.270 -0.0282 -1.0612 -0.1808
14567TIP3   OH265191   3.121   0.551  15.912  0.1023 -0.3624  0.3452
14567TIP3    H165192   3.206   0.514  15.889  0.2868  0.3219 -0.1012
14567TIP3    H265193   3.100   0.512  15.997  2.0654  1.3461  1.7333
14568TIP3   OH265194   5.651   0.281  11.571  0.4579  0.0651 -0.0243
14568TIP3    H165195   5.577   0.258  11.514  0.4657 -0.2597  0.0920
14568TIP3    H265196   5.690   0.196  11.594  0.9093  0.2385 -0.1452
14569TIP3   OH265197   3.199   1.512  15.350  0.1904  0.2349 -0.1752
14569TIP3    H165198   3.284   1.469  15.340 -0.4742 -1.3414  0.6034
14569TIP3    H265199   3.184   1.513  15.445 -1.3168 -0.8994 -0.3724
14570TIP3   OH265200   0.982   3.389   3.010  0.0878 -0.0825 -0.1063
14570TIP3    H165201   0.899   3.359   2.972  0.0535 -2.5420  1.6366
14570TIP3    H265202   0.967   3.481   3.031 -2.1296 -0.3730 -0.0995
14571TIP3   OH265203   6.152   2.968  13.252  0.1524  0.2525  0.8557
14571TIP3    H165204   6.199   2.894  13.214  0.3080  0.2014  1.1503
14571TIP3    H265205   6.140   3.029  13.179 -2.5567 -1.3014 -0.1597
14572TIP3   OH265206   4.010   4.760   6.749  0.4182  0.3608  0.3040
14572TIP3    H165207   3.939   4.815   6.717  1.1629  1.2701  0.1616
14572TIP3    H265208   3.970   4.674   6.765 -0.0562 -0.1231 -2.8824
14573TIP3   OH265209   1.489   5.904  10.699  0.6977  0.3452 -0.2127
14573TIP3    H165210   1.491   5.910  10.604 -1.7840 -2.0799 -0.5507
14573TIP3    H265211   1.470   5.993  10.728  0.2556  0.8957 -2.0681
14574TIP3   OH265212   4.874   1.634  11.404 -0.0451  0.0310 -0.5692
14574TIP3    H165213   4.949   1.575  11.411 -0.5411 -0.7717 -1.6690
14574TIP3    H265214   4.810   1.598  11.466  0.7371  1.1617  0.9288
14575TIP3   OH265215   2.689   5.321   2.478 -0.5259 -0.0551 -0.6553
14575TIP3    H165216   2.598   5.351   2.468 -1.4163 -1.7552  1.4298
14575TIP3    H265217   2.712   5.347   2.568  0.8544 -0.1913 -0.9578
14576TIP3   OH265218   5.956   1.855   3.049 -0.1681 -0.3333 -0.0486
14576TIP3    H165219   6.011   1.931   3.028 -0.0383 -0.3106  0.3796
14576TIP3    H265220   5.910   1.837   2.967  0.9928 -0.7794 -0.6218
14577TIP3   OH265221   0.999   4.413   2.981 -0.1181 -0.1837  0.0673
14577TIP3    H165222   1.070   4.355   3.009 -1.0930 -1.6474 -0.3831
14577TIP3    H265223   1.001   4.486   3.043  1.4953 -0.4097  0.3049
14578TIP3   OH265224   6.387   5.995   3.449  0.3397 -0.2434  0.2916
14578TIP3    H165225   6.356   6.080   3.416  1.8268  0.9036  1.6408
14578TIP3    H265226   6.315   5.935   3.431 -1.0833  1.4566 -0.0821
14579TIP3   OH265227   3.889   0.718  12.578  0.0920  0.7106 -0.0023
14579TIP3    H165228   3.861   0.689  12.665  1.0634 -1.2571 -0.2903
14579TIP3    H265229   3.973   0.761  12.593  0.5664 -0.1964 -0.0353
14580TIP3   OH265230   6.533   4.544  12.481  0.0177 -0.2862 -0.1442
14580TIP3    H165231   6.482   4.578  12.554  1.3671 -0.7031  1.0427
14580TIP3    H265232   6.491   4.579  12.403  0.2481  2.6077  0.9333
14581TIP3   OH265233   1.005   0.655  12.458 -0.3418 -0.1494  0.0761
14581TIP3    H165234   1.088   0.641  12.414 -0.7533 -0.5829 -0.5690
14581TIP3    H265235   0.943   0.677  12.388 -0.5483  1.1995  0.6563
14582TIP3   OH265236   6.016   4.720  11.140  0.6669  0.0197 -0.1185
14582TIP3    H165237   5.966   4.673  11.073  1.8531 -1.7854  0.1850
14582TIP3    H265238   6.105   4.685  11.132  1.2769  1.2194  1.0932
14583TIP3   OH265239   3.352   0.361   1.335  0.0687 -0.2738  0.0388
14583TIP3    H165240   3.321   0.379   1.247  0.5119 -0.1349 -0.0951
14583TIP3    H265241   3.275   0.334   1.383 -0.0424 -1.1345 -0.6046
14584TIP3   OH265242   1.207   0.109  11.258  0.2829  0.2296 -0.2275
14584TIP3    H165243   1.115   0.129  11.238 -0.6129 -0.8247  2.3651
14584TIP3    H265244   1.222   0.023  11.218  0.1817  0.4160 -0.6811
14585TIP3   OH265245   1.702   0.559  16.735  0.0223 -0.7020  0.1763
14585TIP3    H165246   1.796   0.576  16.732 -0.1202  0.0565 -0.2445
14585TIP3    H265247   1.684   0.537  16.826  0.6090 -0.8800  0.2508
14586TIP3   OH265248   3.055   0.334  16.092  0.2145 -0.6206  0.7532
14586TIP3    H165249   3.124   0.307  16.031  0.5293  1.3157  0.1779
14586TIP3    H265250   2.977   0.289  16.060  0.2798  0.6443 -1.3918
14587TIP3   OH265251   0.987   1.946   6.270  0.0798  0.0998  0.0562
14587TIP3    H165252   1.082   1.948   6.284  0.0945  0.7644 -0.1236
14587TIP3    H265253   0.974   1.989   6.186 -0.4015  0.2287  0.1965
14588TIP3   OH265254   0.297   5.251  11.937  0.0994  0.2433  0.7342
14588TIP3    H165255   0.309   5.219  11.848  0.7789 -0.8711  1.2023
14588TIP3    H265256   0.355   5.327  11.944  0.8798 -0.3279  0.5561
14589TIP3   OH265257   6.472   2.082   5.616 -0.0413  0.5086  0.0794
14589TIP3    H165258   6.503   1.993   5.600 -0.6472  0.0184  1.4677
14589TIP3    H265259   6.383   2.083   5.583 -0.4490  0.2241  1.1363
14590TIP3   OH265260   5.527   4.343  13.839 -0.1663  0.3449 -0.6675
14590TIP3    H165261   5.542   4.438  13.840 -0.8427  0.4589 -0.2930
14590TIP3    H265262   5.432   4.334  13.851 -0.1991 -0.3658 -1.4069
14591TIP3   OH265263   3.328   3.940  13.485  0.3611 -0.2588  0.0145
14591TIP3    H165264   3.420   3.955  13.505 -0.4651  2.4446  2.5192
14591TIP3    H265265   3.286   3.931  13.571 -1.9305  0.3581 -0.9506
14592TIP3   OH265266   5.479   6.475   4.910  0.0895 -0.5305 -0.1027
14592TIP3    H165267   5.400   6.431   4.879 -0.3823 -0.5311  1.0545
14592TIP3    H265268   5.548   6.411   4.898 -0.1771 -0.7347 -0.6000
14593TIP3   OH265269   4.673   6.783   1.426  0.4069  0.1464  0.1096
14593TIP3    H165270   4.769   6.776   1.425  0.4096  0.2343 -0.4829
14593TIP3    H265271   4.644   6.698   1.460  0.5803 -1.5787 -3.5586
14594TIP3   OH265272   3.738   3.233   2.520  0.3380 -0.3733  0.3416
14594TIP3    H165273   3.725   3.242   2.615 -0.1883  1.6430  0.1318
14594TIP3    H265274   3.831   3.250   2.507  0.3267 -0.2165  0.4601
14595TIP3   OH265275   5.022   5.608  12.745 -0.4222  0.3502 -0.5974
14595TIP3    H165276   4.932   5.585  12.722 -0.3523 -1.1550  0.4908
14595TIP3    H265277   5.059   5.643  12.664 -2.1245  1.5663 -0.9275
14596TIP3   OH265278   5.067   2.727  17.070 -0.2872  0.2538  0.0748
14596TIP3    H165279   5.001   2.662  17.048  0.1391  0.3010 -1.4673
14596TIP3    H265280   5.079   2.777  16.990  0.8710  0.9061  0.6294
14597TIP3   OH265281   6.504   1.659  17.073 -0.1549  0.2222  0.3150
14597TIP3    H165282   6.592   1.697  17.067  0.7714 -1.8325  0.1954
14597TIP3    H265283   6.479   1.643  16.982 -0.0536 -0.4805  0.4059
14598TIP3   OH265284   1.786   1.624   2.434  0.3089 -0.0795 -0.2313
14598TIP3    H165285   1.724   1.576   2.380  0.1085  0.3952 -0.4287
14598TIP3    H265286   1.825   1.558   2.490 -0.1745 -0.4300 -0.2992
14599TIP3   OH265287   2.399   6.779  13.273  0.4768 -0.3892 -0.4944
14599TIP3    H165288   2.345   6.701  13.288 -0.2108 -0.3435 -2.4091
14599TIP3    H265289   2.455   6.756  13.199  1.4851  0.3700  0.0102
14600TIP3   OH265290   2.441   6.807   4.928 -0.2098  0.1792 -0.0305
14600TIP3    H165291   2.371   6.742   4.939 -0.0310  0.2420  1.6493
14600TIP3    H265292   2.399   6.891   4.946  0.1361  0.2942  0.2435
14601TIP3   OH265293   2.281   1.530  13.514 -0.4823  0.4360  0.4374
14601TIP3    H165294   2.218   1.587  13.471 -0.8972  0.6497  1.3156
14601TIP3    H265295   2.362   1.581  13.515  0.0393 -0.2388 -1.6368
14602TIP3   OH265296   3.937   3.427  15.008 -0.7277  0.6096 -0.1813
14602TIP3    H165297   3.853   3.432  14.961 -0.5998 -0.4698 -0.5670
14602TIP3    H265298   3.965   3.336  14.995 -0.8677  0.1361  2.2987
14603TIP3   OH265299   4.911   0.596  16.932  0.0160 -0.0636  0.5061
14603TIP3    H165300   4.867   0.512  16.918 -2.3997  0.9686  1.3343
14603TIP3    H265301   4.846   0.650  16.977  1.4092  2.3423 -0.1928
14604TIP3   OH265302   6.720   5.076  14.575  0.1575 -0.2118 -0.9149
14604TIP3    H165303   6.693   5.018  14.646  0.0833  0.4399 -0.4088
14604TIP3    H265304   6.684   5.035  14.496 -1.0157 -0.1657 -0.4259
14605TIP3   OH265305   4.792   1.505   4.707  0.6911  0.1740 -0.0277
14605TIP3    H165306   4.852   1.577   4.723 -1.2649  1.7940  0.2896
14605TIP3    H265307   4.841   1.446   4.650  2.3641  1.7136 -0.2666
14606TIP3   OH265308   4.771   5.390   1.190 -0.3318 -0.0181 -0.0681
14606TIP3    H165309   4.730   5.459   1.139  1.9557  1.6183  0.1463
14606TIP3    H265310   4.768   5.313   1.134 -0.7008  0.9122 -1.3683
14607TIP3   OH265311   1.876   0.841  12.614  0.5649 -0.4638  0.1002
14607TIP3    H165312   1.807   0.790  12.570 -1.5173  2.0447  0.2379
14607TIP3    H265313   1.856   0.832  12.708  0.9694 -0.4535  0.1874
14608TIP3   OH265314   4.295   1.364  14.410 -0.1208 -0.5018  0.4677
14608TIP3    H165315   4.369   1.407  14.368 -0.8554 -0.2164 -0.5719
14608TIP3    H265316   4.328   1.339  14.497  0.6289  1.2763  0.7416
14609TIP3   OH265317   1.695   4.159   3.754  0.7213 -0.7797  0.4663
14609TIP3    H165318   1.738   4.096   3.695  0.3130 -0.4819 -0.1594
14609TIP3    H265319   1.620   4.191   3.704  0.4855 -0.3658  1.0783
14610TIP3   OH265320   5.778   0.289   6.506  0.2280 -0.3064  0.3938
14610TIP3    H165321   5.816   0.250   6.427  1.1074 -1.6720  1.4373
14610TIP3    H265322   5.841   0.268   6.576 -0.6473  0.6291  1.5154
14611TIP3   OH265323   4.043   4.521   5.701  0.3557 -0.0739 -0.1614
14611TIP3    H165324   3.961   4.496   5.659 -0.2736  1.5244  0.0705
14611TIP3    H265325   4.054   4.458   5.773 -0.7391 -0.2122 -0.1064
14612TIP3   OH265326   5.671   3.049  14.496  0.3990 -0.1411 -0.7184
14612TIP3    H165327   5.581   3.036  14.525  0.4429 -1.4880 -1.0684
14612TIP3    H265328   5.670   3.018  14.405  1.5247 -1.6709 -0.2520
14613TIP3   OH265329   0.577   5.873   4.253  0.2704  0.2640  0.0915
14613TIP3    H165330   0.554   5.890   4.344  0.5893  0.3123  0.1642
14613TIP3    H265331   0.500   5.899   4.203 -0.2016 -0.4863  0.4106
14614TIP3   OH265332   4.061   0.697   3.995  0.1488  0.1998 -0.1035
14614TIP3    H165333   4.074   0.784   3.958 -1.3183  0.3248 -0.3833
14614TIP3    H265334   4.015   0.712   4.078 -3.3483 -0.3576 -1.7273
14615TIP3   OH265335   6.487   5.304   4.192  0.4219  0.4163 -0.1479
14615TIP3    H165336   6.571   5.339   4.221  1.5375 -1.7946 -0.4999
14615TIP3    H265337   6.432   5.381   4.181  2.0231  1.8486  1.2289
14616TIP3   OH265338   2.836   0.117  16.694 -0.0153  0.9339 -0.1167
14616TIP3    H165339   2.932   0.114  16.689  0.3471  2.6734  3.0206
14616TIP3    H265340   2.818   0.154  16.780 -3.5688  0.1730 -0.3762
14617TIP3   OH265341   2.720   3.558   4.149  0.5970 -0.3851  0.0882
14617TIP3    H165342   2.687   3.647   4.157  0.8182 -0.1570 -1.3167
14617TIP3    H265343   2.707   3.535   4.057 -0.3067 -2.1558  0.6070
14618TIP3   OH265344   3.236   6.021   0.723 -0.7618 -0.2602 -0.1371
14618TIP3    H165345   3.184   6.099   0.738 -0.3935 -0.0316 -0.0449
14618TIP3    H265346   3.265   6.028   0.632  2.1109  1.4527  0.7850
14619TIP3   OH265347   6.414   2.607  15.112 -0.0622  0.1030 -0.3808
14619TIP3    H165348   6.408   2.515  15.137 -0.1838  0.6957  1.9744
14619TIP3    H265349   6.504   2.632  15.132 -0.9857  1.3990  2.7305
14620TIP3   OH265350   1.095   1.020   1.151 -0.1691  0.1432 -0.0544
14620TIP3    H165351   1.152   1.004   1.076  0.2485 -0.2038  0.3308
14620TIP3    H265352   1.146   0.990   1.227 -0.2949  1.1550  0.4448
14621TIP3   OH265353   5.662   1.498   4.452 -0.1386 -0.0620  0.2943
14621TIP3    H165354   5.660   1.533   4.541 -0.4716  1.7846 -0.3991
14621TIP3    H265355   5.713   1.417   4.459 -1.1867 -0.5982  2.3564
14622TIP3   OH265356   3.642   1.825  15.753  0.3786  0.4525 -0.2503
14622TIP3    H165357   3.600   1.864  15.829 -0.7942 -0.2564 -0.5141
14622TIP3    H265358   3.637   1.731  15.767 -0.7352  0.2704 -1.6266
14623TIP3   OH265359   3.049   5.016  12.374 -0.4349 -0.1753  0.4460
14623TIP3    H165360   2.990   4.941  12.371  0.3898 -0.8167 -0.8482
14623TIP3    H265361   3.125   4.989  12.322  0.3073  1.2071  0.7488
14624TIP3   OH265362   5.736   5.419  16.680  0.7187 -0.0393 -0.0253
14624TIP3    H165363   5.737   5.413  16.584  0.2262  0.5387 -0.0690
14624TIP3    H265364   5.643   5.423  16.702  0.8327 -0.1803  0.4835
14625TIP3   OH265365   1.678   0.475  16.969  0.0172 -0.2171 -0.4362
14625TIP3    H165366   1.641   0.462  17.056 -0.3646  0.7006 -0.4520
14625TIP3    H265367   1.746   0.408  16.962 -0.4699 -0.8021  0.2639
14626TIP3   OH265368   3.560   4.805  15.401  0.4409  0.3000 -0.2251
14626TIP3    H165369   3.549   4.742  15.472  0.4514  2.0402  1.3660
14626TIP3    H265370   3.522   4.886  15.434 -2.2183  0.5116 -3.2739
14627TIP3   OH265371   5.898   2.160   6.549 -0.4167 -0.1074 -0.3418
14627TIP3    H165372   5.843   2.211   6.490 -0.4294 -1.2059 -1.3070
14627TIP3    H265373   5.956   2.225   6.589 -0.6006  0.7008 -1.3438
14628TIP3   OH265374   6.479   2.726  13.776 -0.1155  0.2764 -0.5121
14628TIP3    H165375   6.532   2.693  13.848 -0.0741 -1.0281 -1.0934
14628TIP3    H265376   6.535   2.717  13.699 -0.9058 -0.4959 -1.0309
14629TIP3   OH265377   1.229   4.726   4.430  0.3416 -0.3548 -0.0297
14629TIP3    H165378   1.221   4.795   4.364 -0.9916 -1.1445 -0.7377
14629TIP3    H265379   1.177   4.757   4.504 -1.3142 -1.1015 -0.8267
14630TIP3   OH265380   1.621   3.140   5.146  0.5620  0.8026  0.1860
14630TIP3    H165381   1.713   3.160   5.165  1.2421 -0.0654 -1.9495
14630TIP3    H265382   1.578   3.148   5.231  2.6385  1.0344  1.3008
14631TIP3   OH265383   5.922   0.548   0.919  0.3837 -0.1546  0.4563
14631TIP3    H165384   5.836   0.537   0.959  0.0571  0.5048 -0.0493
14631TIP3    H265385   5.922   0.637   0.886  1.8886  0.4395  1.9046
14632TIP3   OH265386   4.930   1.405   4.504  0.1747  0.2368 -0.4021
14632TIP3    H165387   4.889   1.349   4.437  0.9627  1.5997 -2.0890
14632TIP3    H265388   4.985   1.466   4.455 -1.0757  2.9143  1.2718
14633TIP3   OH265389   0.253   2.001   6.625 -0.0287 -0.5825 -0.3824
14633TIP3    H165390   0.171   2.023   6.582 -0.9904 -0.6920  1.2791
14633TIP3    H265391   0.299   2.084   6.633 -0.0501 -0.4936 -1.1926
14634TIP3   OH265392   3.157   5.506   0.577  0.1139  0.3679 -0.1854
14634TIP3    H165393   3.067   5.481   0.556  0.1390 -0.1579  0.3202
14634TIP3    H265394   3.158   5.601   0.568 -0.6457  0.4352  0.3579
14635TIP3   OH265395   6.227   0.450   1.073  0.3924 -0.3371  0.2343
14635TIP3    H165396   6.208   0.530   1.024  0.7553 -1.1685 -1.2955
14635TIP3    H265397   6.259   0.482   1.158  1.3717  1.1635 -0.6504
14636TIP3   OH265398   1.795   6.775  11.542  0.3479  0.1102  0.1159
14636TIP3    H165399   1.808   6.852  11.487  0.1543 -0.7540 -1.1787
14636TIP3    H265400   1.882   6.738  11.552  0.1938 -0.5519 -0.8674
14637TIP3   OH265401   1.200   6.228   1.173 -0.4743  0.5509  0.2429
14637TIP3    H165402   1.158   6.301   1.217 -0.4982  0.1127  0.9633
14637TIP3    H265403   1.131   6.163   1.162 -0.9033  1.2944 -1.9965
14638TIP3   OH265404   1.696   5.711   6.384 -0.1015  0.7615  0.6873
14638TIP3    H165405   1.660   5.630   6.420 -1.0298  1.2134  0.8020
14638TIP3    H265406   1.786   5.714   6.416  0.5561 -1.1054 -0.7496
14639TIP3   OH265407   5.379   0.375  14.178 -0.3203 -0.1254  0.1860
14639TIP3    H165408   5.309   0.380  14.242 -0.7275 -1.6146 -0.1100
14639TIP3    H265409   5.349   0.430  14.105 -0.2839  0.7961  0.8543
14640TIP3   OH265410   4.533   0.461  11.505 -0.2464 -0.1467 -0.1007
14640TIP3    H165411   4.550   0.493  11.594  1.9947  2.7638 -1.3957
14640TIP3    H265412   4.591   0.386  11.494  0.5395  0.3704  0.4610
14641TIP3   OH265413   5.472   0.390   3.039 -0.3623  0.1840  0.6115
14641TIP3    H165414   5.471   0.426   2.950 -0.6411 -0.2045  0.4561
14641TIP3    H265415   5.505   0.462   3.093  1.2989 -0.0616 -0.0048
14642TIP3   OH265416   3.161   0.454  11.371 -0.5411 -0.1202  0.0275
14642TIP3    H165417   3.173   0.511  11.447  0.5163 -1.0480  0.5909
14642TIP3    H265418   3.228   0.483  11.309 -0.1074 -0.6268  0.2499
14643TIP3   OH265419   4.288   2.945   3.615 -0.6120 -0.7128 -0.2150
14643TIP3    H165420   4.368   2.907   3.578  1.3521  1.7575  1.1265
14643TIP3    H265421   4.254   3.002   3.546 -0.3439 -0.6433 -0.2903
14644TIP3   OH265422   6.447   5.233  14.454  0.0330  0.2625  0.3880
14644TIP3    H165423   6.447   5.147  14.496  0.9004  0.2717  0.4337
14644TIP3    H265424   6.386   5.285  14.506 -1.5743 -0.6894 -0.4548
14645TIP3   OH265425   2.887   1.560   4.901 -0.1551 -0.0415 -0.0814
14645TIP3    H165426   2.822   1.552   4.832  0.6693  0.9662 -1.0053
14645TIP3    H265427   2.876   1.649   4.934  0.1088 -0.1929  0.4255
14646TIP3   OH265428   3.203   3.185   5.790  0.0345 -0.2125 -0.3315
14646TIP3    H165429   3.254   3.133   5.853  0.9767 -0.3784 -1.2101
14646TIP3    H265430   3.178   3.122   5.723 -1.5106 -0.1669  0.1759
14647TIP3   OH265431   1.181   3.367   3.719 -0.2868 -0.0055  0.3051
14647TIP3    H165432   1.152   3.360   3.628 -2.0443 -0.4798  0.8521
14647TIP3    H265433   1.117   3.424   3.761 -0.8000 -1.5057  1.7008
14648TIP3   OH265434   4.998   0.533   0.170 -0.1361 -0.7842 -0.0573
14648TIP3    H165435   5.028   0.499   0.255 -0.2079 -1.4282 -0.2841
14648TIP3    H265436   5.077   0.566   0.128  0.1118 -1.6160 -0.2599
14649TIP3   OH265437   1.019   2.893  14.252  0.3014  0.2721  0.0974
14649TIP3    H165438   1.088   2.858  14.195 -0.1813 -0.5985  0.0378
14649TIP3    H265439   1.001   2.823  14.315 -1.4403 -0.0563 -0.6916
14650TIP3   OH265440   1.468   0.753   0.741 -0.4215  0.2355  0.1265
14650TIP3    H165441   1.469   0.845   0.712 -0.6386  0.6437  1.3787
14650TIP3    H265442   1.501   0.704   0.665  0.7761  1.4549 -0.1697
14651TIP3   OH265443   2.459   0.732  10.610  0.0892 -0.7805  0.2930
14651TIP3    H165444   2.372   0.768  10.596  0.1128  0.1055  2.0906
14651TIP3    H265445   2.444   0.647  10.651  0.0692 -1.0430 -0.2535
14652TIP3   OH265446   2.774   3.611  10.936  0.8147 -0.3544 -0.0335
14652TIP3    H165447   2.770   3.703  10.965 -0.9103 -0.3628 -0.1033
14652TIP3    H265448   2.797   3.617  10.843  0.4499  0.0360 -0.1052
14653TIP3   OH265449   1.656   5.537   3.155 -0.2512  0.1200 -0.3860
14653TIP3    H165450   1.570   5.517   3.192 -0.0889  0.5375  0.2332
14653TIP3    H265451   1.713   5.468   3.189  0.0043  0.7835  0.5795
14654TIP3   OH265452   2.796   0.765   2.325  0.0546  0.2263 -0.4648
14654TIP3    H165453   2.775   0.828   2.395  0.5085 -1.3308  1.1285
14654TIP3    H265454   2.730   0.696   2.334  0.1635 -0.0397 -1.5637
14655TIP3   OH265455   3.077   1.639   1.978 -0.2917  0.1613  0.5729
14655TIP3    H165456   3.111   1.728   1.980 -0.3358  0.2535 -1.4343
14655TIP3    H265457   3.103   1.602   2.063 -0.0236  1.9663  1.3174
14656TIP3   OH265458   4.041   2.066  15.173  0.4235  0.0421  0.3756
14656TIP3    H165459   4.093   2.087  15.096 -0.8197  2.2713  0.0438
14656TIP3    H265460   3.957   2.036  15.138  0.0258  0.5777  0.8435
14657TIP3   OH265461   3.710   0.492   2.145  0.3093 -0.1104 -0.3989
14657TIP3    H165462   3.701   0.438   2.066 -0.7817 -0.8374  0.1829
14657TIP3    H265463   3.744   0.575   2.113 -1.5792  0.1749 -1.8834
14658TIP3   OH265464   5.561   5.075   3.386  0.2136 -0.5192  0.3702
14658TIP3    H165465   5.564   4.982   3.364  1.2988 -0.4828  0.3099
14658TIP3    H265466   5.477   5.086   3.430 -1.0977 -1.0000 -1.8614
14659TIP3   OH265467   5.399   0.309  14.939 -0.2908 -0.2996  0.0283
14659TIP3    H165468   5.481   0.353  14.961  0.2534 -1.7268  0.9672
14659TIP3    H265469   5.333   0.378  14.945  0.8440  0.9381 -1.0178
14660TIP3   OH265470   2.884   4.378  15.742  0.1327  0.0070  0.2449
14660TIP3    H165471   2.836   4.424  15.811 -0.3123 -0.4875  0.2729
14660TIP3    H265472   2.844   4.291  15.739  1.6021 -0.7302  0.8768
14661TIP3   OH265473   6.407   1.426   2.555 -0.3051 -0.0615 -0.0604
14661TIP3    H165474   6.478   1.409   2.492 -0.6840 -0.0008 -0.5118
14661TIP3    H265475   6.374   1.513   2.530 -0.5325 -0.0858  0.1530
14662TIP3   OH265476   1.038   5.790   2.331  1.0430 -0.0395  0.3786
14662TIP3    H165477   1.069   5.700   2.344  0.6484 -0.1208  0.7811
14662TIP3    H265478   0.987   5.809   2.409  0.1870  0.1365 -0.2034
14663TIP3   OH265479   0.976   2.964   1.499  0.0322  0.4858 -0.1650
14663TIP3    H165480   0.931   3.003   1.574  0.1420 -1.3371  0.9196
14663TIP3    H265481   1.069   2.962   1.525  0.0810 -0.0800 -0.3601
14664TIP3   OH265482   2.227   2.354   4.083  0.2897 -0.9698 -0.3797
14664TIP3    H165483   2.155   2.408   4.052 -0.6617 -1.1095  1.4597
14664TIP3    H265484   2.221   2.274   4.030 -0.6646 -0.8219 -0.5114
14665TIP3   OH265485   0.304   3.706  13.813  0.3269 -0.1588 -0.0673
14665TIP3    H165486   0.256   3.625  13.832 -0.9584  0.1431 -1.8013
14665TIP3    H265487   0.282   3.726  13.722  1.2568  1.7287  0.0841
14666TIP3   OH265488   4.053   0.583  16.338  0.3419 -0.0995  0.6718
14666TIP3    H165489   3.986   0.581  16.269 -1.3939  1.1723  2.2023
14666TIP3    H265490   4.101   0.664  16.321  0.1063  0.0626  0.7625
14667TIP3   OH265491   6.293   3.871   3.981 -0.1907  0.0503  0.0429
14667TIP3    H165492   6.237   3.864   4.058  0.2613  1.4650  0.5553
14667TIP3    H265493   6.382   3.867   4.017  0.0512 -1.2179 -0.6473
14668TIP3   OH265494   0.039   1.441  12.348 -0.2409 -0.2579  0.2951
14668TIP3    H165495  -0.028   1.463  12.412  2.1474  0.9380  2.5927
14668TIP3    H265496   0.040   1.345  12.346 -1.7797 -0.2912  0.4155
14669TIP3   OH265497   2.523   4.638  11.686  0.0925  0.4909  0.5501
14669TIP3    H165498   2.488   4.651  11.598 -0.0171  0.5254  0.5984
14669TIP3    H265499   2.545   4.545  11.689 -0.1802  0.4257  0.5841
14670TIP3   OH265500   3.547   6.827  12.721 -0.1364 -0.2197 -0.1986
14670TIP3    H165501   3.575   6.836  12.812  2.8692  0.2053 -1.0591
14670TIP3    H265502   3.462   6.785  12.727  0.6948 -1.8214  2.7454
14671TIP3   OH265503   2.663   3.087  12.123 -0.1058 -0.1687 -0.5095
14671TIP3    H165504   2.615   3.151  12.072  0.8445  0.2534 -0.9061
14671TIP3    H265505   2.673   3.127  12.209 -0.7899 -0.4304 -0.2990
14672TIP3   OH265506   0.339   6.472  15.802  0.1912  0.2933  0.0077
14672TIP3    H165507   0.307   6.466  15.712  0.7150  0.7463 -0.2160
14672TIP3    H265508   0.275   6.528  15.846 -0.2127 -0.1479 -0.0093
14673TIP3   OH265509   4.618   4.339  15.356 -0.0841  0.3106 -0.3228
14673TIP3    H165510   4.594   4.302  15.270 -0.0307  0.2341 -0.3046
14673TIP3    H265511   4.685   4.279  15.390 -1.9009 -1.1739  0.9107
14674TIP3   OH265512   5.551   4.070  12.121  0.2227  0.8788  0.0582
14674TIP3    H165513   5.508   4.084  12.037 -1.0226  1.8882  0.8176
14674TIP3    H265514   5.503   4.127  12.182  0.5675 -0.4061  1.6034
14675TIP3   OH265515   4.439   4.665   1.757 -0.0046  0.1723 -0.4385
14675TIP3    H165516   4.345   4.679   1.744 -0.0443  1.7265  1.1148
14675TIP3    H265517   4.451   4.673   1.851  1.7894  0.5983 -0.6740
14676TIP3   OH265518   6.279   0.373   5.832 -0.2916  0.4084  0.6157
14676TIP3    H165519   6.249   0.462   5.846 -2.4651 -0.1723  0.0755
14676TIP3    H265520   6.300   0.369   5.739 -1.5545  0.0368  0.3207
14677TIP3   OH265521   2.545   6.265  16.434  0.3347 -0.1697  0.1574
14677TIP3    H165522   2.525   6.190  16.378  0.2297  0.5753 -0.8357
14677TIP3    H265523   2.461   6.308  16.449  0.2445 -0.8053  1.5683
14678TIP3   OH265524   0.079   3.202  11.240 -0.5988 -0.0645 -0.7060
14678TIP3    H165525  -0.015   3.213  11.250 -0.5935  3.6808 -2.8278
14678TIP3    H265526   0.092   3.108  11.232 -4.4729 -0.6117 -2.6358
14679TIP3   OH265527   0.333   4.637  11.862 -0.0189  0.0114  0.6281
14679TIP3    H165528   0.400   4.661  11.926  0.7089  2.8683 -1.0826
14679TIP3    H265529   0.255   4.684  11.890  0.4692  1.7761 -0.8468
14680TIP3   OH265530   3.649   6.198  12.842 -0.5776  0.1301 -0.0685
14680TIP3    H165531   3.654   6.117  12.895 -0.3272  0.6726  0.7574
14680TIP3    H265532   3.574   6.183  12.784 -1.6544 -0.0041  1.2969
14681TIP3   OH265533   3.616   4.897  13.216  0.1670 -0.4763 -0.4011
14681TIP3    H165534   3.564   4.976  13.204 -1.5942 -1.1281  2.0150
14681TIP3    H265535   3.647   4.902  13.306  0.4330 -2.2797 -0.3446
14682TIP3   OH265536   0.378   4.354  11.854 -0.1057 -0.6201 -0.1753
14682TIP3    H165537   0.360   4.448  11.854 -0.2878 -0.6547 -0.4233
14682TIP3    H265538   0.473   4.348  11.865  0.2706 -0.3267 -2.6800
14683TIP3   OH265539   5.898   5.924  13.787 -0.5126 -0.0732  0.5373
14683TIP3    H165540   5.951   5.844  13.786 -1.1967 -0.5314  0.3512
14683TIP3    H265541   5.869   5.935  13.696 -1.6301 -0.4350  0.8397
14684TIP3   OH265542   6.842   4.421  16.954 -0.2747  0.2582  0.6327
14684TIP3    H165543   6.887   4.341  16.927 -0.8763 -0.3668  1.4305
14684TIP3    H265544   6.872   4.436  17.043 -1.2691  0.0975  1.0045
14685TIP3   OH265545   6.263   1.230  12.011  0.0557  0.0031  0.8500
14685TIP3    H165546   6.182   1.186  12.037 -1.5110  2.3143  0.1282
14685TIP3    H265547   6.308   1.249  12.094 -0.1119 -1.2583  1.2563
14686TIP3   OH265548   4.351   6.714   5.741  0.0082  0.3687 -0.2831
14686TIP3    H165549   4.308   6.692   5.824  2.1147 -0.6391  0.6145
14686TIP3    H265550   4.327   6.643   5.682  0.3366 -0.1369  0.1803
14687TIP3   OH265551   6.655   6.198  12.489  0.2428 -1.0106  0.2510
14687TIP3    H165552   6.651   6.102  12.486  0.1321 -1.0006  0.0087
14687TIP3    H265553   6.749   6.218  12.487  0.2890 -1.1315  1.1149
14688TIP3   OH265554   5.256   4.414   1.424 -0.4374 -0.3291  0.3954
14688TIP3    H165555   5.165   4.423   1.454  0.0351 -1.8176  2.4326
14688TIP3    H265556   5.307   4.407   1.504  1.2834 -1.4423 -0.7428
14689TIP3   OH265557   3.065   5.885  13.767  0.5170  0.0364 -0.4458
14689TIP3    H165558   3.041   5.954  13.706  1.7564 -0.9719 -2.1660
14689TIP3    H265559   3.071   5.806  13.713  3.8883 -0.4924  0.4647
14690TIP3   OH265560   0.098   6.246  11.048 -0.5849 -0.6083  0.2560
14690TIP3    H165561   0.016   6.291  11.068 -1.0713 -1.7032  0.7873
14690TIP3    H265562   0.084   6.208  10.962 -0.7171 -0.9608  0.4307
14691TIP3   OH265563   5.858   0.270  12.925  0.6035 -0.2634  0.1550
14691TIP3    H165564   5.813   0.200  12.973 -0.6819 -0.1154 -0.7904
14691TIP3    H265565   5.834   0.255  12.834  0.8184  1.0480 -0.1261
14692TIP3   OH265566   6.187   1.824   1.026  0.0813 -0.3873 -0.1690
14692TIP3    H165567   6.171   1.917   1.036  1.2884 -0.2771  1.1009
14692TIP3    H265568   6.276   1.811   1.061 -0.6345 -2.2278  1.1311
14693TIP3   OH265569   0.379   2.068  16.016 -0.0481  0.0188  0.2738
14693TIP3    H165570   0.350   1.989  15.970  2.0908 -1.1343  0.8053
14693TIP3    H265571   0.316   2.079  16.087  0.9185 -2.7012  1.7124
14694TIP3   OH265572   5.314   3.748   5.377 -0.0275 -0.1144 -0.0521
14694TIP3    H165573   5.352   3.818   5.324  0.7432 -0.0534  0.5611
14694TIP3    H265574   5.259   3.792   5.441  0.3163 -0.0696  0.2189
14695TIP3   OH265575   2.767   4.711   5.071  0.2264  0.3995  0.7961
14695TIP3    H165576   2.852   4.666   5.078 -0.3452 -0.8322  0.2249
14695TIP3    H265577   2.755   4.753   5.156  2.9552  3.5660 -0.1629
14696TIP3   OH265578   6.686   5.271   0.733 -0.1556  0.1265 -0.1797
14696TIP3    H165579   6.615   5.242   0.791 -0.3943 -0.7122 -0.8690
14696TIP3    H265580   6.761   5.217   0.757  0.5945  1.7035  1.2461
14697TIP3   OH265581   4.838   6.512  12.696 -0.5182 -0.2592  0.2959
14697TIP3    H165582   4.853   6.596  12.651 -0.1082 -0.7086 -0.4256
14697TIP3    H265583   4.865   6.528  12.786 -0.5611  0.4261  0.1952
14698TIP3   OH265584   5.171   6.489  11.558 -0.3251 -0.3556  0.3499
14698TIP3    H165585   5.154   6.541  11.480  0.1452 -0.8490 -0.0923
14698TIP3    H265586   5.266   6.491  11.568 -0.4667  1.0524  1.8643
14699TIP3   OH265587   1.849   4.225   0.308  0.3401 -0.3941  0.0792
14699TIP3    H165588   1.756   4.227   0.285  0.4135  5.4464 -1.1127
14699TIP3    H265589   1.851   4.252   0.400  0.8513  0.9797 -0.3241
14700TIP3   OH265590   2.269   6.218   5.573  0.0708  0.4161 -0.7130
14700TIP3    H165591   2.329   6.145   5.558  2.2131  1.9038  0.0514
14700TIP3    H265592   2.281   6.239   5.666 -2.8493 -0.1793 -0.1223
14701TIP3   OH265593   5.679   0.040  12.188  0.1774 -0.1262 -1.0994
14701TIP3    H165594   5.588   0.042  12.156  0.2810  0.5306 -1.3629
14701TIP3    H265595   5.687   0.118  12.242  0.0190 -1.1949  0.5380
14702TIP3   OH265596   2.839   5.571  15.820 -0.3352  0.6224  0.6186
14702TIP3    H165597   2.760   5.546  15.867 -1.3577  1.7826 -0.4200
14702TIP3    H265598   2.813   5.571  15.728  1.1061  0.2130  0.1845
14703TIP3   OH265599   0.448   6.862  11.750 -0.1392  0.2467  0.5534
14703TIP3    H165600   0.408   6.784  11.710  0.6945  0.1122 -0.0343
14703TIP3    H265601   0.403   6.936  11.709  1.2684  0.1328 -1.2899
14704TIP3   OH265602   4.462   4.318   2.213  0.0029 -0.4360  0.2172
14704TIP3    H165603   4.447   4.230   2.247  2.0212 -1.1747 -0.6118
14704TIP3    H265604   4.552   4.315   2.179  0.5523  2.2738  1.1788
14705TIP3   OH265605   1.018   4.168   2.476  0.3194 -0.5555 -0.0967
14705TIP3    H165606   0.983   4.226   2.409 -0.7807 -2.6805 -1.4504
14705TIP3    H265607   0.982   4.082   2.455  2.7998 -2.0001  1.1152
14706TIP3   OH265608   2.771   1.690   2.826  0.2312  0.3223 -0.0321
14706TIP3    H165609   2.722   1.741   2.891 -0.8340 -0.0533 -0.5201
14706TIP3    H265610   2.812   1.756   2.769  2.0745  0.6981  1.5992
14707TIP3   OH265611   3.130   2.563   3.043  0.1083 -0.1086 -0.2594
14707TIP3    H165612   3.037   2.585   3.055  0.5011  0.7576  1.5235
14707TIP3    H265613   3.165   2.635   2.991 -0.1088 -0.1618 -0.4819
14708TIP3   OH265614   3.174   3.092   1.215  0.1083  0.1042 -0.1149
14708TIP3    H165615   3.255   3.077   1.263  1.0958 -0.4509 -1.8741
14708TIP3    H265616   3.202   3.126   1.130 -1.6148  1.8973 -0.0444
14709TIP3   OH265617   3.272   6.073   4.077 -0.1330  0.3477 -0.3577
14709TIP3    H165618   3.246   5.990   4.117 -1.9990  0.9975 -0.1262
14709TIP3    H265619   3.242   6.066   3.986 -0.3624  0.8085 -0.3166
14710TIP3   OH265620   6.753   4.530   3.516 -0.6897 -0.4022  0.0268
14710TIP3    H165621   6.779   4.620   3.539 -0.9751  0.0280 -1.2407
14710TIP3    H265622   6.796   4.475   3.581 -0.4210  0.6499  0.7628
14711TIP3   OH265623   4.130   1.344  13.632  0.2101 -0.2014  0.0111
14711TIP3    H165624   4.221   1.331  13.659  0.8068  0.5062 -1.5750
14711TIP3    H265625   4.134   1.417  13.571 -1.3763 -0.4782 -0.4472
14712TIP3   OH265626   2.792   6.214  12.018  0.0107  0.2907 -0.3609
14712TIP3    H165627   2.710   6.248  11.983 -0.3230 -0.4553 -0.3173
14712TIP3    H265628   2.767   6.141  12.075  0.7460 -0.4645 -0.9745
14713TIP3   OH265629   0.933   4.082   5.255  0.4025  0.0122 -0.5426
14713TIP3    H165630   0.987   4.123   5.323  1.1483 -0.9225 -0.5529
14713TIP3    H265631   0.843   4.095   5.285  0.6736  0.6759  0.0109
14714TIP3   OH265632   5.983   5.573  15.273  0.4942  0.0557 -0.2896
14714TIP3    H165633   6.003   5.569  15.366  0.4158  2.3845 -0.0931
14714TIP3    H265634   5.914   5.640  15.267 -0.1054 -0.6624 -1.9372
14715TIP3   OH265635   6.743   1.029   0.137  0.4650  0.4795 -0.0012
14715TIP3    H165636   6.720   0.966   0.205 -0.3892  0.3329 -0.4174
14715TIP3    H265637   6.780   0.975   0.067  0.3442  0.5112 -0.0892
14716TIP3   OH265638   2.956   5.626   6.109 -0.0856  0.4481 -0.2142
14716TIP3    H165639   2.906   5.701   6.142 -1.9269 -0.4073 -0.9289
14716TIP3    H265640   2.908   5.550   6.140  1.3930 -0.4540 -0.0477
14717TIP3   OH265641   3.654   3.311   4.482  0.9425  0.5097 -0.0851
14717TIP3    H165642   3.708   3.233   4.496  0.2613  0.0907  0.2775
14717TIP3    H265643   3.711   3.372   4.435  1.3692 -0.3484 -0.7068
14718TIP3   OH265644   2.689   1.047   3.371  0.2368  0.2179 -0.2073
14718TIP3    H165645   2.680   0.956   3.345 -1.4031  0.4015 -0.4137
14718TIP3    H265646   2.721   1.044   3.462 -0.7421 -0.5892  0.1204
14719TIP3   OH265647   6.139   1.647  14.665 -0.1125 -0.2271  0.0889
14719TIP3    H165648   6.097   1.637  14.751  0.4513 -1.6559  0.2187
14719TIP3    H265649   6.137   1.560  14.626  1.8042 -0.1402 -0.3113
14720TIP3   OH265650   5.581   0.710  12.395  0.2145 -0.0914  0.5289
14720TIP3    H165651   5.543   0.687  12.480 -0.2728 -0.7951  0.1297
14720TIP3    H265652   5.583   0.628  12.346  1.0335  0.1947  0.0624
14721TIP3   OH265653   3.753   1.689  11.943  0.2211 -0.1944  0.1650
14721TIP3    H165654   3.802   1.608  11.946 -0.7058 -0.7462  1.5245
14721TIP3    H265655   3.722   1.702  12.033  0.3143  1.6478 -0.0220
14722TIP3   OH265656   5.263   5.242   2.160  0.2173  0.2540 -0.1157
14722TIP3    H165657   5.341   5.262   2.212 -1.0735  2.3475  1.1508
14722TIP3    H265658   5.252   5.317   2.102 -2.0587  1.1572  1.3303
14723TIP3   OH265659   4.899   4.449   4.667 -0.4992 -0.3869  0.2654
14723TIP3    H165660   4.993   4.460   4.653 -0.6425  0.3297 -0.1878
14723TIP3    H265661   4.871   4.386   4.600 -0.4639 -0.0572 -0.0626
14724TIP3   OH265662   4.919   0.629   4.525  0.0522 -0.0199  0.1238
14724TIP3    H165663   4.849   0.611   4.462 -1.4973  0.4093  1.6364
14724TIP3    H265664   4.933   0.545   4.569 -0.5830  0.2064  0.8000
14725TIP3   OH265665   0.507   0.287   3.112  0.0643 -0.4184 -0.2335
14725TIP3    H165666   0.484   0.277   3.020 -0.2547 -0.3643 -0.1630
14725TIP3    H265667   0.449   0.226   3.158 -0.4614  0.2539  0.0137
14726TIP3   OH265668   2.068   4.547  10.635 -0.3725 -0.0875  0.2205
14726TIP3    H165669   2.123   4.531  10.558 -2.1153 -0.8129 -0.9187
14726TIP3    H265670   2.116   4.614  10.685  2.7062 -2.3016  0.5263
14727TIP3   OH265671   5.584   3.169  12.044 -0.3874  0.0562  0.1919
14727TIP3    H165672   5.576   3.079  12.013 -0.6577  0.9509 -2.6136
14727TIP3    H265673   5.538   3.222  11.978  1.4593  2.4183  0.6214
14728TIP3   OH265674   5.484   6.573  16.968 -0.0312 -0.6109  0.4004
14728TIP3    H165675   5.420   6.594  17.036  1.0135  1.5822  0.8075
14728TIP3    H265676   5.437   6.583  16.886 -0.0581  1.9802  0.6527
14729TIP3   OH265677   4.440   4.906  12.299  0.3739 -0.2963  0.3903
14729TIP3    H165678   4.510   4.864  12.251  1.0807  1.4086 -0.1630
14729TIP3    H265679   4.406   4.973  12.238  0.6167  1.2310  1.8533
14730TIP3   OH265680   1.578   3.375   0.174 -0.4049 -0.0677  0.1541
14730TIP3    H165681   1.657   3.424   0.150 -0.3995 -0.8866 -1.6530
14730TIP3    H265682   1.607   3.285   0.183 -0.8839 -0.1505  0.9788
14731TIP3   OH265683   4.315   4.967  16.796 -0.5902 -0.0539 -0.3502
14731TIP3    H165684   4.363   4.929  16.722 -1.2295 -0.0585 -0.7628
14731TIP3    H265685   4.380   4.969  16.867 -0.3019 -1.1416 -0.5592
14732TIP3   OH265686   3.108   0.096  12.523 -0.3408  0.3045 -0.0651
14732TIP3    H165687   3.059   0.178  12.519 -1.5240 -0.4165 -0.7408
14732TIP3    H265688   3.107   0.071  12.615  1.6488  1.9717  0.4794
14733TIP3   OH265689   0.770   0.927  12.220  0.5025  0.1315 -0.3250
14733TIP3    H165690   0.834   0.987  12.180  2.6445 -1.0912  1.0275
14733TIP3    H265691   0.721   0.982  12.281  1.2660  0.8397 -0.3259
14734TIP3   OH265692   0.664   3.559   3.239 -0.5513 -0.0166  0.1341
14734TIP3    H165693   0.720   3.482   3.232 -1.0493 -0.2899 -1.2513
14734TIP3    H265694   0.604   3.539   3.310  1.3064  0.4495  1.9406
14735TIP3   OH265695   4.771   4.800   2.574 -0.5579  0.2529  0.9676
14735TIP3    H165696   4.828   4.875   2.590 -1.1769  0.9137  0.1297
14735TIP3    H265697   4.723   4.788   2.656 -0.7692  1.0492  0.9648
14736TIP3   OH265698   4.115   6.418  14.094 -0.1935 -0.2931  0.2623
14736TIP3    H165699   4.208   6.394  14.085 -0.0020  0.2735  0.6458
14736TIP3    H265700   4.117   6.510  14.120 -0.8626 -0.3212  0.4300
14737TIP3   OH265701   5.926   4.896  13.626 -0.1996 -0.3244 -0.8874
14737TIP3    H165702   5.832   4.895  13.607 -0.2213  0.5215 -0.9003
14737TIP3    H265703   5.952   4.804  13.630 -1.3078 -0.5965  0.5397
14738TIP3   OH265704   4.564   5.238   0.850 -0.0463  0.2951  0.2170
14738TIP3    H165705   4.610   5.317   0.822  0.9597  0.1790  1.4566
14738TIP3    H265706   4.504   5.268   0.918  0.0280  0.0444  0.3920
14739TIP3   OH265707   6.238   1.940  15.385 -0.1653 -0.0039  0.5077
14739TIP3    H165708   6.251   1.895  15.468  0.7747  1.5784  1.2739
14739TIP3    H265709   6.249   2.033  15.406 -1.0787  0.5360 -1.1664
14740TIP3   OH265710   0.285   5.007   3.761  0.4202 -0.1720  0.2067
14740TIP3    H165711   0.274   4.984   3.854  0.1153  0.0932  0.2405
14740TIP3    H265712   0.240   5.091   3.752 -0.4165 -0.6728 -0.3973
14741TIP3   OH265713   3.620   2.030   1.290  0.2857 -0.2762  0.0708
14741TIP3    H165714   3.527   2.054   1.287  0.3538 -0.0481 -1.4488
14741TIP3    H265715   3.634   1.982   1.208  1.2370 -1.3871  0.8542
14742TIP3   OH265716   4.918   3.103  16.606  0.5657 -0.3506 -0.6160
14742TIP3    H165717   4.888   3.065  16.523 -0.2352 -0.3129 -0.3510
14742TIP3    H265718   5.010   3.075  16.613  0.4488 -0.9171 -1.1883
14743TIP3   OH265719   1.146   4.989   5.438 -0.4706  0.2665 -0.2206
14743TIP3    H165720   1.156   5.073   5.484  0.0239  0.3375 -0.4603
14743TIP3    H265721   1.229   4.944   5.451 -0.9877 -0.5018  0.5231
14744TIP3   OH265722   3.924   1.475  10.829  0.7615  0.3163  0.2720
14744TIP3    H165723   3.967   1.528  10.762  1.0466  0.0497  0.2412
14744TIP3    H265724   3.984   1.402  10.843  0.7690  0.4388  0.9131
14745TIP3   OH265725   2.814   4.580   2.490 -0.4749  0.0156 -0.3617
14745TIP3    H165726   2.772   4.652   2.538 -0.6488 -0.4993  0.2781
14745TIP3    H265727   2.899   4.615   2.464 -0.6243  0.5097 -0.2024
14746TIP3   OH265728   6.493   1.013  13.110 -0.2694 -0.5706 -0.0603
14746TIP3    H165729   6.542   0.959  13.047  0.1926 -1.5261  1.0727
14746TIP3    H265730   6.425   0.954  13.143  0.2705 -0.4892  1.2407
14747TIP3   OH265731   6.734   2.334  14.417  0.5860 -0.1285  0.4746
14747TIP3    H165732   6.787   2.395  14.365  1.3963 -0.9138  0.3512
14747TIP3    H265733   6.655   2.384  14.438  0.9653  0.7656 -0.1132
14748TIP3   OH265734   0.665   0.513  12.036 -0.4346 -0.4258 -0.2971
14748TIP3    H165735   0.632   0.535  12.124 -1.7030 -2.1431 -0.2833
14748TIP3    H265736   0.665   0.417  12.034  0.5365 -0.4179 -1.8398
14749TIP3   OH265737   1.296   0.299   3.109 -0.7006  0.5911 -0.1217
14749TIP3    H165738   1.316   0.274   3.019  1.5914  0.0661  0.4509
14749TIP3    H265739   1.229   0.367   3.102  0.9636  2.1376 -2.3700
14750TIP3   OH265740   0.988   3.211   5.094 -0.0978  0.3300  0.0774
14750TIP3    H165741   0.949   3.233   5.179  0.4779 -0.5018  0.5694
14750TIP3    H265742   1.056   3.277   5.080  1.1026 -0.6194  1.1804
14751TIP3   OH265743   2.793   5.420   1.952  0.1683 -0.0887  0.0861
14751TIP3    H165744   2.820   5.505   1.919  2.2961  0.0007  1.8003
14751TIP3    H265745   2.835   5.414   2.038 -0.3466 -2.6552  0.2310
14752TIP3   OH265746   3.515   6.138   5.254  0.2761  0.2264  0.1467
14752TIP3    H165747   3.542   6.214   5.306  0.1996  0.6504 -0.4230
14752TIP3    H265748   3.581   6.071   5.273  0.4168  0.4771  0.5548
14753TIP3   OH265749   0.742   5.391   5.755  0.1094  0.6361  0.4727
14753TIP3    H165750   0.813   5.385   5.819 -0.5508 -1.5594  1.0758
14753TIP3    H265751   0.714   5.300   5.741 -3.0521  1.4197  0.8129
14754TIP3   OH265752   1.525   1.020   5.630 -0.2193 -0.5972  0.1251
14754TIP3    H165753   1.610   0.977   5.617  0.5030  0.5399  0.8828
14754TIP3    H265754   1.527   1.050   5.721 -1.5382 -0.7521  0.2161
14755TIP3   OH265755   0.336   2.402   2.287 -0.5878  0.0331  0.4005
14755TIP3    H165756   0.306   2.449   2.364  1.4859 -0.0903  1.3380
14755TIP3    H265757   0.395   2.462   2.243 -0.2458 -0.6055 -0.0273
14756TIP3   OH265758   3.242   0.323  16.644  0.0143  0.2019  0.2308
14756TIP3    H165759   3.189   0.339  16.567  0.4706  2.5799  0.3342
14756TIP3    H265760   3.295   0.246  16.622 -1.1552 -0.2546 -1.0800
14757TIP3   OH265761   1.023   1.720   0.836 -0.0473  0.1991 -0.2296
14757TIP3    H165762   0.949   1.663   0.855  1.0947 -1.8023 -1.3956
14757TIP3    H265763   1.029   1.779   0.912 -0.7284 -1.8677  1.5260
14758TIP3   OH265764   6.541   3.818  11.200  0.6356 -0.4396  0.4351
14758TIP3    H165765   6.482   3.873  11.149  2.0495  0.7257 -0.0253
14758TIP3    H265766   6.531   3.730  11.163  0.6775  0.1326 -0.9898
14759TIP3   OH265767   6.565   5.176   6.248 -0.4024  0.1121 -0.2380
14759TIP3    H165768   6.590   5.236   6.177  0.0630 -0.7019 -0.7755
14759TIP3    H265769   6.539   5.234   6.320  0.8389  0.9687 -0.4490
14760TIP3   OH265770   3.363   2.121   0.714  0.3514 -0.5647 -0.0925
14760TIP3    H165771   3.385   2.176   0.639  1.1509  0.1076  0.6347
14760TIP3    H265772   3.399   2.035   0.692  1.5005 -0.1063 -0.0277
14761TIP3   OH265773   1.292   6.511   4.403 -0.0994  0.4196  0.0331
14761TIP3    H165774   1.308   6.491   4.495  1.2810 -0.1411 -0.3079
14761TIP3    H265775   1.222   6.451   4.377 -0.2093  0.2989  0.5970
14762TIP3   OH265776   5.617   0.732   4.648  0.6784 -0.0477  0.2623
14762TIP3    H165777   5.612   0.637   4.637  0.1884  0.1077 -1.0901
14762TIP3    H265778   5.541   0.753   4.703  0.7161 -0.4191  0.4630
14763TIP3   OH265779   5.098   4.585  11.868 -0.6218  0.2052 -0.2806
14763TIP3    H165780   5.147   4.661  11.837  0.4573 -0.0743  0.6554
14763TIP3    H265781   5.152   4.510  11.845 -0.1413 -0.0585  1.4988
14764TIP3   OH265782   2.385   4.088  12.190  0.2406  0.0247  0.4809
14764TIP3    H165783   2.381   4.169  12.241  0.9376  1.3448 -1.4480
14764TIP3    H265784   2.295   4.056  12.189 -0.6287  2.2553 -0.9210
14765TIP3   OH265785   6.287   5.905  11.703  0.4771  0.8031 -0.5798
14765TIP3    H165786   6.208   5.879  11.750  1.7332  0.3484  1.3822
14765TIP3    H265787   6.300   5.997  11.727  1.5980  0.3323  0.7568
14766TIP3   OH265788   1.878   1.863   2.539 -0.5400  0.4848  0.0573
14766TIP3    H165789   1.846   1.777   2.511  0.2152  0.1500  0.1931
14766TIP3    H265790   1.800   1.910   2.567 -0.7464 -0.9335  2.0918
14767TIP3   OH265791   5.001   1.235  11.476 -0.0193 -0.1253  0.1483
14767TIP3    H165792   5.068   1.267  11.416 -0.8789  3.6293  0.9164
14767TIP3    H265793   4.933   1.198  11.420  0.4178  0.7673 -0.9872
14768TIP3   OH265794   3.241   1.923   0.919  0.0106  0.0727 -0.3603
14768TIP3    H165795   3.217   2.003   0.871 -0.8221 -0.5388 -0.9910
14768TIP3    H265796   3.229   1.853   0.855  3.5192 -0.3346 -0.7460
14769TIP3   OH265797   4.746   3.879  11.077  0.1750 -0.4682  0.1322
14769TIP3    H165798   4.715   3.816  11.012 -1.2640  0.7062 -0.3673
14769TIP3    H265799   4.676   3.882  11.143 -0.3700  1.4595 -0.4687
14770TIP3   OH265800   6.067   4.352  12.627 -0.3510 -0.1974 -0.4243
14770TIP3    H165801   6.102   4.286  12.687 -0.5387 -1.8341 -2.0282
14770TIP3    H265802   6.138   4.415  12.617  0.5780 -1.1921 -0.3228
14771TIP3   OH265803   0.381   3.987  13.685  0.4159  0.1948  0.2083
14771TIP3    H165804   0.293   4.002  13.651  0.8721  1.4530 -0.5136
14771TIP3    H265805   0.405   3.900  13.654  0.0486  0.5119 -1.0379
14772TIP3   OH265806   2.658   0.136  11.937 -0.4876 -0.2896  0.4311
14772TIP3    H165807   2.661   0.175  11.850 -1.0709  1.3747  1.1229
14772TIP3    H265808   2.748   0.139  11.968 -0.4247 -0.0739  0.2307
14773TIP3   OH265809   1.222   2.737  16.892 -0.2494  0.3322  0.1239
14773TIP3    H165810   1.276   2.730  16.970 -0.0924  0.3232  0.0156
14773TIP3    H265811   1.201   2.646  16.870 -1.1958  0.3840  0.7806
14774TIP3   OH265812   5.730   5.842   0.981  0.0173 -0.4616 -0.9840
14774TIP3    H165813   5.814   5.801   0.961  0.1443  0.4921 -2.6049
14774TIP3    H265814   5.720   5.910   0.914 -1.1231  0.7718  0.3684
14775TIP3   OH265815   6.326   2.806  10.981 -0.3535 -0.5131 -0.0688
14775TIP3    H165816   6.382   2.795  10.904  0.3725  0.5688  0.2752
14775TIP3    H265817   6.239   2.825  10.946  0.2293  1.2189 -0.6622
14776TIP3   OH265818   2.911   4.783  12.607 -0.1938 -0.2078  0.8303
14776TIP3    H165819   2.920   4.729  12.529  0.8505  0.0300  0.7669
14776TIP3    H265820   2.875   4.724  12.673 -0.0447 -0.7027  0.4746
14777TIP3   OH265821   1.450   4.582  13.112 -0.8881  0.7517  0.3936
14777TIP3    H165822   1.520   4.545  13.166  0.0200  2.7339  0.6717
14777TIP3    H265823   1.475   4.561  13.022  1.2348  3.0929  0.3165
14778TIP3   OH265824   6.320   0.047   3.654  0.2014 -0.4041  0.5710
14778TIP3    H165825   6.357   0.124   3.611  0.0021 -2.0683 -2.9935
14778TIP3    H265826   6.243   0.080   3.701  1.3322  1.8236  0.9477
14779TIP3   OH265827   5.101   0.987  14.914 -0.4151 -0.1225  0.1076
14779TIP3    H165828   5.185   0.954  14.945 -0.5133 -1.9190 -1.3166
14779TIP3    H265829   5.082   1.062  14.970  1.5208 -0.4349  1.2824
14780TIP3   OH265830   1.271   1.936  11.052 -0.2917 -0.1332  0.1589
14780TIP3    H165831   1.357   1.895  11.056  0.1598  0.7526 -0.1162
14780TIP3    H265832   1.209   1.864  11.060  0.4609 -0.9185 -0.8930
14781TIP3   OH265833   2.040   0.963  16.871 -0.0762 -0.2445  0.3635
14781TIP3    H165834   2.133   0.955  16.894 -0.1616  0.8903  1.2040
14781TIP3    H265835   2.039   1.031  16.802 -0.2813 -0.2481  0.3637
14782TIP3   OH265836   0.810   5.424   3.120 -0.1763  0.4257  0.0720
14782TIP3    H165837   0.768   5.501   3.160 -0.7271 -0.6159  1.5982
14782TIP3    H265838   0.779   5.425   3.029 -1.5094  1.0937  0.5030
14783TIP3   OH265839   1.380   6.446   2.666 -0.1094  0.1576  0.3673
14783TIP3    H165840   1.384   6.524   2.721 -0.3177  0.7630 -0.4448
14783TIP3    H265841   1.462   6.400   2.682 -0.7280 -0.3808  2.1656
14784TIP3   OH265842   2.003   4.721  11.497 -0.6336  0.6621  0.0501
14784TIP3    H165843   1.916   4.756  11.518 -0.9205  0.7936 -1.2958
14784TIP3    H265844   2.045   4.790  11.446 -0.2415  0.0772 -0.4320
14785TIP3   OH265845   0.592   3.436  11.209 -0.4841  0.1864 -0.0719
14785TIP3    H165846   0.637   3.353  11.191 -3.5938 -1.6059 -0.3678
14785TIP3    H265847   0.543   3.454  11.129  0.4572  2.6534 -0.1711
14786TIP3   OH265848   5.158   2.198  15.069  0.0437  0.1599 -0.3052
14786TIP3    H165849   5.107   2.190  15.150  1.7446  0.7909  0.8965
14786TIP3    H265850   5.093   2.197  14.999 -1.3909 -1.9294  0.9458
14787TIP3   OH265851   1.624   3.616  16.469 -0.2404 -0.2277 -0.0449
14787TIP3    H165852   1.718   3.631  16.460 -0.2850 -0.7298 -1.8771
14787TIP3    H265853   1.588   3.703  16.486  0.6415 -0.2178  2.0316
14788TIP3   OH265854   5.066   5.997  12.296 -0.0283  0.3587  0.0092
14788TIP3    H165855   4.996   5.992  12.362 -0.1613 -1.0626 -0.1890
14788TIP3    H265856   5.129   5.930  12.324  0.2382  0.2016 -0.9336
14789TIP3   OH265857   3.805   0.394   0.120 -0.5093 -0.1940  0.1228
14789TIP3    H165858   3.893   0.392   0.157  0.3642 -0.2847 -1.8523
14789TIP3    H265859   3.816   0.366   0.029 -2.3740  1.1130 -0.5726
14790TIP3   OH265860   0.487   5.698   5.120  0.1294  0.9908  0.0650
14790TIP3    H165861   0.472   5.709   5.214 -0.8095 -0.0198  0.0547
14790TIP3    H265862   0.579   5.671   5.114 -0.5247 -1.7947  1.0005
14791TIP3   OH265863   1.753   1.712   0.231 -0.2045 -0.2713  0.2505
14791TIP3    H165864   1.780   1.758   0.311 -0.8433  2.2663 -0.8972
14791TIP3    H265865   1.795   1.762   0.160 -0.5598 -1.7869 -1.0743
14792TIP3   OH265866   1.192   2.353   2.659  0.1103  0.4048  0.5508
14792TIP3    H165867   1.209   2.337   2.566  0.3771 -0.4088  0.7328
14792TIP3    H265868   1.099   2.374   2.663  0.1732  0.8087  0.0609
14793TIP3   OH265869   0.299   5.659   2.463  0.2938 -0.1652  0.4788
14793TIP3    H165870   0.272   5.715   2.536  1.0470  0.6549  0.1463
14793TIP3    H265871   0.353   5.716   2.408  1.9449 -1.4914  0.6536
14794TIP3   OH265872   0.930   0.291  13.116 -0.3632  0.1087 -0.0164
14794TIP3    H165873   0.945   0.217  13.174  4.0581  0.0506 -0.8545
14794TIP3    H265874   0.899   0.252  13.034  0.2605 -0.6876  0.1099
14795TIP3   OH265875   0.495   5.904   2.495 -0.2498 -0.1712 -0.0310
14795TIP3    H165876   0.590   5.918   2.504 -0.0604 -1.0136 -0.5898
14795TIP3    H265877   0.487   5.846   2.419 -1.3780  1.8425 -1.5449
14796TIP3   OH265878   3.398   1.889  15.470  0.4403  0.0825 -0.1035
14796TIP3    H165879   3.427   1.975  15.440  2.1471 -0.3056  0.3004
14796TIP3    H265880   3.479   1.840  15.484 -0.4973 -1.6628 -0.5056
14797TIP3   OH265881   1.698   1.862  15.120  0.4093 -0.3031  0.5271
14797TIP3    H165882   1.759   1.875  15.048  0.5786  0.5339  0.8138
14797TIP3    H265883   1.658   1.948  15.134  1.6856  0.0299  2.6097
14798TIP3   OH265884   5.788   5.365   1.463 -0.3901 -0.2637  0.4775
14798TIP3    H165885   5.756   5.423   1.532 -0.4066 -0.4085  0.5913
14798TIP3    H265886   5.785   5.419   1.384 -0.2269 -0.0498  0.6157
14799TIP3   OH265887   6.234   4.796  11.434 -0.0870  0.0999  0.0435
14799TIP3    H165888   6.249   4.702  11.448 -1.0205 -0.1822 -0.7900
14799TIP3    H265889   6.288   4.839  11.501 -0.2677 -1.0503  0.9568
14800TIP3   OH265890   1.401   0.199   2.333 -0.0065 -0.4163  0.3975
14800TIP3    H165891   1.483   0.175   2.375  0.8871  0.5146 -0.7635
14800TIP3    H265892   1.371   0.118   2.290  0.7739 -0.5297  0.0581
14801TIP3   OH265893   5.651   6.499  12.016 -0.1812 -0.2264  0.3620
14801TIP3    H165894   5.599   6.578  12.004  0.4784 -0.0322 -1.5170
14801TIP3    H265895   5.597   6.443  12.072 -2.1372  0.2285 -0.9617
14802TIP3   OH265896   2.371   0.859  16.219 -0.3140 -0.1047  0.0671
14802TIP3    H165897   2.397   0.858  16.127 -0.4885 -5.1510 -0.2075
14802TIP3    H265898   2.454   0.864  16.267  0.2121 -1.8498 -0.5626
14803TIP3   OH265899   1.605   4.366  10.092 -0.1951 -0.3239  0.4746
14803TIP3    H165900   1.695   4.391  10.111 -0.9145  0.9856  2.6000
14803TIP3    H265901   1.569   4.439  10.042 -0.5234 -0.0221  1.1306
14804TIP3   OH265902   3.783   6.250  11.404 -0.1554 -0.4314 -0.0181
14804TIP3    H165903   3.710   6.242  11.465 -0.0641 -2.4430 -0.0915
14804TIP3    H265904   3.827   6.165  11.408  2.1629  0.6972 -0.0358
14805TIP3   OH265905   0.809   0.158  12.891  1.1610  0.3634  0.1569
14805TIP3    H165906   0.812   0.142  12.796  0.8367  1.8141 -0.1197
14805TIP3    H265907   0.868   0.092  12.928  0.5177 -0.8845 -0.9415
14806TIP3   OH265908   4.091   0.344   1.203  0.0975  0.3209 -0.4920
14806TIP3    H165909   4.075   0.310   1.291 -0.0345  0.5823 -0.4143
14806TIP3    H265910   4.007   0.335   1.158 -0.5497  2.5281  0.1935
14807TIP3   OH265911   3.355   5.405   1.075  0.6670 -0.9429  0.0274
14807TIP3    H165912   3.342   5.391   0.981 -0.3187  0.6879 -0.1219
14807TIP3    H265913   3.354   5.318   1.113  2.5625 -1.7568 -1.6322
14808TIP3   OH265914   4.396   2.860   4.440  0.1139  0.6825  0.5741
14808TIP3    H165915   4.349   2.845   4.522  1.7808  0.3564  1.5095
14808TIP3    H265916   4.400   2.955   4.431  0.3342  0.7281  1.1198
14809TIP3   OH265917   1.909   6.031   3.121  0.0149 -0.6118 -0.1514
14809TIP3    H165918   1.993   6.006   3.083  0.5421 -0.6470  0.9694
14809TIP3    H265919   1.866   5.947   3.139  0.6609 -0.6887  1.1948
14810TIP3   OH265920   2.626   0.362  15.366 -0.1350  0.1139  0.2238
14810TIP3    H165921   2.651   0.452  15.382  0.3967 -0.2565  1.6038
14810TIP3    H265922   2.530   0.363  15.370 -0.1367  0.6271  0.1384
14811TIP3   OH265923   4.175   4.554  13.727  0.0887 -0.3722 -0.1024
14811TIP3    H165924   4.243   4.600  13.776 -0.7301  1.8958 -0.9893
14811TIP3    H265925   4.095   4.606  13.741 -0.2496  0.2303 -3.5280
14812TIP3   OH265926   4.305   1.386  15.721  0.5831 -0.2338 -0.1258
14812TIP3    H165927   4.393   1.357  15.699  0.3097 -1.7005  0.5922
14812TIP3    H265928   4.257   1.381  15.639  0.9094 -0.4522 -0.3076
14813TIP3   OH265929   0.430   1.066   5.904  0.0368 -0.0850  0.1668
14813TIP3    H165930   0.376   0.987   5.900  0.3929 -0.2868 -1.4882
14813TIP3    H265931   0.520   1.033   5.906  0.1520  0.2701  0.9745
14814TIP3   OH265932   1.715   0.379   3.259 -0.3656  0.6473  0.0730
14814TIP3    H165933   1.668   0.344   3.183  1.5872 -0.1863 -0.8190
14814TIP3    H265934   1.742   0.302   3.308 -1.6116  1.1758  1.6888
14815TIP3   OH265935   3.018   4.912  16.729 -0.4069 -0.5000 -0.2532
14815TIP3    H165936   3.014   4.959  16.812  0.0498  0.1340 -0.5891
14815TIP3    H265937   3.097   4.944  16.687 -0.7990 -0.5916 -1.0730
14816TIP3   OH265938   0.793   4.960  12.633 -0.0712  0.0522 -0.9874
14816TIP3    H165939   0.707   4.931  12.603  0.2510 -1.2591 -0.6870
14816TIP3    H265940   0.774   5.036  12.689 -1.1635 -1.0675  0.2237
14817TIP3   OH265941   1.223   0.996   0.901 -0.0516 -0.0133  0.0951
14817TIP3    H165942   1.222   0.901   0.898  1.5230 -0.0460 -0.5352
14817TIP3    H265943   1.269   1.022   0.821  0.7114  1.2081  0.8941
14818TIP3   OH265944   4.547   1.101   0.835 -0.4730  1.1380 -0.2036
14818TIP3    H165945   4.572   1.044   0.763 -1.2802  0.4261  0.0516
14818TIP3    H265946   4.625   1.153   0.854  0.3573 -0.0285 -0.3186
14819TIP3   OH265947   0.385   2.860  15.953 -0.3027 -0.2208 -0.4915
14819TIP3    H165948   0.446   2.830  16.021  0.6255  1.8170 -0.3570
14819TIP3    H265949   0.328   2.785  15.938  0.9918 -1.5467  0.8033
14820TIP3   OH265950   5.608   4.658   1.771  0.4226  0.3576  0.2884
14820TIP3    H165951   5.583   4.662   1.863 -0.5671  0.3315  0.0279
14820TIP3    H265952   5.639   4.747   1.751  2.7978 -0.1775  1.2043
14821TIP3   OH265953   2.794   2.237  13.062  0.6861 -0.1144  0.7953
14821TIP3    H165954   2.869   2.237  13.002  0.0102 -4.3437 -0.3657
14821TIP3    H265955   2.718   2.238  13.004 -0.0665 -0.6495  1.7620
14822TIP3   OH265956   3.718   1.258  11.232 -0.3198  0.6925  0.2389
14822TIP3    H165957   3.802   1.277  11.188 -0.4659  1.4252  0.2631
14822TIP3    H265958   3.700   1.336  11.283 -1.5621  0.9974 -0.6167
14823TIP3   OH265959   3.705   6.313   0.588  0.1217 -0.4374  0.1016
14823TIP3    H165960   3.713   6.238   0.647  0.2891 -0.6783 -0.2241
14823TIP3    H265961   3.790   6.319   0.545  1.2865  1.8929  2.4256
14824TIP3   OH265962   5.108   5.456  11.103  1.0650 -0.1329  0.3791
14824TIP3    H165963   5.129   5.539  11.061  0.5455 -0.2610 -0.1426
14824TIP3    H265964   5.188   5.404  11.096  0.3411 -1.0459 -2.6147
14825TIP3   OH265965   1.838   6.817   5.529  0.0362  0.2668 -0.2336
14825TIP3    H165966   1.804   6.905   5.512 -2.3637 -0.7160 -1.0603
14825TIP3    H265967   1.791   6.789   5.608 -0.3223 -0.7887 -0.8156
14826TIP3   OH265968   2.941   1.083   5.238 -0.0599 -0.2197  0.2743
14826TIP3    H165969   2.866   1.142   5.239 -0.4848 -0.7607  0.1818
14826TIP3    H265970   3.017   1.142   5.229 -0.5095  0.2830 -0.2887
14827TIP3   OH265971   2.563   0.468   2.698 -0.5941  0.4402  0.0056
14827TIP3    H165972   2.592   0.435   2.783 -0.6134 -2.2114 -0.9387
14827TIP3    H265973   2.470   0.486   2.710 -0.5983  0.0649  0.5488
14828TIP3   OH265974   0.356   4.212  16.210  0.2018  0.0569  0.1860
14828TIP3    H165975   0.432   4.174  16.254  0.4739  0.5773  0.1758
14828TIP3    H265976   0.338   4.151  16.138  0.9397  0.1994 -0.1339
14829TIP3   OH265977   0.254   5.837   6.039 -0.5733  0.5546  0.3401
14829TIP3    H165978   0.184   5.882   5.992 -0.9555 -2.0136 -1.7563
14829TIP3    H265979   0.334   5.868   5.997 -0.7859 -0.2109 -0.6376
14830TIP3   OH265980   2.482   5.941  11.136  0.4222  0.0533  0.2412
14830TIP3    H165981   2.413   5.986  11.184  0.6116 -1.6321  2.1839
14830TIP3    H265982   2.493   5.857  11.180  2.2402 -0.6264 -1.3354
14831TIP3   OH265983   4.582   5.263  15.390 -0.1303  0.4581  0.5070
14831TIP3    H165984   4.546   5.344  15.353 -0.0891 -0.0596 -0.7101
14831TIP3    H265985   4.660   5.244  15.337 -1.2522 -1.4299 -0.6138
14832TIP3   OH265986   1.368   1.789   1.328 -0.4268 -0.0672  0.6319
14832TIP3    H165987   1.341   1.765   1.239  1.3484 -1.6283  0.4673
14832TIP3    H265988   1.337   1.879   1.338 -0.9108  0.0560 -1.4706
14833TIP3   OH265989   3.380   6.356  15.007  0.0844  0.2722  0.2884
14833TIP3    H165990   3.294   6.332  14.973 -0.4865  1.6795  0.6452
14833TIP3    H265991   3.384   6.314  15.093 -0.4801  0.6153  0.4902
14834TIP3   OH265992   0.023   1.122   2.205 -0.2223  0.0703  0.0406
14834TIP3    H165993   0.113   1.109   2.236  1.0098 -1.1869 -3.5733
14834TIP3    H265994   0.032   1.177   2.127 -2.4772 -0.8727 -0.9602
14835TIP3   OH265995   3.316   2.376  15.219  0.3736 -0.3377  0.4293
14835TIP3    H165996   3.391   2.360  15.162 -0.0366 -0.6886 -0.0276
14835TIP3    H265997   3.311   2.298  15.274 -0.3945 -0.9014 -0.3988
14836TIP3   OH265998   2.569   0.119   3.370  0.5718  0.2040  0.5042
14836TIP3    H165999   2.549   0.181   3.439  0.4734 -0.2604  0.8983
14836TIP3    H266000   2.516   0.042   3.391  2.5039 -0.9487  1.4052
14837TIP3   OH266001   0.583   0.656   0.481  0.2866  0.0446 -0.2460
14837TIP3    H166002   0.631   0.590   0.431  0.1548  0.2637 -0.6657
14837TIP3    H266003   0.620   0.740   0.452  0.3557  0.1609  0.1773
14838TIP3   OH266004   0.273   5.417   1.429 -0.3793  0.7337  0.2227
14838TIP3    H166005   0.243   5.508   1.440  0.6964  1.1085  0.1443
14838TIP3    H266006   0.231   5.370   1.502  0.0206  1.5359  0.9981
14839TIP3   OH266007   5.495   5.979  13.366 -0.3083 -0.1955 -0.5223
14839TIP3    H166008   5.462   5.891  13.348 -0.1090 -0.2867 -0.4504
14839TIP3    H266009   5.499   5.984  13.461 -2.1197  0.5688 -0.4526
14840TIP3   OH266010   6.052   2.214  14.058 -0.2527 -1.0209 -0.7926
14840TIP3    H166011   5.957   2.211  14.041  0.0452  0.9499 -3.4493
14840TIP3    H266012   6.091   2.189  13.975  1.5649 -0.1740 -0.2321
14841TIP3   OH266013   1.136   0.664  13.914  0.0071  0.0518 -0.2355
14841TIP3    H166014   1.087   0.683  13.834 -0.0463  0.0691 -0.1987
14841TIP3    H266015   1.187   0.586  13.893 -1.4650 -1.0967  0.3326
14842TIP3   OH266016   1.298   2.447   2.079 -0.2032 -0.3986  0.7796
14842TIP3    H166017   1.288   2.526   2.026  1.1356 -0.1356  0.8866
14842TIP3    H266018   1.381   2.460   2.126  0.7154 -2.4357 -0.1796
14843TIP3   OH266019   3.128   1.931   1.319 -0.1803 -0.0470  0.1654
14843TIP3    H166020   3.062   1.925   1.250 -1.1522  0.4459  1.0298
14843TIP3    H266021   3.158   1.841   1.331  0.1097 -0.1260 -0.9736
14844TIP3   OH266022   1.987   4.518   4.596  0.5558  0.1946  0.2448
14844TIP3    H166023   1.967   4.606   4.630  2.0786  1.0869 -1.0146
14844TIP3    H266024   1.901   4.477   4.585 -0.2557  1.8000  0.1743
14845TIP3   OH266025   4.951   5.717   5.124 -0.2334  0.3134 -0.1512
14845TIP3    H166026   5.023   5.692   5.182  1.5458  0.0602 -2.3391
14845TIP3    H266027   4.911   5.793   5.167  1.3342  0.4661  1.1422
14846TIP3   OH266028   4.577   2.229  11.212  0.1940  0.0443 -0.0074
14846TIP3    H166029   4.516   2.211  11.141 -0.7970  0.1351  0.7961
14846TIP3    H266030   4.656   2.180  11.189 -0.6566 -1.2058 -0.3901
14847TIP3   OH266031   0.673   0.966   0.139 -0.0795 -0.3742 -0.6026
14847TIP3    H166032   0.711   0.990   0.053  4.0349  2.4368  1.6064
14847TIP3    H266033   0.720   0.887   0.164  0.2567 -0.0496 -0.1810
14848TIP3   OH266034   3.060   5.777   1.428  0.0040  0.1695  0.0614
14848TIP3    H166035   3.089   5.808   1.342  0.0369 -0.0401 -0.0051
14848TIP3    H266036   2.973   5.741   1.412 -0.8975  2.0625  0.5261
14849TIP3   OH266037   2.544   0.493  12.211  0.6461  0.2057 -0.1826
14849TIP3    H166038   2.567   0.537  12.129  0.1247 -1.2606 -1.1653
14849TIP3    H266039   2.600   0.535  12.277  0.9844  1.5194 -1.2433
14850TIP3   OH266040   4.207   1.525  15.054  0.4593  0.3680  0.3300
14850TIP3    H166041   4.286   1.555  15.099  0.6103  0.6551 -0.1243
14850TIP3    H266042   4.227   1.435  15.028  0.8936  0.6507 -0.3556
14851TIP3   OH266043   1.231   5.430   0.655  0.0926 -0.1769  0.1932
14851TIP3    H166044   1.225   5.394   0.567  2.2318 -0.7539  0.2249
14851TIP3    H266045   1.315   5.475   0.658 -0.1875  0.3251  1.7591
14852TIP3   OH266046   0.679   4.694  16.162  0.2963 -0.1254  0.0663
14852TIP3    H166047   0.631   4.628  16.111  1.5135 -1.8635  1.0619
14852TIP3    H266048   0.769   4.663  16.164  0.7866  1.2310  1.1418
14853TIP3   OH266049   6.564   4.605  15.800  0.2421 -0.2187 -0.0708
14853TIP3    H166050   6.473   4.587  15.778  0.0284  2.6518 -2.1133
14853TIP3    H266051   6.613   4.535  15.757 -0.8966 -0.8295 -0.4123
14854TIP3   OH266052   5.035   3.804  11.672 -0.3799 -0.0334 -0.0316
14854TIP3    H166053   5.071   3.783  11.586 -1.1205  0.8775 -0.5913
14854TIP3    H266054   4.971   3.735  11.689 -0.5217  0.0106 -0.3945
14855TIP3   OH266055   4.871   6.603  11.362 -0.7546 -0.3451 -0.5344
14855TIP3    H166056   4.902   6.646  11.441 -2.6600  0.9309 -0.3933
14855TIP3    H266057   4.937   6.536  11.343 -0.1235 -0.5508  1.9776
14856TIP3   OH266058   3.057   6.670   4.626 -0.0019 -0.0605  0.5872
14856TIP3    H166059   3.106   6.751   4.636 -2.1102  1.0793  2.2832
14856TIP3    H266060   3.118   6.602   4.654  1.7004  0.8856 -0.5750
14857TIP3   OH266061   2.943   0.811   4.197 -0.3428  0.2031 -0.7632
14857TIP3    H166062   3.004   0.882   4.216 -0.9236  0.3950  0.5270
14857TIP3    H266063   2.873   0.822   4.261 -0.3248 -1.6865 -0.3333
14858TIP3   OH266064   0.589   1.834   4.417  0.2176 -0.8368  0.0599
14858TIP3    H166065   0.573   1.742   4.435  2.3416 -1.1894  0.4607
14858TIP3    H266066   0.678   1.850   4.449  0.4054  1.0151 -1.1842
14859TIP3   OH266067   1.390   1.948  13.512  0.0544 -0.1265 -0.0089
14859TIP3    H166068   1.437   1.952  13.595  0.5815 -0.3538 -0.2907
14859TIP3    H266069   1.338   1.868  13.517 -0.8226  0.4544  0.5645
14860TIP3   OH266070   4.401   5.092  11.001 -0.1049  0.2273 -0.3968
14860TIP3    H166071   4.426   5.000  10.990  0.0977  0.3929 -1.5222
14860TIP3    H266072   4.309   5.095  10.975 -0.6235  0.0553  1.3271
14861TIP3   OH266073   2.941   1.823   4.215  0.1455 -0.3401  0.5192
14861TIP3    H166074   2.861   1.868   4.241  0.0551 -0.8700  1.2051
14861TIP3    H266075   3.009   1.863   4.270  0.2392 -0.3260  0.3920
14862TIP3   OH266076   5.813   5.185   3.488 -0.2156  0.1034  0.4430
14862TIP3    H166077   5.783   5.274   3.469 -1.1622 -0.5985 -1.6486
14862TIP3    H266078   5.738   5.130   3.466  0.2398 -1.2130  2.0536
14863TIP3   OH266079   2.742   6.834   3.866  0.3965 -0.1973 -0.1515
14863TIP3    H166080   2.673   6.827   3.800  0.3204 -0.4655 -0.0411
14863TIP3    H266081   2.696   6.829   3.949  0.7245 -2.2895 -0.0474
14864TIP3   OH266082   0.113   1.071  15.476 -0.1600 -0.6614 -0.3157
14864TIP3    H166083   0.106   1.105  15.565  0.6200 -1.1432 -0.0606
14864TIP3    H266084   0.122   1.150  15.422  1.5478 -0.4052  0.2625
14865TIP3   OH266085   2.436   5.130   3.083  0.2424  0.1164  0.3565
14865TIP3    H166086   2.507   5.071   3.106  0.8048 -0.1948 -1.9280
14865TIP3    H266087   2.363   5.072   3.058  0.0101  0.4170  0.3290
14866TIP3   OH266088   4.082   6.413   4.889  0.3248 -0.1374 -0.4616
14866TIP3    H166089   4.128   6.410   4.805  0.0237  0.2843 -0.6439
14866TIP3    H266090   3.994   6.380   4.869  0.2571 -0.0517 -0.3047
14867TIP3   OH266091   1.289   6.535   2.418  0.8883 -0.7012  0.0490
14867TIP3    H166092   1.300   6.486   2.499  0.3522 -0.4355  0.2929
14867TIP3    H266093   1.254   6.620   2.446  2.1510 -0.0360 -0.3282
14868TIP3   OH266094   5.259   0.781   6.093  0.5457 -0.3634 -0.5262
14868TIP3    H166095   5.335   0.753   6.144  0.1913  0.2888  0.3878
14868TIP3    H266096   5.250   0.874   6.114  0.1276 -0.1891 -1.4541
14869TIP3   OH266097   0.453   3.555   3.506  0.7122 -0.1025  0.5152
14869TIP3    H166098   0.392   3.545   3.433  1.4651 -2.2202  0.1180
14869TIP3    H266099   0.398   3.545   3.584  0.0867  1.1073  0.2645
14870TIP3   OH266100   1.630   1.909  11.837 -0.0683  0.2420  1.0214
14870TIP3    H166101   1.639   2.002  11.861 -1.4280  0.8230 -0.5434
14870TIP3    H266102   1.673   1.903  11.751  0.7788 -0.7983  1.4930
14871TIP3   OH266103   3.997   5.910  13.100 -0.1185  0.6064  0.0405
14871TIP3    H166104   3.992   5.915  13.004  0.7392 -0.9846 -0.1347
14871TIP3    H266105   3.916   5.865  13.125  1.4337 -2.8190 -0.4259
14872TIP3   OH266106   5.338   1.993   1.492  0.2575 -0.0884  0.2035
14872TIP3    H166107   5.316   1.948   1.573 -1.7892  0.1704 -0.1461
14872TIP3    H266108   5.418   1.951   1.461 -0.5907 -2.2407  0.8031
14873TIP3   OH266109   1.952   2.725   4.316  0.1931 -0.2097  0.0568
14873TIP3    H166110   1.999   2.737   4.398  0.2783 -0.6256  0.0710
14873TIP3    H266111   1.887   2.657   4.334  1.2653 -1.4741 -0.6313
14874TIP3   OH266112   1.382   5.496   2.503 -0.0458  0.3750 -0.8364
14874TIP3    H166113   1.386   5.538   2.588 -1.2056 -2.3198  0.6642
14874TIP3    H266114   1.347   5.408   2.520 -0.9930 -0.0615 -4.1709
14875TIP3   OH266115   5.694   5.102   1.441  0.6878 -0.6346 -0.4417
14875TIP3    H166116   5.630   5.119   1.510  0.2233 -0.9741 -0.7858
14875TIP3    H266117   5.742   5.184   1.433  0.7743 -0.6047  0.3116
14876TIP3   OH266118   0.221   6.110   4.594  0.5752 -0.1804 -0.2754
14876TIP3    H166119   0.276   6.049   4.543 -0.3120 -0.7693 -0.5505
14876TIP3    H266120   0.175   6.054   4.656  2.7630  0.6658  2.3182
14877TIP3   OH266121   3.552   6.691   1.448 -0.2786 -0.3497 -0.7705
14877TIP3    H166122   3.506   6.693   1.365 -2.3315 -0.4002  0.2957
14877TIP3    H266123   3.511   6.759   1.501  0.4231 -0.8401  0.4753
14878TIP3   OH266124   1.184   4.889  16.689 -0.0990 -0.3084 -0.3588
14878TIP3    H166125   1.252   4.929  16.743  0.3991  0.0630 -1.2284
14878TIP3    H266126   1.115   4.956  16.684 -0.7454 -0.8553  0.8883
14879TIP3   OH266127   4.810   2.405  13.941 -0.3565  0.3507  0.4029
14879TIP3    H166128   4.906   2.410  13.941 -0.1356 -2.0479 -0.6660
14879TIP3    H266129   4.781   2.495  13.949  2.0264  1.3514 -1.0533
14880TIP3   OH266130   5.965   3.372  14.845 -0.1506 -0.1427  0.0070
14880TIP3    H166131   5.870   3.383  14.836  0.0548  1.1628 -0.8576
14880TIP3    H266132   6.000   3.461  14.834  1.1830 -0.6292  0.1822
14881TIP3   OH266133   3.431   2.048  12.578 -0.0630 -0.4167  0.1838
14881TIP3    H166134   3.460   2.117  12.518 -1.8583  0.8016  0.6067
14881TIP3    H266135   3.384   2.096  12.647 -2.4870 -2.1329 -0.1643
14882TIP3   OH266136   4.428   2.218  10.988  0.0468 -0.1757  0.0770
14882TIP3    H166137   4.495   2.173  10.936  0.8142  0.3542  0.6009
14882TIP3    H266138   4.355   2.230  10.927  0.6009 -0.3389 -0.6298
14883TIP3   OH266139   3.125   0.603   3.500 -0.4140 -0.5364  0.2419
14883TIP3    H166140   3.185   0.550   3.552  0.1179  0.7932  1.0288
14883TIP3    H266141   3.132   0.567   3.411  0.2430 -1.4959  0.6637
14884TIP3   OH266142   0.630   4.537  13.350  0.0395  0.5008 -0.2482
14884TIP3    H166143   0.545   4.516  13.313 -0.6039 -1.1156  1.9304
14884TIP3    H266144   0.680   4.455  13.344  0.4619  0.6522  0.9213
14885TIP3   OH266145   3.781   5.160   6.275 -0.0494  0.2850 -0.4915
14885TIP3    H166146   3.732   5.105   6.336  0.6079  1.4152  1.1232
14885TIP3    H266147   3.824   5.098   6.216 -1.5057 -0.7941 -0.4544
14886TIP3   OH266148   0.690   1.962  10.651 -0.2165  0.0759 -0.2112
14886TIP3    H166149   0.765   1.996  10.700 -0.4203  0.3601 -0.0942
14886TIP3    H266150   0.724   1.884  10.607 -0.0566 -0.2334  0.4482
14887TIP3   OH266151   4.075   1.159  16.996 -0.1610 -0.1797 -0.2170
14887TIP3    H166152   4.045   1.177  17.086  0.1666 -1.9584  0.2871
14887TIP3    H266153   3.999   1.175  16.941 -0.0517  2.0989  0.1972
14888TIP3   OH266154   4.568   2.906   2.573 -0.0388  0.3641  0.5363
14888TIP3    H166155   4.589   2.886   2.481  0.3439  2.1574  0.1841
14888TIP3    H266156   4.582   2.824   2.619  2.9232  0.1654 -0.5041
14889TIP3   OH266157   3.863   4.838   1.796 -0.1529  0.1711 -0.5335
14889TIP3    H166158   3.770   4.828   1.813  0.1911 -0.4466  1.1906
14889TIP3    H266159   3.888   4.915   1.848  0.2762  0.4522 -1.1422
14890TIP3   OH266160   1.120   4.718  14.118 -0.4308  0.4214 -0.1322
14890TIP3    H166161   1.104   4.758  14.203 -0.2051  1.4746 -0.5619
14890TIP3    H266162   1.205   4.753  14.091 -0.9160  0.8460 -1.1870
14891TIP3   OH266163   1.016   2.885   4.267 -0.3520  0.0235  0.3044
14891TIP3    H166164   0.943   2.946   4.257  0.1976  0.5330 -0.7740
14891TIP3    H266165   1.009   2.825   4.192  1.7237  1.6213 -1.3070
14892TIP3   OH266166   6.627   5.423   1.083 -0.7443  0.8024 -0.3158
14892TIP3    H166167   6.684   5.431   1.159 -0.8638 -0.0250 -0.1353
14892TIP3    H266168   6.683   5.385   1.015 -0.7963  1.0046 -0.4752
14893TIP3   OH266169   2.063   1.257  14.521  0.4960  0.0431  0.3189
14893TIP3    H166170   2.108   1.334  14.487  1.2850 -0.7688 -0.5650
14893TIP3    H266171   2.126   1.215  14.578  0.0675  0.0490  0.8052
14894TIP3   OH266172   1.352   5.107  12.422  0.5419 -0.4462  0.4494
14894TIP3    H166173   1.370   5.063  12.504  1.0776 -0.4555  0.3290
14894TIP3    H266174   1.264   5.079  12.398  0.5256 -0.7249  0.8332
14895TIP3   OH266175   1.680   2.779   3.092 -0.1919  0.3324 -0.4769
14895TIP3    H166176   1.635   2.747   3.171 -1.2952  1.6872 -0.5277
14895TIP3    H266177   1.769   2.798   3.121 -0.2071 -0.4619  0.1153
14896TIP3   OH266178   1.987   5.137  15.521 -0.0647  0.0767 -0.0338
14896TIP3    H166179   1.923   5.149  15.591 -1.2029 -1.2547 -0.7847
14896TIP3    H266180   2.072   5.135  15.566 -0.4970  2.1036  0.9551
14897TIP3   OH266181   4.384   3.393   3.107  0.4470 -0.2891  0.5637
14897TIP3    H166182   4.407   3.476   3.149  1.1187  0.7740 -1.7338
14897TIP3    H266183   4.397   3.409   3.013 -0.4072 -2.6893 -0.0422
14898TIP3   OH266184   1.318   6.159   2.724  0.4298  0.1891  0.7478
14898TIP3    H166185   1.403   6.200   2.740  2.0825 -1.5970 -2.2394
14898TIP3    H266186   1.285   6.203   2.646 -1.2521  0.5827  1.6487
14899TIP3   OH266187   3.657   3.577   5.018 -0.1670 -0.4889  0.1942
14899TIP3    H166188   3.666   3.661   5.063  0.7899 -0.9970  0.9688
14899TIP3    H266189   3.646   3.513   5.088 -1.6867 -0.9471 -0.4076
14900TIP3   OH266190   5.521   2.981  15.269  0.4967 -0.1598 -0.5554
14900TIP3    H166191   5.498   2.892  15.245  2.3063 -0.6209 -0.6784
14900TIP3    H266192   5.546   3.023  15.187  1.0433  0.0311 -0.2967
14901TIP3   OH266193   1.829   5.789  16.884  0.7401  0.0107  0.3217
14901TIP3    H166194   1.891   5.842  16.935 -0.5496  2.8430 -0.8411
14901TIP3    H266195   1.744   5.828  16.901 -0.2224 -1.3765 -1.0651
14902TIP3   OH266196   6.460   0.310   3.546 -0.2300 -0.6301 -0.0923
14902TIP3    H166197   6.534   0.260   3.511  1.3617  1.3538  0.2771
14902TIP3    H266198   6.498   0.365   3.614 -1.8224  1.2266 -0.6169
14903TIP3   OH266199   1.590   5.905  11.192 -0.2965  0.5132  0.5272
14903TIP3    H166200   1.576   5.817  11.160  0.0844 -0.1346  2.0415
14903TIP3    H266201   1.508   5.951  11.173 -0.6908 -0.3061  0.1985
14904TIP3   OH266202   3.397   0.792  13.259 -1.3377 -0.1773  0.1333
14904TIP3    H166203   3.408   0.886  13.248 -2.1682  0.3328  2.9353
14904TIP3    H266204   3.473   0.765  13.311 -1.3642 -0.9778 -0.2271
14905TIP3   OH266205   5.746   5.820   3.988 -0.3197 -0.0266 -0.5032
14905TIP3    H166206   5.707   5.849   3.906 -1.2537  2.4533  0.6900
14905TIP3    H266207   5.684   5.756   4.023 -1.2718  0.8423 -0.5559
14906TIP3   OH266208   4.020   6.384   5.275  0.4929  0.2555  0.0582
14906TIP3    H166209   3.981   6.372   5.361 -0.0565  1.5201  0.0145
14906TIP3    H266210   4.076   6.308   5.263 -0.1246 -0.3962  1.1409
14907TIP3   OH266211   1.071   4.500   0.783 -0.1244 -0.2335 -0.3875
14907TIP3    H166212   1.011   4.544   0.723 -0.4504  0.0512  0.1404
14907TIP3    H266213   1.022   4.493   0.865  0.8364  0.7276  0.2921
14908TIP3   OH266214   5.212   3.982  11.783 -0.1524  0.4815  0.3224
14908TIP3    H166215   5.179   3.915  11.723  0.3020 -0.0429  0.6463
14908TIP3    H266216   5.134   4.014  11.828 -0.2477 -0.7029  1.0377
14909TIP3   OH266217   3.429   4.622   4.770  0.8636  0.2215  0.2540
14909TIP3    H166218   3.341   4.628   4.734  0.5623 -2.7904  0.2013
14909TIP3    H266219   3.487   4.639   4.696  0.3511  1.4269  0.1119
14910TIP3   OH266220   2.810   6.238  13.751 -0.4535  0.2357  0.1635
14910TIP3    H166221   2.825   6.269  13.662  0.4064  0.5384  0.4024
14910TIP3    H266222   2.811   6.317  13.804  1.4179 -0.1284  0.7363
14911TIP3   OH266223   1.046   4.235  15.104 -0.9689 -0.2410 -0.0056
14911TIP3    H166224   1.062   4.225  15.198 -1.3525  1.0383  0.2220
14911TIP3    H266225   0.951   4.244  15.097 -0.8404  1.2087 -0.3153
14912TIP3   OH266226   1.311   5.260   4.354 -0.9346 -0.1301  0.2251
14912TIP3    H166227   1.221   5.253   4.322 -0.0050 -1.3609 -2.3383
14912TIP3    H266228   1.328   5.176   4.397 -0.3333 -0.8054 -1.2811
14913TIP3   OH266229   2.009   2.182   1.556  0.6142 -0.5121  0.3382
14913TIP3    H166230   2.019   2.112   1.491 -0.1988 -1.0778  0.8122
14913TIP3    H266231   2.064   2.155   1.629 -0.6699 -1.3125  1.0426
14914TIP3   OH266232   6.047   5.288   1.670  0.2038  0.2841  0.1804
14914TIP3    H166233   6.007   5.374   1.657  3.0435  2.1026  2.2617
14914TIP3    H266234   6.026   5.265   1.761 -1.1783 -1.6724 -0.5771
14915TIP3   OH266235   4.414   5.559  12.635  0.3192 -1.0038 -0.4200
14915TIP3    H166236   4.323   5.538  12.617  0.0249 -0.9285  0.8565
14915TIP3    H266237   4.425   5.539  12.728  1.6656 -1.2241 -0.6070
14916TIP3   OH266238   2.191   1.704  12.321  0.2660  0.2382 -0.4433
14916TIP3    H166239   2.176   1.610  12.311 -0.1944  0.1874  0.5507
14916TIP3    H266240   2.222   1.733  12.235 -0.7763 -0.5982 -1.1274
14917TIP3   OH266241   4.844   4.220   6.075  0.2028 -0.2196  0.1246
14917TIP3    H166242   4.821   4.140   6.029  1.1726 -0.2649 -0.3194
14917TIP3    H266243   4.825   4.201   6.167  2.1839 -1.6918  0.3114
14918TIP3   OH266244   3.004   4.172  16.301  0.2106 -0.1208  0.5214
14918TIP3    H166245   2.970   4.255  16.334 -1.4796 -0.8661  0.7873
14918TIP3    H266246   2.956   4.105  16.351  0.3431 -1.2550 -0.8006
14919TIP3   OH266247   3.581   6.160  10.985 -0.7806 -0.3356  0.1125
14919TIP3    H166248   3.607   6.080  10.940 -0.8800 -0.2492 -0.0967
14919TIP3    H266249   3.608   6.231  10.927  1.0694 -0.1225  1.1364
14920TIP3   OH266250   5.360   3.860   2.400 -0.3120  0.5517  0.0725
14920TIP3    H166251   5.380   3.847   2.307 -2.5645 -0.6610 -0.3342
14920TIP3    H266252   5.282   3.915   2.400 -2.6985 -2.4908  0.9165
14921TIP3   OH266253   4.651   3.686   2.342 -0.0195 -0.1308 -0.7410
14921TIP3    H166254   4.671   3.663   2.433 -1.2511  1.0908 -0.1203
14921TIP3    H266255   4.616   3.605   2.304 -1.9582 -0.0321  0.6600
14922TIP3   OH266256   5.935   2.176   3.217 -0.4055 -0.1492 -0.1131
14922TIP3    H166257   6.013   2.144   3.172  0.1820  0.7829  0.1989
14922TIP3    H266258   5.950   2.156   3.309 -0.8966 -0.6621 -0.1397
14923TIP3   OH266259   0.062   6.501   0.723 -0.2078 -0.6165  0.1437
14923TIP3    H166260  -0.014   6.541   0.764  0.6055 -0.0682  1.1580
14923TIP3    H266261   0.026   6.445   0.655 -1.4296  1.2016 -0.7897
14924TIP3   OH266262   0.755   4.948   4.591  0.0603  0.5405 -0.3161
14924TIP3    H166263   0.705   5.018   4.633  0.5430  0.5456  0.2711
14924TIP3    H266264   0.765   4.882   4.660 -0.7403 -0.3004 -0.9763
14925TIP3   OH266265   1.319   3.636  11.215  0.6020  0.6419 -0.0591
14925TIP3    H166266   1.325   3.587  11.297  0.1336  1.4799  0.4964
14925TIP3    H266267   1.238   3.605  11.174  0.3331  0.9063  0.2668
14926TIP3   OH266268   1.250   4.756   1.882  0.2615  0.2427  0.4265
14926TIP3    H166269   1.332   4.735   1.837  0.7933  0.7008  1.1475
14926TIP3    H266270   1.230   4.678   1.933  0.5644  0.3384  0.6957
14927TIP3   OH266271   0.118   5.466   6.228 -0.8381  0.0636 -0.3673
14927TIP3    H166272   0.092   5.406   6.298 -1.8363  1.4172  0.4650
14927TIP3    H266273   0.037   5.508   6.201 -0.2839  0.4208 -1.5383
14928TIP3   OH266274   1.164   0.198  13.886  0.2152  0.5544  0.2634
14928TIP3    H166275   1.180   0.212  13.979  0.2631  3.2302 -0.0822
14928TIP3    H266276   1.250   0.197  13.846  0.2580 -1.4568  0.2601
14929TIP3   OH266277   2.608   0.854   5.423 -0.6677  0.1938  0.2080
14929TIP3    H166278   2.570   0.933   5.384 -0.6676 -0.2207 -0.6704
14929TIP3    H266279   2.541   0.821   5.481 -1.4338 -0.1876 -0.8573
14930TIP3   OH266280   1.587   3.587   5.499  0.8059 -0.0998 -0.5494
14930TIP3    H166281   1.550   3.636   5.571  2.2235  2.2931 -1.3232
14930TIP3    H266282   1.515   3.534   5.466  0.1050 -1.2354  2.4974
14931TIP3   OH266283   1.465   3.437  14.963  0.1955 -0.6618  0.0782
14931TIP3    H166284   1.524   3.473  15.030  1.4497 -1.7195 -0.3993
14931TIP3    H266285   1.501   3.469  14.880 -1.2123  0.4560 -0.1319
14932TIP3   OH266286   3.973   5.551   2.660  0.0280  0.3139  0.7975
14932TIP3    H166287   3.956   5.461   2.687 -1.4136  0.5461  0.7745
14932TIP3    H266288   3.907   5.603   2.707 -0.4818  1.1033 -0.7090
14933TIP3   OH266289   3.605   3.800  11.787  0.3328 -0.0009  0.5094
14933TIP3    H166290   3.521   3.840  11.811  0.7434 -0.3448  2.7019
14933TIP3    H266291   3.597   3.784  11.693 -2.1017 -0.1159  0.6671
14934TIP3   OH266292   2.194   5.758  12.933  0.1507 -0.5604  0.3745
14934TIP3    H166293   2.132   5.792  12.868  1.0779  1.2929  0.3946
14934TIP3    H266294   2.170   5.666  12.943 -0.9929 -0.5061 -1.4456
14935TIP3   OH266295   4.816   3.750  17.079  0.1365  0.1389  0.1442
14935TIP3    H166296   4.855   3.724  17.163 -2.1458  1.5136  1.7439
14935TIP3    H266297   4.759   3.677  17.055 -0.0874  0.2381  0.3800
14936TIP3   OH266298   2.464   0.681   0.337  0.1469 -0.3565  0.1129
14936TIP3    H166299   2.393   0.704   0.277  0.8380 -0.8684 -0.9460
14936TIP3    H266300   2.495   0.765   0.370 -0.8756 -0.1223  0.5108
14937TIP3   OH266301   2.186   0.128  13.206 -0.2713 -0.0115 -0.2658
14937TIP3    H166302   2.230   0.193  13.262 -2.5528  0.5094  1.0838
14937TIP3    H266303   2.234   0.047  13.221 -0.1520  0.3675  1.6697
14938TIP3   OH266304   3.183   4.634  16.901 -0.3249 -0.3636 -0.5936
14938TIP3    H166305   3.195   4.645  16.807 -2.7417  1.0600 -0.8287
14938TIP3    H266306   3.092   4.603  16.909 -0.8367  1.4392  1.3220
14939TIP3   OH266307   5.352   2.228  13.835 -0.2244  0.7697  0.3131
14939TIP3    H166308   5.421   2.292  13.816 -0.6837  0.9718 -0.7861
14939TIP3    H266309   5.308   2.262  13.912  0.2389  1.1991  0.3935
14940TIP3   OH266310   2.373   3.348  13.406  0.3274 -0.6094  0.4918
14940TIP3    H166311   2.436   3.284  13.440  0.4733 -0.5709  0.2949
14940TIP3    H266312   2.387   3.348  13.312  0.2035 -0.4147  0.4730
14941TIP3   OH266313   2.659   5.533   6.206 -0.4872 -0.1273 -0.3228
14941TIP3    H166314   2.613   5.491   6.280 -1.9201  1.3027 -0.3502
14941TIP3    H266315   2.709   5.604   6.246 -2.6047  1.7397 -0.8432
14942TIP3   OH266316   4.116   0.747  16.843 -0.3091  0.3902 -0.0276
14942TIP3    H166317   4.040   0.781  16.796 -1.0469 -0.4811  0.4956
14942TIP3    H266318   4.156   0.684  16.783 -0.9109 -0.2894  0.2676
14943TIP3   OH266319   5.118   5.621   5.634  0.0577  0.3461  0.7568
14943TIP3    H166320   5.150   5.531   5.627 -0.7793  0.1041 -0.1180
14943TIP3    H266321   5.026   5.611   5.660  0.6859  1.0363  3.6658
14944TIP3   OH266322   5.657   3.699  14.879  0.4991  0.3848 -0.3870
14944TIP3    H166323   5.576   3.748  14.896 -0.4385 -0.9517 -0.8809
14944TIP3    H266324   5.717   3.729  14.947 -0.7031  0.7306  0.5623
14945TIP3   OH266325   1.012   5.245   2.466 -0.3569 -0.2149 -0.2355
14945TIP3    H166326   0.988   5.162   2.424 -0.4700  0.1249 -0.8586
14945TIP3    H266327   0.954   5.251   2.541 -1.0855 -0.2082 -0.7840
14946TIP3   OH266328   4.676   0.540   0.354  0.0245 -0.0506  0.6672
14946TIP3    H166329   4.760   0.536   0.401 -0.0221  0.5177  0.8151
14946TIP3    H266330   4.611   0.553   0.423 -0.2185 -0.7522  0.5758
14947TIP3   OH266331   4.194   0.643  14.464  0.5494  0.2488 -0.0594
14947TIP3    H166332   4.195   0.708  14.534  2.7588 -0.7035  0.8794
14947TIP3    H266333   4.216   0.692  14.385 -0.8139  1.1250  0.0671
14948TIP3   OH266334   5.472   5.436  16.676  0.3188  0.1502 -0.2275
14948TIP3    H166335   5.410   5.457  16.746  0.9561 -1.3842  0.8435
14948TIP3    H266336   5.420   5.439  16.596 -1.6240 -2.7934  0.7850
14949TIP3   OH266337   0.475   6.112  15.183  0.0386 -0.2697  0.1430
14949TIP3    H166338   0.456   6.027  15.224  0.8814  0.1297  1.4110
14949TIP3    H266339   0.442   6.176  15.246  0.4745  0.3537 -0.2559
14950TIP3   OH266340   0.048   6.177  13.295 -0.0600 -1.3940 -0.5682
14950TIP3    H166341   0.076   6.197  13.206 -0.5645  1.7981 -0.1016
14950TIP3    H266342  -0.045   6.160  13.287 -0.5397  0.9000 -0.4689
14951TIP3   OH266343   6.104   3.837  14.454 -0.0134 -0.3311  0.1547
14951TIP3    H166344   6.072   3.748  14.471  0.6539 -0.9741 -1.6627
14951TIP3    H266345   6.038   3.894  14.491 -1.3218 -1.6036 -0.1258
14952TIP3   OH266346   0.407   0.878   2.956 -0.0950  0.0515  0.2311
14952TIP3    H166347   0.464   0.801   2.951  1.5244  1.2588 -0.8438
14952TIP3    H266348   0.446   0.932   3.024 -0.4521  0.5087  0.0759
14953TIP3   OH266349   0.926   2.261   1.402  0.4458 -0.6129 -1.1291
14953TIP3    H166350   0.870   2.288   1.329 -0.3647  0.8307 -0.0412
14953TIP3    H266351   1.003   2.318   1.396 -0.3179  0.5857 -0.0223
14954TIP3   OH266352   3.900   1.818  12.904 -0.1895  0.0325 -0.0905
14954TIP3    H166353   3.824   1.865  12.870 -0.5739 -0.3465  0.2309
14954TIP3    H266354   3.975   1.873  12.880 -0.6705  1.1410  0.8632
14955TIP3   OH266355   2.316   3.310   5.157  0.0156  0.5157  0.2968
14955TIP3    H166356   2.275   3.223   5.155  0.5008  0.2898 -0.0478
14955TIP3    H266357   2.254   3.364   5.206 -0.0973 -0.1286  0.8976
14956TIP3   OH266358   2.672   0.290  15.080  0.0913  0.6703  0.3354
14956TIP3    H166359   2.680   0.311  15.173 -3.1482  2.7189  0.2956
14956TIP3    H266360   2.581   0.262  15.069  0.8997 -1.5125 -1.9594
14957TIP3   OH266361   6.807   5.009   4.242  0.2253  0.0774 -0.2720
14957TIP3    H166362   6.714   4.988   4.245  0.0703  0.7717 -0.0099
14957TIP3    H266363   6.821   5.066   4.318  1.1058 -0.9711  0.3720
14958TIP3   OH266364   4.482   0.867   0.358 -0.1393 -0.1752 -0.1416
14958TIP3    H166365   4.577   0.878   0.365 -0.2585  0.4109  0.6194
14958TIP3    H266366   4.451   0.951   0.323 -0.6040  0.4963  1.7571
14959TIP3   OH266367   2.613   4.598   6.124 -0.4674  0.2447 -0.6854
14959TIP3    H166368   2.620   4.509   6.158  1.5223  0.8054  0.5460
14959TIP3    H266369   2.679   4.602   6.054  1.3095  1.4069  0.9592
14960TIP3   OH266370   2.152   6.456  16.158  0.4757  0.0647  0.6783
14960TIP3    H166371   2.093   6.483  16.229 -0.0483 -1.0673  0.6980
14960TIP3    H266372   2.119   6.370  16.132  2.1993 -0.6542  0.7620
14961TIP3   OH266373   2.179   3.480  15.235  0.2665 -0.2880  0.0483
14961TIP3    H166374   2.100   3.432  15.261 -1.3446  0.6645 -2.6187
14961TIP3    H266375   2.206   3.439  15.153  0.4809  1.5645 -0.8541
14962TIP3   OH266376   4.921   1.330  13.734  0.5159 -0.3363  0.6381
14962TIP3    H166377   4.924   1.420  13.701  0.6297  0.1004  1.8050
14962TIP3    H266378   5.009   1.316  13.770 -0.2717  0.0038  2.7920
14963TIP3   OH266379   4.543   6.741  10.901  0.0805 -0.4720 -0.6069
14963TIP3    H166380   4.479   6.810  10.884  0.0031 -0.8223 -1.8315
14963TIP3    H266381   4.594   6.735  10.820  1.2324 -0.6578  0.1078
14964TIP3   OH266382   1.763   3.071  16.311 -0.0469 -0.5589  0.3025
14964TIP3    H166383   1.703   3.139  16.281  0.6787 -0.7839 -1.7692
14964TIP3    H266384   1.797   3.105  16.394 -0.8886  0.8595  0.1085
14965TIP3   OH266385   5.654   4.199   1.393 -0.0723  0.1379 -0.5136
14965TIP3    H166386   5.643   4.126   1.454 -0.9425 -0.4199 -1.3150
14965TIP3    H266387   5.679   4.158   1.310 -1.9793  0.5971 -1.3600
14966TIP3   OH266388   3.551   2.818  16.504 -0.2277  0.3263  0.0211
14966TIP3    H166389   3.605   2.757  16.455 -0.1842  1.8571 -1.9894
14966TIP3    H266390   3.593   2.825  16.590  1.3296 -0.3853 -0.6484
14967TIP3   OH266391   6.393   0.010  11.177 -0.0676  0.2383 -0.2117
14967TIP3    H166392   6.331   0.080  11.201 -2.2671 -2.0862  1.3973
14967TIP3    H266393   6.353  -0.033  11.102  0.5973 -0.1217 -0.3640
14968TIP3   OH266394   3.621   5.929  17.027 -0.1579  0.2374 -0.2099
14968TIP3    H166395   3.620   5.846  17.074  0.1258  0.4502  0.1808
14968TIP3    H266396   3.713   5.951  17.018 -0.2283  0.4722 -0.3782
14969TIP3   OH266397   3.038   2.421   4.422  0.6259 -0.0597 -0.5103
14969TIP3    H166398   2.983   2.479   4.475  0.6919 -0.6650  0.2397
14969TIP3    H266399   3.008   2.436   4.332 -0.6086 -0.1931 -0.1460
14970TIP3   OH266400   2.820   1.798  13.094  0.1432 -0.3206  0.2128
14970TIP3    H166401   2.879   1.861  13.052 -1.0099 -0.6130 -1.9853
14970TIP3    H266402   2.858   1.713  13.073  0.7507 -0.4528  1.7131
14971TIP3   OH266403   1.178   0.547   4.216  0.3429 -0.0703 -0.2063
14971TIP3    H166404   1.209   0.579   4.301  1.2503  0.9118 -0.8794
14971TIP3    H266405   1.242   0.480   4.191 -0.1948 -0.7041  0.0948
14972TIP3   OH266406   5.428   1.125  16.944  0.2211  0.0973 -0.8469
14972TIP3    H166407   5.508   1.075  16.930  0.2199 -0.2071  0.1568
14972TIP3    H266408   5.451   1.214  16.918  0.7527 -0.0779 -0.9886
14973TIP3   OH266409   3.051   5.273   4.186  0.0262 -0.4754 -0.1140
14973TIP3    H166410   2.972   5.260   4.134 -0.6554  0.8230  0.5532
14973TIP3    H266411   3.031   5.231   4.270  0.0600 -0.1973  0.0340
14974TIP3   OH266412   0.555   4.150  15.186 -0.4975  0.1894  0.2610
14974TIP3    H166413   0.532   4.059  15.205 -0.2355 -0.0549 -0.5719
14974TIP3    H266414   0.494   4.201  15.240  0.1630 -0.4663  1.6933
14975TIP3   OH266415   4.581   3.434   4.048 -0.4776 -0.2178 -0.2294
14975TIP3    H166416   4.663   3.482   4.052 -0.5930 -0.0102 -0.2993
14975TIP3    H266417   4.515   3.502   4.031 -0.8973 -0.1352  1.5703
14976TIP3   OH266418   5.574   4.736   6.323  0.8654  0.3802 -0.0739
14976TIP3    H166419   5.614   4.649   6.331  2.9205  1.2354 -0.5780
14976TIP3    H266420   5.572   4.771   6.412  0.7176  0.1217  0.0261
14977TIP3   OH266421   2.290   0.749   5.510  0.2246 -0.7288  0.1806
14977TIP3    H166422   2.325   0.698   5.583  0.6398 -0.5602  0.1021
14977TIP3    H266423   2.221   0.803   5.548  0.3686 -0.7210  0.4288
14978TIP3   OH266424   4.831   3.106  12.697 -0.2831 -0.1526  0.4509
14978TIP3    H166425   4.777   3.067  12.765  1.3577  0.5920  2.3045
14978TIP3    H266426   4.778   3.176  12.661 -1.0977 -0.3753  1.1876
14979TIP3   OH266427   3.326   5.991  15.268 -0.2907 -0.0874  0.2403
14979TIP3    H166428   3.274   5.939  15.207 -2.3852 -0.2653  2.0322
14979TIP3    H266429   3.336   5.935  15.345 -1.6059  1.6395  1.7634
14980TIP3   OH266430   1.130   3.756   5.786  0.2689  0.5366  0.2058
14980TIP3    H166431   1.160   3.839   5.749  2.9726 -0.5494 -0.2641
14980TIP3    H266432   1.058   3.729   5.729  1.5845  0.9500 -1.7505
14981TIP3   OH266433   5.458   6.429   4.066 -0.0859  0.2865  0.1706
14981TIP3    H166434   5.550   6.410   4.085 -0.0022 -0.4428 -0.8940
14981TIP3    H266435   5.447   6.407   3.973 -1.5634 -0.5771  0.5115
14982TIP3   OH266436   1.731   3.490   1.297  0.0395  0.3399  0.1953
14982TIP3    H166437   1.718   3.538   1.215  2.1609  0.8096  0.0769
14982TIP3    H266438   1.820   3.454   1.290  0.1179  0.0589  2.1057
14983TIP3   OH266439   1.292   6.292   3.403 -0.0709  0.8434 -0.0719
14983TIP3    H166440   1.387   6.290   3.394 -0.1812  0.7004 -1.5485
14983TIP3    H266441   1.267   6.201   3.421  0.1524  1.0987  1.6566
14984TIP3   OH266442   4.373   1.626  14.251 -0.5138  0.7483 -0.3506
14984TIP3    H166443   4.375   1.715  14.216 -0.5877  0.1402 -1.9847
14984TIP3    H266444   4.458   1.614  14.292 -0.1701  1.2720 -0.8972
14985TIP3   OH266445   3.256   5.419   1.938 -0.4713  0.0871  0.2211
14985TIP3    H166446   3.190   5.485   1.914 -0.5423 -0.2404 -0.5262
14985TIP3    H266447   3.314   5.464   2.000 -1.2300  0.4674  0.6704
14986TIP3   OH266448   5.470   2.951   2.914 -0.2633  0.1194 -0.4398
14986TIP3    H166449   5.455   2.978   3.005  2.1261  0.0517  0.0506
14986TIP3    H266450   5.507   3.028   2.872  0.5264 -0.4260 -0.7770
14987TIP3   OH266451   3.582   1.720  16.616 -0.1153  0.0043  0.0370
14987TIP3    H166452   3.526   1.702  16.691  0.6393 -1.2917  0.3257
14987TIP3    H266453   3.524   1.712  16.540 -0.1148 -2.6908  0.2261
14988TIP3   OH266454   4.891   3.241   1.689  0.2282 -0.3670 -1.3175
14988TIP3    H166455   4.861   3.239   1.780 -0.7503  0.4616 -1.6074
14988TIP3    H266456   4.983   3.214   1.694 -0.1965 -1.7699 -0.2607
14989TIP3   OH266457   3.834   5.258  13.213  0.8091  0.1681  0.2297
14989TIP3    H166458   3.807   5.166  13.202  1.3156  0.1669 -1.2179
14989TIP3    H266459   3.914   5.265  13.161 -0.0346  1.7936 -0.9306
14990TIP3   OH266460   2.466   2.543  15.418 -0.1889  0.1059  0.1361
14990TIP3    H166461   2.495   2.494  15.495 -0.1280 -0.3205 -0.1563
14990TIP3    H266462   2.375   2.565  15.437  0.3884  1.7706  1.2199
14991TIP3   OH266463   2.738   4.074  12.529 -0.4310  0.3575  1.0902
14991TIP3    H166464   2.801   4.090  12.599  0.0843  1.7068  0.3651
14991TIP3    H266465   2.765   3.990  12.491  0.2645  0.3949  1.4884
14992TIP3   OH266466   1.209   1.064   6.257  0.2659 -0.4119 -0.3653
14992TIP3    H166467   1.176   1.057   6.347  0.4077 -0.4029 -0.3132
14992TIP3    H266468   1.291   1.014   6.257 -0.2984 -1.3747 -0.7711
14993TIP3   OH266469   6.094   5.560  16.447 -0.3837  0.0821  0.3533
14993TIP3    H166470   6.111   5.517  16.531  2.2613  1.5946  0.6951
14993TIP3    H266471   6.180   5.587  16.416 -1.6017  2.3994 -1.3064
14994TIP3   OH266472   5.170   0.357   2.733 -0.1419  0.1880  0.0033
14994TIP3    H166473   5.145   0.307   2.811 -0.2002 -0.3021 -0.3292
14994TIP3    H266474   5.102   0.424   2.724 -1.1326 -0.8628 -0.6487
14995TIP3   OH266475   2.372   1.643  13.765 -0.5868  0.1702  0.2434
14995TIP3    H166476   2.347   1.697  13.840 -0.7686  1.7084 -0.8832
14995TIP3    H266477   2.468   1.648  13.763 -0.5911  0.2771  0.2820
14996TIP3   OH266478   4.015   3.658  14.413  0.1092 -0.0278 -0.4720
14996TIP3    H166479   3.924   3.683  14.399 -0.6495 -0.7844  2.4887
14996TIP3    H266480   4.063   3.740  14.411 -0.9550  0.6214 -0.0202
14997TIP3   OH266481   1.055   1.331  12.026 -0.4762  0.1616  0.1412
14997TIP3    H166482   1.037   1.250  11.978 -0.5820  1.2560 -1.7541
14997TIP3    H266483   1.128   1.308  12.084 -1.4919 -1.6752  0.7556
14998TIP3   OH266484   5.304   2.625  12.520 -0.1780 -0.1122 -0.6969
14998TIP3    H166485   5.377   2.564  12.529 -0.1872 -0.1878 -1.0960
14998TIP3    H266486   5.315   2.688  12.592 -0.0501 -0.4607 -0.4120
14999TIP3   OH266487   6.483   2.036  16.869 -0.1012  0.9675 -0.6067
14999TIP3    H166488   6.525   2.032  16.955 -0.9879  1.0671 -0.1510
14999TIP3    H266489   6.389   2.042  16.889 -0.4639 -0.7805 -1.5982
15000TIP3   OH266490   2.654   1.242  13.804 -0.2975 -0.4886  0.0567
15000TIP3    H166491   2.588   1.257  13.736  0.2740  0.9237 -0.2267
15000TIP3    H266492   2.689   1.329  13.823  0.3680 -1.0087  1.3448
15001TIP3   OH266493   1.634   4.751   2.052  0.1566  0.0523  0.6591
15001TIP3    H166494   1.648   4.721   1.962 -2.1206  1.3726 -0.2175
15001TIP3    H266495   1.675   4.684   2.106  0.4929 -1.4436 -1.3322
15002TIP3   OH266496   1.708   4.857  16.161 -0.5101  0.0812 -0.0440
15002TIP3    H166497   1.678   4.847  16.252 -1.1327 -0.3158 -0.2819
15002TIP3    H266498   1.758   4.938  16.161  0.5310 -0.5368  0.9240
15003TIP3   OH266499   2.323   5.907   1.330  0.0152  0.3564 -0.3524
15003TIP3    H166500   2.296   5.980   1.275 -1.7975  0.6035  0.7471
15003TIP3    H266501   2.275   5.921   1.412  0.3129 -1.5809  0.1951
15004TIP3   OH266502   5.769   3.871   0.293 -0.2345  0.2398 -0.2448
15004TIP3    H166503   5.814   3.945   0.333 -0.5097  0.4831 -0.3819
15004TIP3    H266504   5.825   3.846   0.219 -0.3994  0.6362 -0.5040
15005TIP3   OH266505   0.105   5.115   5.581  0.3272 -0.1715  0.7789
15005TIP3    H166506   0.140   5.107   5.670 -0.1123 -0.0559  0.9638
15005TIP3    H266507   0.149   5.045   5.532  2.2983  1.1680  0.5126
15006TIP3   OH266508   4.084   2.416   5.430 -0.3829  0.6285  0.3919
15006TIP3    H166509   4.082   2.366   5.511  1.7580 -1.3896 -0.6743
15006TIP3    H266510   4.048   2.356   5.364  1.9272  0.5067 -0.8705
15007TIP3   OH266511   0.073   3.318   2.410 -0.0216  0.5639  0.4755
15007TIP3    H166512   0.128   3.338   2.486 -0.1869 -0.9675  1.0423
15007TIP3    H266513   0.080   3.395   2.354 -1.5944  2.6847  2.9865
15008TIP3   OH266514   5.376   1.900  11.697 -0.7410 -0.1848  0.2934
15008TIP3    H166515   5.285   1.926  11.682 -0.8296 -0.1675  0.8490
15008TIP3    H266516   5.369   1.823  11.753 -0.4948 -1.5452 -1.4675
15009TIP3   OH266517   1.298   0.484  11.270 -0.4624 -0.0499 -0.3110
15009TIP3    H166518   1.300   0.406  11.326  0.7483  0.9598  1.1350
15009TIP3    H266519   1.206   0.510  11.268 -0.5509 -0.1651  1.1659
15010TIP3   OH266520   2.534   3.882   5.311 -0.1163 -0.1795  0.2626
15010TIP3    H166521   2.536   3.811   5.247  0.1618 -0.9414  1.0946
15010TIP3    H266522   2.474   3.946   5.273 -1.6773 -1.5809  0.2041
15011TIP3   OH266523   4.162   0.867  13.298  0.3732 -0.1719  0.0839
15011TIP3    H166524   4.180   0.960  13.289 -3.0831  0.5278 -1.0394
15011TIP3    H266525   4.202   0.842  13.382  1.4736  2.2491  0.3414
15012TIP3   OH266526   5.278   6.600   3.719 -0.2689 -0.2108  0.2887
15012TIP3    H166527   5.346   6.656   3.758  0.4386 -0.7876 -0.0908
15012TIP3    H266528   5.225   6.661   3.668  1.0077  0.0274 -0.8203
15013TIP3   OH266529   3.137   6.379  17.095  0.8480 -0.2813  0.2340
15013TIP3    H166530   3.111   6.362  17.005  1.2489  0.4871 -0.0400
15013TIP3    H266531   3.056   6.372  17.145  0.0373  2.1167 -0.6041
15014TIP3   OH266532   6.838   1.415   0.061 -0.9024 -0.2169 -0.1834
15014TIP3    H166533   6.869   1.491   0.013 -2.0391  1.1366  1.1346
15014TIP3    H266534   6.906   1.348   0.047  0.4362  1.2305 -0.8509
15015TIP3   OH266535   5.429   3.054  13.779  0.2365 -0.2571 -0.2508
15015TIP3    H166536   5.380   3.121  13.825  0.8108  0.0339 -0.0467
15015TIP3    H266537   5.368   3.018  13.715 -0.3798 -0.2366  0.3216
15016TIP3   OH266538   5.887   3.403   3.109 -0.4829  0.0191 -0.2692
15016TIP3    H166539   5.942   3.345   3.058  1.9358  1.1196  0.9196
15016TIP3    H266540   5.869   3.355   3.190 -0.5529 -0.0026 -0.2970
15017TIP3   OH266541   4.340   5.463  15.139 -0.7064  0.3778 -0.4984
15017TIP3    H166542   4.399   5.479  15.066  0.8686  0.4722  0.7416
15017TIP3    H266543   4.302   5.548  15.159 -0.4843  0.5166 -0.6723
15018TIP3   OH266544   5.278   4.125  13.883  0.0032  0.1277  0.1527
15018TIP3    H166545   5.302   4.139  13.975  1.6585  0.0344 -0.2237
15018TIP3    H266546   5.314   4.038  13.863  1.0431  0.7862 -0.9735
15019TIP3   OH266547   5.690   2.766   3.751 -0.0700 -0.2182  1.0572
15019TIP3    H166548   5.717   2.858   3.747 -1.3755  0.2014  1.4986
15019TIP3    H266549   5.676   2.742   3.659 -1.3622  0.5508  1.0247
15020TIP3   OH266550   6.219   4.198   2.570 -0.1303 -0.0307  0.4168
15020TIP3    H166551   6.171   4.116   2.581  0.2510 -0.3328 -0.1467
15020TIP3    H266552   6.301   4.173   2.527 -0.9275  0.9096 -1.7751
15021TIP3   OH266553   5.754   4.023  16.077 -0.3217 -1.3537  0.0287
15021TIP3    H166554   5.678   3.970  16.053 -0.1335 -1.0437 -1.3171
15021TIP3    H266555   5.725   4.073  16.153 -1.4125 -1.3558 -0.3695
15022TIP3   OH266556   2.074   5.757  15.572  0.0290 -0.8476 -0.4550
15022TIP3    H166557   2.030   5.691  15.626 -1.2648  1.4850  1.5428
15022TIP3    H266558   2.124   5.810  15.634 -1.2299  1.7424 -1.4809
15023TIP3   OH266559   2.843   1.001  12.980  0.6232  0.5757 -0.5275
15023TIP3    H166560   2.938   0.988  12.988  0.4645  0.2643  1.6717
15023TIP3    H266561   2.812   0.997  13.071 -1.5844  0.0271 -1.2593
15024TIP3   OH266562   0.905   6.473  12.716  0.3843 -0.4504  0.9287
15024TIP3    H166563   0.891   6.502  12.806  0.2083  1.1944  0.4113
15024TIP3    H266564   0.992   6.508  12.693  0.4432 -0.8803  0.4683
15025TIP3   OH266565   3.231   4.017   0.095 -0.4106 -0.4292  0.6255
15025TIP3    H166566   3.309   3.976   0.057  0.2504 -0.4170  1.9243
15025TIP3    H266567   3.265   4.078   0.160 -1.4942  0.0064  0.8079
15026TIP3   OH266568   1.251   6.395  13.786  0.0366  0.0601 -0.0615
15026TIP3    H166569   1.170   6.434  13.820 -0.7716  0.1549 -1.9524
15026TIP3    H266570   1.263   6.316  13.838  1.0408  2.0672  3.0375
15027TIP3   OH266571   3.133   3.141  12.363  0.0789  0.1719  0.6178
15027TIP3    H166572   3.111   3.173  12.450  1.1535 -0.0084  0.9738
15027TIP3    H266573   3.178   3.058  12.378 -1.4089 -0.8234 -0.2242
15028TIP3   OH266574   4.239   4.805  15.534  0.3146 -0.1048 -0.5497
15028TIP3    H166575   4.246   4.893  15.497 -0.1051 -0.4135 -1.3771
15028TIP3    H266576   4.318   4.760  15.503  0.6792  0.0647  0.1193
15029TIP3   OH266577   1.699   3.506  15.072  0.7025  0.0065  0.2534
15029TIP3    H166578   1.793   3.516  15.081  0.5851  1.3496  0.2408
15029TIP3    H266579   1.673   3.448  15.144  1.5757 -0.6959  0.0112
15030TIP3   OH266580   2.528   2.871  17.077 -0.1888  0.5768  0.0019
15030TIP3    H166581   2.513   2.777  17.074 -0.0684  0.5150  0.9842
15030TIP3    H266582   2.451   2.906  17.123 -0.3146  0.9820 -0.5066
15031TIP3   OH266583   2.798   0.566  16.598  0.0059 -0.3177 -0.2681
15031TIP3    H166584   2.703   0.560  16.583  0.0039 -0.1079 -0.3382
15031TIP3    H266585   2.836   0.516  16.526  0.0569  1.9035 -1.8888
15032TIP3   OH266586   0.346   3.471  12.305 -0.1986 -0.3464 -0.6731
15032TIP3    H166587   0.340   3.422  12.223  0.6285  0.4214 -1.2130
15032TIP3    H266588   0.328   3.407  12.373  0.2739 -1.2618 -1.3987
15033TIP3   OH266589   4.204   4.430  12.375 -0.0936 -0.0758 -0.6800
15033TIP3    H166590   4.244   4.513  12.399  0.1579 -0.8198  1.7738
15033TIP3    H266591   4.153   4.405  12.452 -0.1257 -2.2101 -1.3328
15034TIP3   OH266592   5.472   1.261  16.630  0.2907  0.7239 -0.0118
15034TIP3    H166593   5.392   1.243  16.581 -0.2702  1.3777  0.6474
15034TIP3    H266594   5.518   1.177  16.632 -0.2811  0.3894 -0.5626
15035TIP3   OH266595   5.267   6.612  14.267 -0.8116 -0.5779 -0.1373
15035TIP3    H166596   5.180   6.629  14.302 -0.2034  3.3088 -0.0375
15035TIP3    H266597   5.326   6.624  14.342 -0.0618 -2.0823 -0.4416
15036TIP3   OH266598   0.507   6.308  11.574 -0.7207 -0.6368 -0.6478
15036TIP3    H166599   0.438   6.291  11.510  0.1183 -1.2392 -1.4121
15036TIP3    H266600   0.556   6.226  11.579  1.8583  0.6378 -2.4915
15037TIP3   OH266601   3.188   4.273   5.014  0.2306  0.0225  0.9609
15037TIP3    H166602   3.267   4.327   5.020  0.3619 -0.1086  0.5050
15037TIP3    H266603   3.159   4.284   4.923 -0.2177 -0.0094  1.1012
15038TIP3   OH266604   2.759   1.353  15.024  0.0063  0.1815  0.8529
15038TIP3    H166605   2.840   1.391  15.057  0.5118  0.7771 -0.9314
15038TIP3    H266606   2.786   1.303  14.947 -1.0957 -1.1198  1.2768
15039TIP3   OH266607   5.796   4.640  15.111 -0.3135 -0.3414 -0.6299
15039TIP3    H166608   5.756   4.563  15.151 -0.0774 -0.8304 -1.3075
15039TIP3    H266609   5.812   4.613  15.020  0.2241  0.3409 -0.7403
15040TIP3   OH266610   0.181   5.197   1.984 -0.1698  0.3951 -0.6920
15040TIP3    H166611   0.122   5.251   1.931 -0.4685  0.4627 -0.2950
15040TIP3    H266612   0.165   5.107   1.954  1.3257  0.6148 -2.3391
15041TIP3   OH266613   0.357   1.387   1.377 -0.1391  0.0079  0.0112
15041TIP3    H166614   0.351   1.456   1.443 -1.5266 -1.5359  1.6125
15041TIP3    H266615   0.438   1.340   1.398 -0.5740 -0.4763  0.6623
15042TIP3   OH266616   5.271   0.172   1.102 -0.0202  0.1801  0.0611
15042TIP3    H166617   5.296   0.187   1.011 -0.2752 -1.5437 -0.3457
15042TIP3    H266618   5.176   0.182   1.103  0.0309  0.6504  0.2414
15043TIP3   OH266619   3.858   2.729  11.527  0.2980 -0.0503  0.3287
15043TIP3    H166620   3.947   2.743  11.495  0.2175  0.6633  0.3864
15043TIP3    H266621   3.819   2.817  11.528  0.0510 -0.1595  1.6562
15044TIP3   OH266622   3.868   0.258  17.007 -0.4438  0.3024  0.2939
15044TIP3    H166623   3.780   0.254  16.970 -0.1085 -0.6451 -0.4373
15044TIP3    H266624   3.926   0.255  16.931  0.2348  0.1725  0.8088
15045TIP3   OH266625   1.870   1.967  11.019 -0.0128  0.3247 -0.8971
15045TIP3    H166626   1.816   2.015  10.955 -0.3516  1.0947 -0.0462
15045TIP3    H266627   1.815   1.961  11.097  0.9122  0.6005 -0.2067
15046TIP3   OH266628   6.641   4.835  15.121 -0.1224  0.2429  0.3314
15046TIP3    H166629   6.691   4.755  15.137 -0.1137  0.5895  2.3968
15046TIP3    H266630   6.698   4.905  15.153 -0.8570  0.8879  0.2527
15047TIP3   OH266631   6.672   4.950   2.907 -0.0736  0.1705 -0.2996
15047TIP3    H166632   6.581   4.961   2.933  0.1214 -0.3496  0.6097
15047TIP3    H266633   6.670   4.884   2.837 -0.5090  1.0151 -1.1077
15048TIP3   OH266634   5.879   2.873  14.550  0.0977 -0.7501  0.0742
15048TIP3    H166635   5.828   2.946  14.585  0.8435 -1.1664  2.1788
15048TIP3    H266636   5.814   2.809  14.523 -0.5311 -0.5206  0.9861
15049TIP3   OH266637   4.697   6.098   5.060 -0.0967 -0.2336 -0.3966
15049TIP3    H166638   4.654   6.047   5.128  1.9619 -1.1518  0.2769
15049TIP3    H266639   4.751   6.035   5.013  0.4160  0.8535 -1.3087
15050TIP3   OH266640   5.661   1.880   1.134  0.4935  0.5899  0.0991
15050TIP3    H166641   5.752   1.909   1.135  0.5387  0.4530  1.0906
15050TIP3    H266642   5.614   1.948   1.183 -0.0372  0.9386 -0.8595
15051TIP3   OH266643   4.000   3.451   1.992 -0.4209  0.5008 -0.0216
15051TIP3    H166644   3.990   3.500   1.910 -0.4300 -1.8921 -1.5712
15051TIP3    H266645   4.084   3.406   1.982 -1.7738 -2.1821 -0.1419
15052TIP3   OH266646   4.537   0.568  15.426 -0.0672 -0.0006 -0.1337
15052TIP3    H166647   4.514   0.588  15.336 -1.9944 -0.7738  0.1409
15052TIP3    H266648   4.454   0.546  15.468  0.7290  0.6168  1.9174
15053TIP3   OH266649   3.755   1.828  15.388 -0.6012  0.0717 -0.5155
15053TIP3    H166650   3.847   1.852  15.397 -1.5274  4.0771  0.1469
15053TIP3    H266651   3.737   1.837  15.295 -0.4709 -0.1837 -0.5675
15054TIP3   OH266652   0.946   2.824   2.854  0.2044  0.4976  0.3224
15054TIP3    H166653   0.954   2.916   2.829  0.3671  0.0032 -1.6047
15054TIP3    H266654   0.951   2.777   2.771  1.3185 -1.3308  1.3788
15055TIP3   OH266655   3.533   2.421   0.377  0.3129 -0.0848  0.2243
15055TIP3    H166656   3.589   2.458   0.446  0.9001 -0.2036 -0.1846
15055TIP3    H266657   3.570   2.335   0.360  0.4543  0.1296 -0.5690
15056TIP3   OH266658   2.129   2.053  13.449 -0.3925 -0.5094 -0.3699
15056TIP3    H166659   2.149   2.126  13.507 -0.7724 -1.2288  0.7038
15056TIP3    H266660   2.154   2.084  13.361  0.7916  0.3756  0.2445
15057TIP3   OH266661   1.563   5.946  10.386  0.7254 -0.3317 -0.4605
15057TIP3    H166662   1.539   6.034  10.356 -0.6275 -1.2200 -2.1444
15057TIP3    H266663   1.658   5.943  10.376  0.6094  0.3716 -2.0272
15058TIP3   OH266664   1.298   5.623  13.986  0.0179 -0.3215 -0.8912
15058TIP3    H166665   1.279   5.640  13.894  0.9867  0.1405 -1.0105
15058TIP3    H266666   1.290   5.708  14.029  0.7324 -0.3139 -0.7598
15059TIP3   OH266667   2.229   3.981   5.563 -0.0933 -0.5554  0.0013
15059TIP3    H166668   2.245   3.973   5.469  0.9841  2.9376 -0.2661
15059TIP3    H266669   2.316   3.996   5.601 -0.5072 -1.9067  1.6075
15060TIP3   OH266670   1.100   2.863  11.872  0.4374  0.4709 -0.6460
15060TIP3    H166671   1.114   2.837  11.781  2.0049  0.0121 -0.2932
15060TIP3    H266672   1.079   2.781  11.918  1.2751  0.4371 -0.3049
15061TIP3   OH266673   2.880   2.618   3.945  0.0703 -0.6995 -0.0594
15061TIP3    H166674   2.869   2.530   3.980  3.2280 -1.1274  0.0947
15061TIP3    H266675   2.895   2.673   4.022  4.4793 -1.2211 -0.3158
15062TIP3   OH266676   4.216   6.393  15.005  0.9076  0.3353 -0.0116
15062TIP3    H166677   4.200   6.367  15.095  1.7181 -0.3636 -0.0513
15062TIP3    H266678   4.150   6.347  14.954  1.4750 -0.6073  0.0682
15063TIP3   OH266679   3.171   0.773  15.644 -0.4875  0.5613 -0.1622
15063TIP3    H166680   3.101   0.783  15.709  0.1973 -4.2383  1.7622
15063TIP3    H266681   3.252   0.775  15.696  0.2009 -1.5574 -1.0420
15064TIP3   OH266682   1.424   5.699   4.004 -0.3850 -0.2072  0.2893
15064TIP3    H166683   1.338   5.719   3.967  0.4479  0.7197 -1.2503
15064TIP3    H266684   1.427   5.603   4.008 -0.8299 -0.3176 -1.3434
15065TIP3   OH266685   0.004   4.178  16.358  0.1530  0.2105 -0.0317
15065TIP3    H166686  -0.086   4.154  16.335  0.0511  1.1240 -0.6408
15065TIP3    H266687   0.056   4.101  16.333 -0.2904  0.2088 -0.9929
15066TIP3   OH266688   0.028   0.215  16.561 -0.3381 -0.1288  0.0892
15066TIP3    H166689   0.006   0.286  16.621  1.6665  0.1814  0.5127
15066TIP3    H266690   0.058   0.258  16.481 -0.8163 -0.5190 -0.3052
15067TIP3   OH266691   0.491   0.589  14.202  0.2719  0.4606 -0.1077
15067TIP3    H166692   0.432   0.614  14.274  1.6804 -0.7789  1.5699
15067TIP3    H266693   0.460   0.502  14.175  1.6191 -0.4969  1.2315
15068TIP3   OH266694   3.502   0.993  13.874  0.2013 -0.9424  0.3191
15068TIP3    H166695   3.581   1.045  13.890 -0.6522  0.5262 -0.0452
15068TIP3    H266696   3.510   0.965  13.783  0.7523 -1.6114  0.5709
15069TIP3   OH266697   1.015   2.387  16.211  0.3852  0.1960  0.0146
15069TIP3    H166698   1.102   2.348  16.223 -0.2250 -0.6886  2.0086
15069TIP3    H266699   0.969   2.367  16.292 -2.5725 -1.6321 -1.9180
15070TIP3   OH266700   1.715   2.715  14.101 -0.0908  0.5819  0.8015
15070TIP3    H166701   1.742   2.758  14.182  0.3835  2.7438 -0.4391
15070TIP3    H266702   1.670   2.784  14.051 -0.1005 -0.6113 -0.9138
15071TIP3   OH266703   4.183   2.159   2.200 -0.5534  0.2549 -0.0101
15071TIP3    H166704   4.238   2.085   2.224 -0.0675  0.5122 -0.3189
15071TIP3    H266705   4.097   2.120   2.180 -0.4347 -0.1656  0.2916
15072TIP3   OH266706   0.901   4.718  15.665 -0.1565 -0.1636 -0.0450
15072TIP3    H166707   0.909   4.624  15.678 -3.0725 -0.6114 -0.7503
15072TIP3    H266708   0.919   4.732  15.572  1.7536  0.2538  0.3457
15073TIP3   OH266709   2.553   5.240  14.279  0.3179 -0.0580 -0.7427
15073TIP3    H166710   2.535   5.323  14.236  0.8483 -0.4826 -1.8293
15073TIP3    H266711   2.609   5.262  14.354 -1.0534  0.7549  0.0770
15074TIP3   OH266712   2.112   4.390  15.177  0.0684  0.0935 -0.1101
15074TIP3    H166713   2.161   4.472  15.185 -0.2387  0.3487 -0.7893
15074TIP3    H266714   2.108   4.373  15.083 -0.8829 -0.0804 -0.0494
15075TIP3   OH266715   1.585   2.244   5.664 -0.6870 -0.0935  0.0275
15075TIP3    H166716   1.619   2.170   5.613 -0.0631  0.3288 -0.1732
15075TIP3    H266717   1.503   2.268   5.619  0.0242  0.4912 -0.9939
15076TIP3   OH266718   2.254   3.019  12.194 -0.2494  0.0750 -0.0274
15076TIP3    H166719   2.239   3.004  12.101  0.6981 -0.8983 -0.0542
15076TIP3    H266720   2.180   2.977  12.238  0.7774 -2.1128 -0.2538
15077TIP3   OH266721   0.788   6.472  14.936  0.2349 -0.2322 -0.2955
15077TIP3    H166722   0.753   6.497  14.851 -1.6162  0.0515  0.4940
15077TIP3    H266723   0.786   6.553  14.987  0.6715 -0.5467  0.2271
15078TIP3   OH266724   3.786   0.903  12.381 -0.3171 -0.7019  0.4001
15078TIP3    H166725   3.770   0.985  12.429  2.1288  0.7212 -1.0368
15078TIP3    H266726   3.832   0.847  12.444  1.5044  0.5694  0.2675
15079TIP3   OH266727   4.172   5.489  13.004  0.0752  0.6093 -0.8377
15079TIP3    H166728   4.257   5.459  12.972 -0.5762  0.3307 -2.3653
15079TIP3    H266729   4.185   5.502  13.098  1.0512 -2.1480 -0.5063
15080TIP3   OH266730   1.315   1.673   5.262  0.6150 -0.0958 -0.4831
15080TIP3    H166731   1.405   1.644   5.277  0.5211  0.1015  0.5188
15080TIP3    H266732   1.281   1.613   5.196  1.1071 -0.9043 -0.0149
15081TIP3   OH266733   2.782   4.561   1.464 -0.4161 -0.5815  0.0172
15081TIP3    H166734   2.850   4.554   1.397 -0.6903  0.9548 -0.4750
15081TIP3    H266735   2.742   4.474   1.466 -2.1179 -0.1155 -3.7442
15082TIP3   OH266736   1.313   3.239  12.050 -0.3083 -0.3522  0.5101
15082TIP3    H166737   1.368   3.314  12.072 -0.6201  0.0428 -0.0321
15082TIP3    H266738   1.371   3.181  12.001 -0.3245 -0.0061  0.0706
15083TIP3   OH266739   3.728   5.420   6.260 -0.0743 -0.4838 -0.4203
15083TIP3    H166740   3.633   5.415   6.251 -0.0275 -0.4888 -0.9639
15083TIP3    H266741   3.757   5.330   6.271 -0.2646 -0.3648  1.3274
15084TIP3   OH266742   3.054   2.482  12.193 -0.0144  0.9343  0.0859
15084TIP3    H166743   3.042   2.389  12.174  0.4185  0.8157  0.3782
15084TIP3    H266744   3.145   2.500  12.169  0.7863  0.6185  2.5472
15085TIP3   OH266745   2.637   2.570  11.916 -0.3728  0.0833  0.6635
15085TIP3    H166746   2.698   2.503  11.948  1.4860  0.3610 -2.0302
15085TIP3    H266747   2.552   2.542  11.949  0.4872 -3.0341  0.5168
15086TIP3   OH266748   1.490   0.985  13.844  0.0910 -0.1575  0.0310
15086TIP3    H166749   1.532   0.993  13.759  1.2266  1.5046  0.6935
15086TIP3    H266750   1.483   1.075  13.876 -0.3026 -0.7369  1.6973
15087TIP3   OH266751   0.530   5.661  12.248 -0.1983 -0.3274  0.3181
15087TIP3    H166752   0.506   5.591  12.187 -1.8237  0.5388 -0.0843
15087TIP3    H266753   0.539   5.738  12.192 -0.7795  0.2827  1.0543
15088TIP3   OH266754   4.563   0.739  15.979  0.2660 -0.4970  0.2571
15088TIP3    H166755   4.540   0.814  16.033  0.6426 -0.3634  0.2352
15088TIP3    H266756   4.645   0.706  16.016 -1.2062 -2.5632  1.9692
15089TIP3   OH266757   0.075   5.467   3.923 -0.2446  0.0229  0.0125
15089TIP3    H166758  -0.016   5.493   3.909  0.1740  0.7650 -1.5537
15089TIP3    H266759   0.069   5.389   3.978 -1.7015  1.4496  2.0239
15090TIP3   OH266760   5.570   4.246   0.173 -0.3797  0.1302 -0.6781
15090TIP3    H166761   5.579   4.179   0.106 -0.0780 -1.2200  0.6574
15090TIP3    H266762   5.487   4.289   0.153 -1.0353 -1.2584 -1.0382
15091TIP3   OH266763   0.089   3.687   1.424 -0.2151  0.0680  0.1120
15091TIP3    H166764   0.033   3.753   1.381  0.9061 -0.7905 -2.9623
15091TIP3    H266765   0.043   3.604   1.410  0.3084 -0.2707  0.3628
15092TIP3   OH266766   2.231   3.800  13.856  0.3714  0.9293 -0.3715
15092TIP3    H166767   2.289   3.837  13.922  1.6020 -0.1233 -0.8206
15092TIP3    H266768   2.179   3.735  13.903  1.2620  0.1661 -0.4084
15093TIP3   OH266769   0.505   4.916   1.232  0.2211  0.3461  0.7398
15093TIP3    H166770   0.470   4.829   1.251  1.0312  0.0769  1.0824
15093TIP3    H266771   0.502   4.922   1.136 -1.0882  0.4923  0.7758
15094TIP3   OH266772   4.674   0.456   2.478  0.6464  0.0271  0.7757
15094TIP3    H166773   4.729   0.492   2.408 -0.3398  1.7614  0.8354
15094TIP3    H266774   4.633   0.379   2.440  2.6674 -1.0013  0.5561
15095TIP3   OH266775   2.592   2.073   2.061 -0.1212 -0.7924  0.0294
15095TIP3    H166776   2.532   2.064   2.134 -1.1199  0.1857 -0.6545
15095TIP3    H266777   2.568   2.155   2.018 -0.3959 -1.9113 -2.1317
15096TIP3   OH266778   4.743   4.062   0.234 -0.0597  0.2341 -0.3986
15096TIP3    H166779   4.763   4.006   0.310 -0.8656 -0.7844 -0.9107
15096TIP3    H266780   4.777   4.148   0.258  1.7780 -0.6045  0.1717
15097TIP3   OH266781   6.361   5.202   1.731 -0.1981 -0.1266  0.5845
15097TIP3    H166782   6.369   5.179   1.638 -1.3238 -1.7627  0.8494
15097TIP3    H266783   6.270   5.228   1.743 -0.3050 -0.8230  1.3995
15098TIP3   OH266784   6.591   3.424   2.549 -0.8014  0.2442 -0.4147
15098TIP3    H166785   6.629   3.472   2.476 -1.0176  1.5269  0.3031
15098TIP3    H266786   6.537   3.357   2.508 -0.5619  0.6595 -1.4231
15099TIP3   OH266787   4.450   6.614   5.097  0.1058 -0.0433 -0.5576
15099TIP3    H166788   4.466   6.520   5.085 -1.0846 -0.4919  1.0018
15099TIP3    H266789   4.357   6.620   5.120  0.1418  1.5338 -0.6990
15100TIP3   OH266790   2.201   4.304   2.683  0.3471 -0.3617  0.1258
15100TIP3    H166791   2.134   4.237   2.670  1.8169 -2.3850  2.1806
15100TIP3    H266792   2.200   4.354   2.602 -1.8606 -1.9069 -0.9219
15101TIP3   OH266793   4.076   5.621   3.699 -0.5243  0.0870 -0.7374
15101TIP3    H166794   4.125   5.576   3.630  2.0755 -0.5778  1.3828
15101TIP3    H266795   4.025   5.552   3.741 -1.4258  0.3267 -1.4283
15102TIP3   OH266796   0.494   4.249  14.123 -0.6879 -0.1420 -0.8288
15102TIP3    H166797   0.503   4.182  14.055 -1.3756 -1.3665  0.2533
15102TIP3    H266798   0.573   4.302  14.114  0.4713 -1.8045 -0.9486
15103TIP3   OH266799   2.565   6.702  15.581 -0.2912 -0.2779 -0.0829
15103TIP3    H166800   2.584   6.687  15.488 -0.4143 -2.5950  0.2045
15103TIP3    H266801   2.642   6.747  15.615 -0.3269  0.7885 -1.3200
15104TIP3   OH266802   6.246   0.654  11.493 -0.1179  0.6518  0.1302
15104TIP3    H166803   6.328   0.652  11.543  0.1459 -1.1095 -0.2880
15104TIP3    H266804   6.181   0.686  11.554  0.6222  0.7023  0.9083
15105TIP3   OH266805   6.027   2.290  12.782 -0.2414  0.3009  0.0540
15105TIP3    H166806   5.976   2.346  12.723 -0.0218 -1.1523 -1.6196
15105TIP3    H266807   6.107   2.339  12.799  0.3564  0.1998 -2.1144
15106TIP3   OH266808   1.535   6.208  11.714  0.0172 -0.3271 -0.4337
15106TIP3    H166809   1.586   6.269  11.662  0.0661  0.2632  0.2960
15106TIP3    H266810   1.583   6.200  11.797 -0.9470  0.1034  0.1940
15107TIP3   OH266811   4.390   5.073   2.886  1.2050 -0.3712 -0.7558
15107TIP3    H166812   4.354   5.070   2.974 -0.9304 -0.8159 -1.5790
15107TIP3    H266813   4.415   5.165   2.873  0.0397  0.0357 -0.2331
15108TIP3   OH266814   5.605   0.908  16.088  0.1484 -0.1895  0.4902
15108TIP3    H166815   5.543   0.972  16.121 -0.3480 -0.4063  0.0139
15108TIP3    H266816   5.629   0.855  16.164  0.4853  0.4915  0.8612
15109TIP3   OH266817   6.656   1.465   2.001 -0.9923 -0.5712  0.3715
15109TIP3    H166818   6.659   1.509   1.916  0.2968  0.0292  0.7106
15109TIP3    H266819   6.637   1.534   2.064 -0.1478 -0.6987  0.7741
15110TIP3   OH266820   6.344   0.519   1.313 -0.1670 -0.1268 -0.4869
15110TIP3    H166821   6.299   0.594   1.351 -0.4010  0.7644 -2.4118
15110TIP3    H266822   6.429   0.517   1.358 -1.4805 -0.9862  2.1727
15111TIP3   OH266823   0.590   5.709   1.204 -0.0514 -0.3367 -0.1552
15111TIP3    H166824   0.598   5.662   1.287 -1.3619 -1.2109 -0.4720
15111TIP3    H266825   0.655   5.668   1.147 -0.2301 -0.8319 -0.0135
15112TIP3   OH266826   4.270   1.310  11.372  0.7085  0.1273  0.3678
15112TIP3    H166827   4.199   1.254  11.403  1.8013 -1.0895  0.7776
15112TIP3    H266828   4.343   1.291  11.431  2.0455 -0.2753 -1.3346
15113TIP3   OH266829   4.911   6.643   0.389 -0.2666  0.4795 -0.5676
15113TIP3    H166830   4.824   6.610   0.369 -1.0010  2.2878 -0.5115
15113TIP3    H266831   4.938   6.593   0.466 -1.5803  0.4145 -0.1184
15114TIP3   OH266832   2.010   0.502  13.565  0.2523  0.1095 -0.0379
15114TIP3    H166833   1.916   0.502  13.584  0.1744  0.5144 -0.4206
15114TIP3    H266834   2.051   0.507  13.651 -0.0863  0.6569  0.1002
15115TIP3   OH266835   1.316   0.125  14.414 -0.8952 -0.2482  0.2253
15115TIP3    H166836   1.373   0.083  14.478  1.5068  0.8121 -1.0555
15115TIP3    H266837   1.228   0.116  14.449  0.0025 -2.3370  2.1378
15116TIP3   OH266838   5.818   5.079   0.449  0.4517 -0.1013 -0.0215
15116TIP3    H166839   5.871   5.149   0.412 -0.8074 -0.1323 -2.0560
15116TIP3    H266840   5.749   5.124   0.499  1.2306 -0.0188  1.0238
15117TIP3   OH266841   3.071   2.676  12.592  0.7533  0.0617 -0.6635
15117TIP3    H166842   3.058   2.682  12.498  0.4793 -0.9178 -0.6990
15117TIP3    H266843   2.982   2.681  12.629  0.6873 -1.2196 -0.5781
15118TIP3   OH266844   1.291   0.715  15.444 -0.5298 -0.1386 -0.4492
15118TIP3    H166845   1.281   0.690  15.352 -0.5770 -1.5777 -0.0778
15118TIP3    H266846   1.202   0.725  15.477 -0.6325 -2.3450  0.1079
15119TIP3   OH266847   4.503   3.022  16.004 -0.1271  0.1617  0.0019
15119TIP3    H166848   4.520   2.935  15.969  0.8231  1.0725 -1.9492
15119TIP3    H266849   4.450   3.066  15.937 -3.9727 -0.0442  2.5857
15120TIP3   OH266850   4.490   2.387  11.417 -0.3207 -0.1118  0.1930
15120TIP3    H166851   4.497   2.471  11.373 -1.0240 -0.1933 -0.0854
15120TIP3    H266852   4.527   2.324  11.355  0.5248  0.0199  0.5394
15121TIP3   OH266853   6.464   1.145   5.961  0.0093  0.8960 -0.4958
15121TIP3    H166854   6.445   1.181   6.048 -1.3841 -1.5054  0.2900
15121TIP3    H266855   6.391   1.087   5.943  0.4404  1.0550 -3.1822
15122TIP3   OH266856   2.565   0.883   2.071 -0.5164  0.0645  0.2507
15122TIP3    H166857   2.605   0.943   2.134  0.0934 -0.3195  0.2340
15122TIP3    H266858   2.526   0.814   2.126  0.5816 -0.6221  0.2064
15123TIP3   OH266859   0.627   5.016  13.104 -0.1051 -0.1896  0.4826
15123TIP3    H166860   0.605   4.938  13.155 -0.3300  0.4639  1.4310
15123TIP3    H266861   0.677   5.071  13.165 -0.9222  0.8927  0.2106
15124TIP3   OH266862   0.883   2.041   6.043  0.6036  0.3248 -0.2934
15124TIP3    H166863   0.790   2.066   6.042 -0.3859 -2.6841  2.1836
15124TIP3    H266864   0.919   2.082   5.965 -2.8146  1.5474 -1.4205
15125TIP3   OH266865   2.874   3.807   5.201 -0.3600  0.2818 -0.5032
15125TIP3    H166866   2.815   3.784   5.272  1.1926 -0.1848  0.6842
15125TIP3    H266867   2.960   3.812   5.242  0.6366 -0.3381 -2.4071
15126TIP3   OH266868   1.775   1.969  15.633  0.8802  0.2187  0.0206
15126TIP3    H166869   1.846   1.932  15.581  1.2401 -0.3443  0.8978
15126TIP3    H266870   1.697   1.953  15.580  1.4029  0.9126 -0.9854
15127TIP3   OH266871   5.194   1.045   1.764  0.2624 -0.1496 -0.4234
15127TIP3    H166872   5.244   0.964   1.752 -1.5490 -1.0966 -2.3171
15127TIP3    H266873   5.255   1.114   1.739  0.9385 -1.1924 -1.8476
15128TIP3   OH266874   1.794   6.280  14.295  0.6667  0.3023  0.3620
15128TIP3    H166875   1.828   6.258  14.382 -1.5689 -0.4802  1.0987
15128TIP3    H266876   1.791   6.376  14.294  0.3551  0.3077  1.2969
15129TIP3   OH266877   1.294   0.227   5.982 -0.2963  0.0559  0.4635
15129TIP3    H166878   1.357   0.166   6.021 -3.2052 -2.4436  1.6466
15129TIP3    H266879   1.270   0.186   5.899  0.3273  1.5185 -0.4704
15130TIP3   OH266880   1.915   4.092  15.392  0.3612  0.5403  0.0124
15130TIP3    H166881   1.868   4.010  15.408  0.5377 -0.2556 -2.8276
15130TIP3    H266882   1.864   4.159  15.438 -1.2507 -0.8408  0.3457
15131TIP3   OH266883   3.956   3.295   3.581  0.3047 -0.2516  0.2758
15131TIP3    H166884   3.903   3.258   3.652 -1.2323 -1.8341 -1.5747
15131TIP3    H266885   3.892   3.340   3.525  1.0084 -1.4283 -1.5437
15132TIP3   OH266886   3.911   0.887  16.681  0.8997 -0.4639 -0.1522
15132TIP3    H166887   3.906   0.933  16.765  0.8465 -2.1864  0.8402
15132TIP3    H266888   3.839   0.823  16.685  2.2408 -2.0573 -0.5577
15133TIP3   OH266889   3.855   1.282  14.269  0.3603 -0.1737  0.1171
15133TIP3    H166890   3.764   1.292  14.241 -0.1633 -0.2954  1.6870
15133TIP3    H266891   3.907   1.318  14.197 -0.8497 -1.6239 -1.5517
15134TIP3   OH266892   6.572   1.949  12.958 -0.3718  0.0305  0.2149
15134TIP3    H166893   6.494   1.918  12.911  0.5028 -0.7119 -0.7930
15134TIP3    H266894   6.640   1.887  12.934  0.1036 -0.4806  2.6210
15135TIP3   OH266895   5.448   6.607   4.378 -0.3634  0.2562  0.4030
15135TIP3    H166896   5.424   6.689   4.421 -1.8120  0.2519 -0.3258
15135TIP3    H266897   5.431   6.623   4.285  2.5088  0.2179 -0.2480
15136TIP3   OH266898   4.957   2.094   5.651  0.4349  0.6094 -0.1381
15136TIP3    H166899   4.922   2.104   5.563 -0.1170  1.0723  0.1289
15136TIP3    H266900   4.990   2.180   5.675  0.4625  0.5190  0.1577
15137TIP3   OH266901   1.241   0.470  13.766  0.8570 -0.1060 -0.6493
15137TIP3    H166902   1.313   0.440  13.711  0.5355  2.2051 -2.5207
15137TIP3    H266903   1.162   0.449  13.716  0.4812  0.7929 -0.4597
15138TIP3   OH266904   4.389   6.707  11.773 -0.0013  0.1227  0.3864
15138TIP3    H166905   4.375   6.712  11.868 -0.7189  0.1755  0.2851
15138TIP3    H266906   4.377   6.797  11.743 -0.6587 -0.0490  0.1315
15139TIP3   OH266907   5.540   3.585   5.454 -0.6397  0.3547  0.3495
15139TIP3    H166908   5.469   3.525   5.477 -1.0099 -0.4169 -2.3929
15139TIP3    H266909   5.496   3.670   5.445 -0.8684  0.2474  0.4236
15140TIP3   OH266910   5.115   5.120  11.439  0.2238  0.4976 -0.1867
15140TIP3    H166911   5.180   5.074  11.386  0.7136 -0.6412  1.3235
15140TIP3    H266912   5.167   5.172  11.501 -0.2289 -0.7040  1.2726
15141TIP3   OH266913   1.917   2.203   2.967  0.1323 -0.0029 -0.5477
15141TIP3    H166914   1.822   2.215   2.964  0.2916  1.5417 -0.0262
15141TIP3    H266915   1.952   2.276   2.916  1.0907  0.4180  0.6594
15142TIP3   OH266916   0.121   0.409   5.656 -0.4710  0.1243 -0.3865
15142TIP3    H166917   0.148   0.398   5.565  0.5110 -1.1740  0.0255
15142TIP3    H266918   0.027   0.390   5.655 -0.8361  1.7900 -1.3717
15143TIP3   OH266919   5.155   1.558  11.399 -0.5552  0.0264  0.3337
15143TIP3    H166920   5.193   1.479  11.362  0.0297 -1.4121  3.6016
15143TIP3    H266921   5.225   1.623  11.392 -0.2243 -0.3917 -0.3779
15144TIP3   OH266922   5.805   1.264  15.917  0.0086  0.0999  0.0704
15144TIP3    H166923   5.719   1.284  15.954  0.5610  0.1797  1.3799
15144TIP3    H266924   5.790   1.257  15.823 -1.6256 -0.9788  0.3795
15145TIP3   OH266925   0.933   0.643  15.183 -0.4036 -0.1064 -0.0834
15145TIP3    H166926   0.847   0.603  15.174 -1.2760  1.1420  1.9770
15145TIP3    H266927   0.972   0.600  15.260  1.5452 -1.7468 -1.8362
15146TIP3   OH266928   3.708   6.804   0.896 -0.3623 -0.7031 -0.9861
15146TIP3    H166929   3.714   6.895   0.923 -1.8772 -1.0802  0.8578
15146TIP3    H266930   3.798   6.779   0.875  0.5005  0.5251  0.9354
15147TIP3   OH266931   6.289   5.972  13.998 -0.2076  0.4790 -0.8013
15147TIP3    H166932   6.352   6.044  14.001  1.2156 -0.6553 -1.8565
15147TIP3    H266933   6.318   5.918  13.924 -0.1295 -2.1473  1.0189
15148TIP3   OH266934   6.040   2.081   5.111  0.0452 -0.1763 -0.6857
15148TIP3    H166935   5.979   2.069   5.038 -1.2035  1.1811  0.0903
15148TIP3    H266936   6.102   2.008   5.102 -0.9470 -0.8927 -2.2138
15149TIP3   OH266937   0.799   3.994  12.982 -0.4223  0.1282  0.5268
15149TIP3    H166938   0.712   4.014  12.946 -0.6365 -0.1641  0.8763
15149TIP3    H266939   0.839   3.937  12.917 -0.2065  0.8427  0.0132
15150TIP3   OH266940   1.941   1.807   1.680 -0.1417 -0.2581  0.4071
15150TIP3    H166941   1.910   1.766   1.599 -0.2949 -0.3013  0.4876
15150TIP3    H266942   2.015   1.861   1.652  0.0093 -0.5258  0.2886
15151TIP3   OH266943   3.056   1.292  13.023  0.7871 -0.2754  0.7278
15151TIP3    H166944   3.058   1.244  12.940 -2.1893  1.9878 -0.8443
15151TIP3    H266945   3.136   1.343  13.024  1.1434 -0.7823 -0.4760
15152TIP3   OH266946   1.209   2.498   0.130  0.3734 -0.0710 -0.3430
15152TIP3    H166947   1.223   2.444   0.052  0.0564 -0.3800 -0.1851
15152TIP3    H266948   1.255   2.580   0.110 -1.9571  0.9644 -2.0113
15153TIP3   OH266949   1.633   3.503   1.745 -0.5185  0.3574 -0.1604
15153TIP3    H166950   1.609   3.575   1.803  0.3201  0.1998  0.3935
15153TIP3    H266951   1.645   3.428   1.803  0.8630  0.3279 -0.4452
15154TIP3   OH266952   0.043   4.097  13.110  0.2275  0.7249  0.3123
15154TIP3    H166953  -0.040   4.144  13.099 -0.1199  0.3725  1.3493
15154TIP3    H266954   0.019   4.005  13.104  0.8283  0.6299 -1.1820
15155TIP3   OH266955   0.475   2.238   2.449 -0.0594  0.1938  0.1418
15155TIP3    H166956   0.437   2.269   2.367  0.3692 -3.1295 -1.4637
15155TIP3    H266957   0.402   2.240   2.511 -1.5521 -1.1128 -1.4751
15156TIP3   OH266958   0.595   1.928   2.231 -0.3941  0.0474  0.2938
15156TIP3    H166959   0.634   1.841   2.223  0.0031  0.1517  1.0152
15156TIP3    H266960   0.535   1.922   2.306 -2.0079 -0.1874 -0.9716
15157TIP3   OH266961   1.972   3.717   1.242  0.1494  0.6856 -0.1595
15157TIP3    H166962   1.952   3.757   1.157  2.0735  0.5060 -0.7453
15157TIP3    H266963   1.982   3.624   1.223 -0.4305  0.4902  0.4681
15158TIP3   OH266964   2.986   1.958  14.168 -0.1387  0.1013 -0.3808
15158TIP3    H166965   2.917   1.938  14.104 -1.1668  0.5550  0.5563
15158TIP3    H266966   3.006   1.874  14.209 -1.1697  0.1791  0.3323
15159TIP3   OH266967   0.789   6.774   4.889 -0.4424 -0.0840 -0.2306
15159TIP3    H166968   0.764   6.814   4.806  1.0772  0.1126 -0.6172
15159TIP3    H266969   0.846   6.702   4.865  0.9545  0.6783  0.6558
15160TIP3   OH266970   4.860   3.110  13.612 -0.3740  0.4996  0.2960
15160TIP3    H166971   4.812   3.034  13.580 -1.2245  0.4399  1.6354
15160TIP3    H266972   4.795   3.163  13.657  0.6749  0.7687  1.5595
15161TIP3   OH266973   4.968   6.711   5.404 -0.3096  0.4236  0.5827
15161TIP3    H166974   4.957   6.616   5.410  1.3262  0.2174  0.9418
15161TIP3    H266975   4.934   6.734   5.318  0.1603 -0.6588  0.0865
15162TIP3   OH266976   6.579   3.969  10.621 -0.0294  0.1670  0.1433
15162TIP3    H166977   6.502   3.932  10.579  0.6560  1.2227 -2.2596
15162TIP3    H266978   6.579   4.061  10.594  1.6568  0.3694  0.7116
15163TIP3   OH266979   0.669   2.651  13.417  0.1578  0.4265 -0.1682
15163TIP3    H166980   0.626   2.646  13.331  0.2231 -0.9498 -0.1383
15163TIP3    H266981   0.668   2.744  13.439 -0.7527  0.6809 -1.2141
15164TIP3   OH266982   6.076   1.319  15.456  0.5142 -0.0807 -0.1863
15164TIP3    H166983   6.073   1.225  15.475  2.1173 -0.2091 -0.4031
15164TIP3    H266984   6.145   1.328  15.391 -0.4263  1.1314 -1.0601
15165TIP3   OH266985   3.679   3.926   2.988  0.0210 -0.0086  0.3475
15165TIP3    H166986   3.625   4.001   3.013  0.4711  0.5298 -0.2850
15165TIP3    H266987   3.644   3.854   3.041 -0.4099  0.6376  0.9702
15166TIP3   OH266988   5.808   1.047  11.671 -0.2127 -0.2316  0.0864
15166TIP3    H166989   5.798   1.070  11.763 -1.9440  0.9717 -0.3620
15166TIP3    H266990   5.721   1.061  11.633  0.5183 -0.4842 -1.7825
15167TIP3   OH266991   1.409   1.731   4.187  0.0419  0.1075 -0.1312
15167TIP3    H166992   1.446   1.777   4.111  0.1717  0.4165  0.1213
15167TIP3    H266993   1.371   1.800   4.241  0.5095 -0.0489  0.3994
15168TIP3   OH266994   3.590   3.639   1.436 -0.2779  0.0259  0.2640
15168TIP3    H166995   3.638   3.706   1.485 -1.3722  0.7959  0.3095
15168TIP3    H266996   3.599   3.665   1.345 -0.3181 -0.0292  0.2443
15169TIP3   OH266997   3.882   3.802  16.450 -0.3469 -0.1994  0.6667
15169TIP3    H166998   3.977   3.792  16.440 -0.3473  0.3251 -0.0242
15169TIP3    H266999   3.871   3.847  16.533 -0.0292 -0.7967  1.0378
15170TIP3   OH267000   6.460   1.311  14.052  0.7879  0.1165  0.5975
15170TIP3    H167001   6.536   1.365  14.033  0.6717  0.3182  0.7045
15170TIP3    H267002   6.424   1.347  14.133 -0.3729  1.0874 -0.2961
15171TIP3   OH267003   4.847   0.900   4.995  0.1760  0.2652 -0.1180
15171TIP3    H167004   4.881   0.882   4.907 -1.6258 -0.2468 -0.7669
15171TIP3    H267005   4.829   0.813   5.031 -2.9118  0.4428 -0.9037
15172TIP3   OH267006   6.533   4.912   4.050 -0.1367 -0.1199  0.0974
15172TIP3    H167007   6.555   4.937   3.960  1.3063  1.2952  0.7847
15172TIP3    H267008   6.443   4.942   4.061 -0.2051  0.0320 -0.7584
15173TIP3   OH267009   0.656   5.010   2.016 -0.1030 -0.1091 -0.1671
15173TIP3    H167010   0.671   4.923   1.981 -2.2344 -0.3378 -0.6324
15173TIP3    H267011   0.658   5.068   1.940 -0.2074  0.0331 -0.0637
15174TIP3   OH267012   6.551   4.268  16.902  0.3088 -0.3962  0.0601
15174TIP3    H167013   6.632   4.309  16.873  0.7419 -0.8758  0.5723
15174TIP3    H267014   6.577   4.210  16.974 -0.6441  0.3609  1.0599
15175TIP3   OH267015   1.838   0.602   0.308 -0.0942 -0.0632  0.1274
15175TIP3    H167016   1.839   0.532   0.373 -1.0628 -0.3892 -0.1837
15175TIP3    H267017   1.840   0.683   0.359  0.2288 -0.3156  0.5182
15176TIP3   OH267018   5.438   5.754   6.307  0.5420 -0.8650 -0.2153
15176TIP3    H167019   5.380   5.808   6.255 -1.4991 -1.4269  1.3398
15176TIP3    H267020   5.406   5.665   6.296  2.4853 -1.5265 -1.0036
15177TIP3   OH267021   5.313   3.631  11.266  0.1664 -0.1089 -0.7551
15177TIP3    H167022   5.307   3.709  11.321  0.1258 -0.5589 -0.1214
15177TIP3    H267023   5.380   3.653  11.201  0.7476  0.1598 -0.0806
15178TIP3   OH267024   5.361   1.112   4.492  0.2702  0.0146  0.3075
15178TIP3    H167025   5.302   1.107   4.417 -1.2036 -0.1826  1.4314
15178TIP3    H267026   5.424   1.041   4.478  1.2546  1.1873 -1.6935
15179TIP3   OH267027   6.572   0.772   2.312  0.6188 -0.2969  0.1024
15179TIP3    H167028   6.485   0.776   2.271  0.8876 -0.1825 -0.4732
15179TIP3    H267029   6.632   0.758   2.238  1.3065  1.7421  0.2127
15180TIP3   OH267030   6.664   6.424  12.954 -0.1994 -0.0100  0.0426
15180TIP3    H167031   6.605   6.411  12.879  1.7599 -0.1075 -1.5659
15180TIP3    H267032   6.680   6.335  12.988  0.3258 -0.1669 -0.5945
15181TIP3   OH267033   0.326   5.025  13.489  0.0112 -0.6059 -0.3441
15181TIP3    H167034   0.373   4.943  13.505  0.9411 -0.0162  0.0436
15181TIP3    H267035   0.369   5.089  13.546 -2.5142 -0.4281  1.5363
15182TIP3   OH267036   3.665   2.665   0.489  0.6400 -0.4403  0.2583
15182TIP3    H167037   3.717   2.742   0.466 -0.8157  0.5478  0.1189
15182TIP3    H267038   3.588   2.701   0.534 -0.0099 -1.8296  0.3041
15183TIP3   OH267039   4.091   0.607  17.086  0.4355 -0.0128  0.2204
15183TIP3    H167040   3.997   0.612  17.069  0.5217  0.1351 -0.2241
15183TIP3    H267041   4.130   0.670  17.025  0.7896  0.2306  0.6881
15184TIP3   OH267042   0.670   5.166   1.076  1.1010  0.0267 -0.4587
15184TIP3    H167043   0.721   5.217   1.013 -0.5495  2.3088 -0.0956
15184TIP3    H267044   0.714   5.081   1.080  1.9594  0.1797 -3.7749
15185TIP3   OH267045   0.180   4.386  16.330  0.7788  0.1046 -0.3249
15185TIP3    H167046   0.248   4.332  16.289  1.3250  1.4550 -1.2722
15185TIP3    H267047   0.103   4.329  16.333  1.3831 -0.7879 -1.1122
15186TIP3   OH267048   1.644   3.498   4.795  1.0091  0.4165 -0.2051
15186TIP3    H167049   1.574   3.564   4.793  1.6540  1.1243  0.2307
15186TIP3    H267050   1.684   3.508   4.881  1.9019  0.2808 -0.5956
15187TIP3   OH267051   2.769   0.960  13.246 -0.5153 -0.6004  0.2527
15187TIP3    H167052   2.733   1.024  13.308 -0.8391 -2.2296  1.8610
15187TIP3    H267053   2.721   0.879  13.266 -0.2967 -1.3078 -1.8704
15188TIP3   OH267054   1.203   4.483   2.000 -0.1980  0.7883  0.3828
15188TIP3    H167055   1.154   4.411   2.041  0.9126  0.1971  0.6966
15188TIP3    H267056   1.295   4.464   2.019  0.2189  1.4999 -0.8119
15189TIP3   OH267057   5.962   1.080   5.176  0.3046  0.4474  0.1753
15189TIP3    H167058   5.871   1.097   5.153  0.1016 -0.9233 -0.1362
15189TIP3    H267059   5.959   1.001   5.231  1.3010  0.4092  0.1990
15190TIP3   OH267060   4.373   1.169  11.164 -0.2105 -0.2217 -0.5260
15190TIP3    H167061   4.374   1.224  11.242 -0.8655  0.3276 -0.8982
15190TIP3    H267062   4.317   1.215  11.102 -0.2336 -0.9773 -1.0875
15191TIP3   OH267063   2.950   4.839   4.122 -0.1614  0.2594 -0.3277
15191TIP3    H167064   2.916   4.795   4.201  0.8153 -0.3929 -0.2616
15191TIP3    H267065   2.910   4.926   4.125 -4.1656 -1.2943 -1.7555
15192TIP3   OH267066   6.718   5.888  15.096  0.0307  0.4233 -0.0876
15192TIP3    H167067   6.644   5.863  15.041  0.5929 -0.4090 -0.4900
15192TIP3    H267068   6.709   5.833  15.175  0.4758 -0.0336 -0.3488
15193TIP3   OH267069   2.731   4.736   3.010  0.4240  0.3204 -0.0525
15193TIP3    H167070   2.677   4.676   2.958 -0.0156  1.0830 -0.4979
15193TIP3    H267071   2.804   4.759   2.952  1.2756 -0.7498  0.5679
15194TIP3   OH267072   6.552   3.271  16.116 -0.0266 -0.3739  0.7220
15194TIP3    H167073   6.538   3.209  16.045 -0.1049  0.1431  0.2764
15194TIP3    H267074   6.631   3.240  16.160  0.8174  0.0652 -0.4354
15195TIP3   OH267075   6.210   2.020  14.484 -0.0520 -0.0950  0.2046
15195TIP3    H167076   6.137   2.026  14.546 -0.0669  1.2122  0.0868
15195TIP3    H267077   6.249   1.934  14.501 -1.4233 -0.6859  0.4857
15196TIP3   OH267078   0.999   5.000   2.328  0.3051 -0.0525 -0.0579
15196TIP3    H167079   0.962   4.964   2.247  0.2677  0.0647 -0.0945
15196TIP3    H267080   1.088   4.966   2.331 -0.5335 -2.3570  1.3039
15197TIP3   OH267081   2.858   4.985  16.455  0.4784 -0.2548  0.4224
15197TIP3    H167082   2.934   4.995  16.512  0.7758 -1.4363  0.2627
15197TIP3    H267083   2.881   4.913  16.397  0.4482  1.2929 -1.6344
15198TIP3   OH267084   5.729   2.106  12.089  0.1459 -0.0779 -0.0919
15198TIP3    H167085   5.801   2.106  12.025  0.1821 -0.0039 -0.0513
15198TIP3    H267086   5.739   2.023  12.136 -1.1041 -1.1070 -1.5572
15199TIP3   OH267087   4.988   1.030  13.462 -0.0007  0.1765  0.2831
15199TIP3    H167088   4.928   1.051  13.532 -0.5023  0.7739 -0.3175
15199TIP3    H267089   4.993   0.934  13.462 -2.7386 -0.0587 -1.0903
15200TIP3   OH267090   2.044   0.625  15.721  0.3534 -0.2066 -0.0043
15200TIP3    H167091   2.040   0.551  15.782  0.5091  0.0231  0.2895
15200TIP3    H267092   1.977   0.685  15.752  2.2611  1.2019  1.6801
15201TIP3   OH267093   5.124   1.605  14.828 -0.3757  0.8403  0.4018
15201TIP3    H167094   5.042   1.571  14.793 -0.7540  1.1646  0.9631
15201TIP3    H267095   5.127   1.573  14.918  1.0364 -0.7825 -0.1503
15202TIP3   OH267096   6.394   5.903  12.572  0.4287 -0.2684 -0.5032
15202TIP3    H167097   6.464   5.853  12.531  1.3108  0.6317 -0.1278
15202TIP3    H267098   6.383   5.980  12.516  1.6666  0.9900  0.9075
15203TIP3   OH267099   6.083   5.178  15.979  0.2835 -0.2803 -0.0708
15203TIP3    H167100   6.133   5.151  16.056 -0.9795 -2.5376  0.0383
15203TIP3    H267101   6.004   5.125  15.982 -0.7810  1.1004 -1.8200
15204TIP3   OH267102   6.738   3.262   0.671 -0.1518 -0.1210  0.1849
15204TIP3    H167103   6.769   3.309   0.748 -1.6310 -0.0015  0.7465
15204TIP3    H267104   6.781   3.305   0.597  1.6367 -0.5238  0.9434
15205TIP3   OH267105   2.939   1.857  16.354 -0.1767 -0.0258  0.1057
15205TIP3    H167106   2.913   1.800  16.426 -2.3518 -0.6489 -1.0806
15205TIP3    H267107   2.882   1.934  16.363 -0.4887 -0.1187 -0.9189
15206TIP3   OH267108   1.879   0.219   4.541  0.2319  0.1411 -0.0764
15206TIP3    H167109   1.943   0.148   4.538  1.6859  1.3548  0.1949
15206TIP3    H267110   1.845   0.217   4.630 -0.8296 -1.0734 -0.4789
15207TIP3   OH267111   0.885   1.876  15.152  0.0248  0.3763  0.5274
15207TIP3    H167112   0.808   1.918  15.116 -1.2330 -2.3028 -0.1752
15207TIP3    H267113   0.904   1.924  15.233 -1.2636  2.1859 -0.1940
15208TIP3   OH267114   2.939   1.940   3.506 -1.1008 -0.0966 -0.0423
15208TIP3    H167115   2.931   2.013   3.444  0.7940 -0.2446 -0.5142
15208TIP3    H267116   2.957   1.982   3.590 -1.5819  0.0170  0.0102
15209TIP3   OH267117   3.805   4.786   2.729  0.3643  0.5018 -0.0980
15209TIP3    H167118   3.806   4.803   2.635 -1.2945 -0.1711 -0.2594
15209TIP3    H267119   3.753   4.857   2.766  0.0581  0.1346  0.1753
15210TIP3   OH267120   1.926   1.001   3.515  0.7739  0.0914  0.0025
15210TIP3    H167121   1.990   0.965   3.454 -0.8288 -1.8904 -0.6184
15210TIP3    H267122   1.841   0.976   3.478 -0.4572  2.9931  0.5324
15211TIP3   OH267123   2.910   5.598   5.176  0.2912  0.0758 -0.7015
15211TIP3    H167124   2.888   5.520   5.226  0.5133  0.2489 -0.3301
15211TIP3    H267125   2.920   5.567   5.086  0.8966 -0.4128 -0.4687
15212TIP3   OH267126   1.544   2.585  16.883 -0.2369  0.6268  0.6857
15212TIP3    H167127   1.489   2.612  16.957 -1.1478 -0.6939  0.5120
15212TIP3    H267128   1.497   2.616  16.806  0.4879  1.6014  0.6144
15213TIP3   OH267129   3.618   1.656   2.029 -0.0476  0.1846 -0.3233
15213TIP3    H167130   3.572   1.601   1.965 -2.7824  2.2229 -0.2458
15213TIP3    H267131   3.551   1.712   2.067  2.2589  2.2712  1.0203
15214TIP3   OH267132   6.642   6.860   0.983  0.4665  0.0276  0.7049
15214TIP3    H167133   6.572   6.810   0.941 -0.3686  1.5349  0.2168
15214TIP3    H267134   6.618   6.952   0.968  1.7566  0.5889  1.8603
15215TIP3   OH267135   1.597   4.742   5.610 -0.0045 -0.0024 -0.0949
15215TIP3    H167136   1.574   4.724   5.701  0.8259  1.0784  0.3542
15215TIP3    H267137   1.693   4.750   5.611  0.0584 -0.4033 -1.1499
15216TIP3   OH267138   4.437   4.035   1.648  0.5126 -0.0447 -0.2449
15216TIP3    H167139   4.455   4.095   1.720 -0.2290 -1.9712  1.6508
15216TIP3    H267140   4.521   4.028   1.602  0.6977  2.1608 -0.3866
15217TIP3   OH267141   1.219   1.325   6.114  0.0594 -0.4753  0.1058
15217TIP3    H167142   1.201   1.392   6.180 -0.3976 -0.4994  0.0128
15217TIP3    H267143   1.201   1.242   6.160 -0.9375 -0.4688 -0.2362
15218TIP3   OH267144   5.240   6.408   1.987 -0.6544 -0.3417 -0.0538
15218TIP3    H167145   5.209   6.348   1.919 -0.4931 -0.1475 -0.2972
15218TIP3    H267146   5.286   6.477   1.939 -0.0117 -0.5262  0.2965
15219TIP3   OH267147   1.064   0.134   3.534 -0.2011 -0.0001 -0.0383
15219TIP3    H167148   1.096   0.185   3.608 -1.6596  0.6523  0.1754
15219TIP3    H267149   0.995   0.079   3.571 -0.2773 -0.3707 -0.7240
15220TIP3   OH267150   5.876   5.319   4.880 -0.3060 -0.1953  1.0331
15220TIP3    H167151   5.810   5.377   4.843 -0.9787 -0.2841  2.0426
15220TIP3    H267152   5.889   5.251   4.815  0.1307  0.8094  0.0425
15221TIP3   OH267153   5.700   1.266  12.657  0.0680  0.0410 -0.5937
15221TIP3    H167154   5.721   1.269  12.564  2.6649  0.0674 -0.0704
15221TIP3    H267155   5.688   1.172  12.675  2.6031 -0.3277 -0.4306
15222TIP3   OH267156   0.529   2.102  15.440  0.2855  0.2259  0.4098
15222TIP3    H167157   0.574   2.103  15.524 -0.4411 -0.6741  0.8390
15222TIP3    H267158   0.526   2.009  15.416 -1.0640  0.2744  0.2721
15223TIP3   OH267159   3.777   3.314  12.183 -1.1067 -0.2013 -0.5005
15223TIP3    H167160   3.848   3.304  12.120 -1.4630  0.8601 -1.1024
15223TIP3    H267161   3.749   3.225  12.203 -2.1971 -0.5801 -3.2609
15224TIP3   OH267162   2.116   3.418  15.848  0.2029 -1.1053 -1.0112
15224TIP3    H167163   2.101   3.347  15.786  0.3977 -2.7344  0.7195
15224TIP3    H267164   2.203   3.451  15.825 -0.0072 -1.2157 -2.0122
15225TIP3   OH267165   3.532   2.557  13.533 -0.2865 -0.3231 -0.1850
15225TIP3    H167166   3.578   2.486  13.579  1.4818  2.5279  2.8937
15225TIP3    H267167   3.440   2.530  13.533  0.1853 -2.2065  1.7132
15226TIP3   OH267168   3.816   4.957  12.717  0.6559 -0.5884 -0.3754
15226TIP3    H167169   3.899   4.919  12.690  1.3992  0.6217  0.1106
15226TIP3    H267170   3.807   5.036  12.664 -0.3577 -0.8715 -0.6581
15227TIP3   OH267171   2.690   1.451   0.260  0.1450 -0.4049  0.0797
15227TIP3    H167172   2.652   1.538   0.252  1.6036  0.0733 -3.4692
15227TIP3    H267173   2.619   1.391   0.237 -0.7679 -0.2250  2.2074
15228TIP3   OH267174   6.812   6.761  13.492  0.4114  0.3759 -0.8555
15228TIP3    H167175   6.866   6.791  13.566 -0.7587 -0.7420  0.5135
15228TIP3    H267176   6.730   6.734  13.532 -0.4999  0.3234 -2.6781
15229TIP3   OH267177   0.211   6.831   1.462  0.5268  0.0002 -0.0694
15229TIP3    H167178   0.296   6.787   1.474  0.2275 -0.9891 -1.3925
15229TIP3    H267179   0.150   6.778   1.514  0.4365 -0.2235 -0.4061
15230TIP3   OH267180   3.888   3.831   3.168  0.1047  1.1202  0.1290
15230TIP3    H167181   3.822   3.888   3.128  0.3072  1.6367  0.5050
15230TIP3    H267182   3.959   3.891   3.191 -0.0566  0.8629  1.3497
15231TIP3   OH267183   0.601   0.262  12.070  0.2102  0.7507 -0.0451
15231TIP3    H167184   0.618   0.177  12.028  0.5335  0.4603  0.6416
15231TIP3    H267185   0.551   0.240  12.148  0.9285  1.1061  0.5299
15232TIP3   OH267186   5.064   1.710   1.778 -0.1013  0.4400  0.3151
15232TIP3    H167187   5.029   1.780   1.833 -1.6734  0.5925 -0.7852
15232TIP3    H267188   4.986   1.667   1.742  0.8206 -1.6362  0.6345
15233TIP3   OH267189   2.330   3.509  15.682  0.3637  0.0064 -0.6306
15233TIP3    H167190   2.256   3.546  15.634 -0.6642  0.9440  1.5487
15233TIP3    H267191   2.374   3.584  15.722 -0.3141 -0.8282  1.9013
15234TIP3   OH267192   3.902   0.001   4.609  0.3800  0.8413  0.5432
15234TIP3    H167193   3.974  -0.061   4.597 -0.6747 -0.1471 -0.9930
15234TIP3    H267194   3.929   0.055   4.683  1.8796 -0.6710  1.1557
15235TIP3   OH267195   6.730   6.141  15.830  0.1282 -0.0126  0.2679
15235TIP3    H167196   6.817   6.158  15.793 -0.0806  2.4810  0.7666
15235TIP3    H267197   6.745   6.137  15.925 -0.2711  0.2502  0.3447
15236TIP3   OH267198   1.298   6.630  15.407 -0.4381  0.0063 -0.1996
15236TIP3    H167199   1.344   6.643  15.324 -1.3648  2.3575 -0.4209
15236TIP3    H267200   1.269   6.539  15.404  1.5744 -0.6727 -1.3577
15237TIP3   OH267201   6.293   5.666   0.379  0.0942 -0.5238  0.2562
15237TIP3    H167202   6.211   5.623   0.354 -1.1449  1.8599 -0.1033
15237TIP3    H267203   6.356   5.595   0.385 -2.0267 -2.5120  0.7654
15238TIP3   OH267204   4.953   1.440   0.036  0.3392 -0.1474  0.5248
15238TIP3    H167205   4.979   1.431  -0.056 -1.1463  1.9837 -0.1960
15238TIP3    H267206   5.021   1.494   0.075  0.5997 -0.4476  0.4863
15239TIP3   OH267207   4.183   0.710   5.916  1.0381 -0.5061  0.0939
15239TIP3    H167208   4.133   0.649   5.970  1.6469 -0.5930  0.5668
15239TIP3    H267209   4.215   0.776   5.977  0.2074  0.4251 -0.4405
15240TIP3   OH267210   2.375   6.792   3.437 -0.1137  0.4904  0.1943
15240TIP3    H167211   2.369   6.721   3.374  1.0371  0.3242  0.2405
15240TIP3    H267212   2.305   6.853   3.413 -0.2173  0.0242 -0.7094
15241TIP3   OH267213   0.922   4.479   0.362 -0.2106 -0.4937  0.5375
15241TIP3    H167214   0.828   4.479   0.382 -0.1335  0.4784  0.9746
15241TIP3    H267215   0.930   4.427   0.282 -0.9848 -1.4925  1.0885
15242TIP3   OH267216   4.757   6.834   0.179 -0.2554  0.5148  0.8738
15242TIP3    H167217   4.717   6.835   0.266  2.3366 -2.0078  2.2859
15242TIP3    H267218   4.840   6.880   0.190  0.3210 -0.2362 -0.1024
15243TIP3   OH267219   0.710   2.908   0.419  0.0405  0.0397 -0.6495
15243TIP3    H167220   0.731   2.856   0.497  0.5832 -0.1111 -0.8934
15243TIP3    H267221   0.792   2.949   0.394 -0.5065  1.5527 -0.0909
15244TIP3   OH267222   1.626   1.436   5.234  0.0517  0.1350  0.4708
15244TIP3    H167223   1.618   1.520   5.281  1.4870  0.6284 -0.1078
15244TIP3    H267224   1.630   1.371   5.304  0.0401  0.6601  0.9757
15245TIP3   OH267225   1.160   0.501   5.710  0.4871 -0.2563 -0.1169
15245TIP3    H167226   1.202   0.583   5.683  0.2804  0.2551  1.0401
15245TIP3    H267227   1.136   0.516   5.802 -2.3791 -0.4512 -0.7354
15246TIP3   OH267228   1.955   2.089   0.986  0.5743  0.3726 -0.2223
15246TIP3    H167229   1.923   2.180   0.987 -0.8251 -0.1031  1.0860
15246TIP3    H267230   1.878   2.037   0.967  0.6294 -0.7738  2.3513
15247TIP3   OH267231   3.837   0.276   4.549 -0.3967 -0.0021 -0.7875
15247TIP3    H167232   3.875   0.190   4.532 -0.6537 -0.2721 -0.0535
15247TIP3    H267233   3.833   0.282   4.645  1.1060  1.4912 -0.7627
15248TIP3   OH267234   1.697   4.546  13.221  0.0491  0.0308  0.3220
15248TIP3    H167235   1.743   4.630  13.222 -0.2936  0.2182  0.7592
15248TIP3    H267236   1.759   4.485  13.181  0.9090  0.1495  1.4233
15249TIP3   OH267237   6.075   1.942  14.853 -0.1973 -0.3529 -0.1194
15249TIP3    H167238   6.125   1.903  14.925  1.5165  1.3160 -0.3327
15249TIP3    H267239   5.996   1.976  14.895 -0.1049 -1.0241  0.6257
15250TIP3   OH267240   2.723   3.812   2.126  0.1347 -0.1105 -0.1235
15250TIP3    H167241   2.661   3.852   2.065  0.3272  0.1566 -0.1496
15250TIP3    H267242   2.798   3.787   2.071  0.0485 -0.4343 -0.0939
15251TIP3   OH267243   4.253   1.834   1.014 -0.7870 -0.2648  0.5534
15251TIP3    H167244   4.317   1.885   1.063  1.1412 -1.2852 -0.7549
15251TIP3    H267245   4.258   1.869   0.924  1.2939 -3.2080 -0.6190
15252TIP3   OH267246   3.131   6.452  13.657 -0.1489 -0.3526 -0.3133
15252TIP3    H167247   3.049   6.419  13.620 -0.4311  0.1570 -0.1483
15252TIP3    H267248   3.199   6.417  13.599 -0.5587  0.1367 -1.1106
15253TIP3   OH267249   5.944   6.449  15.829 -0.2427 -0.3283 -0.1760
15253TIP3    H167250   5.855   6.416  15.816  0.1895 -1.6134 -0.0289
15253TIP3    H267251   5.957   6.511  15.758 -0.6690 -1.4026 -1.2257
15254TIP3   OH267252   0.840   2.773   1.953  0.6426 -0.3339 -0.2232
15254TIP3    H167253   0.845   2.706   1.885 -3.3689 -2.0995  0.8906
15254TIP3    H267254   0.760   2.822   1.932 -0.2020 -0.3272  2.5668
15255TIP3   OH267255   3.725   3.862  12.828 -0.2506 -0.2468 -0.1315
15255TIP3    H167256   3.782   3.939  12.829 -1.6015  0.9125 -2.3850
15255TIP3    H267257   3.765   3.803  12.765 -1.5761  0.7041 -1.9554
15256TIP3   OH267258   6.157   2.571   1.836 -0.3401  0.0750  0.2763
15256TIP3    H167259   6.094   2.516   1.790 -2.0327  0.3570  2.0904
15256TIP3    H267260   6.157   2.654   1.788 -2.2235  0.4385  0.8179
15257TIP3   OH267261   4.807   5.389   3.237  0.2167  0.1457  0.1280
15257TIP3    H167262   4.777   5.331   3.167  0.1621 -0.4326  0.6255
15257TIP3    H267263   4.727   5.421   3.278  0.2424  0.7054 -0.2421
15258TIP3   OH267264   2.133   2.354   0.764  0.6421  0.1947  0.0727
15258TIP3    H167265   2.159   2.407   0.839  0.8668  1.5936 -0.9647
15258TIP3    H267266   2.129   2.415   0.690 -0.9906 -0.8468 -0.7897
15259TIP3   OH267267   5.404   5.838   5.444 -0.4426  0.1205  0.5467
15259TIP3    H167268   5.472   5.862   5.382  1.2483  1.6082  2.8084
15259TIP3    H267269   5.322   5.858   5.399  0.6908  1.3070 -1.1021
15260TIP3   OH267270   1.793   0.061   1.228  0.2275  0.5881 -0.1596
15260TIP3    H167271   1.777   0.130   1.291  0.7933  0.5049  0.0762
15260TIP3    H267272   1.883   0.033   1.244 -0.9662 -2.5314  2.0457
15261TIP3   OH267273   4.735   1.989  12.689 -0.4534 -0.1771 -0.6587
15261TIP3    H167274   4.773   1.902  12.693  2.1105  0.9003  1.9979
15261TIP3    H267275   4.654   1.983  12.739 -0.3110 -1.0060 -0.5221
15262TIP3   OH267276   1.236   1.216  14.510 -0.5520 -0.4222 -0.4220
15262TIP3    H167277   1.313   1.174  14.548  0.6693  0.1350 -2.1489
15262TIP3    H267278   1.226   1.176  14.424 -0.3417  1.5633 -1.4456
15263TIP3   OH267279   0.467   2.197   1.297 -0.0449 -0.0554 -0.2448
15263TIP3    H167280   0.460   2.192   1.392  0.3153 -0.3622 -0.2302
15263TIP3    H267281   0.420   2.120   1.266  1.0003 -0.7243 -0.2484
15264TIP3   OH267282   4.281   5.982  11.543  0.2242 -0.7215  0.5174
15264TIP3    H167283   4.281   5.895  11.503 -0.4774 -1.1667  1.4281
15264TIP3    H267284   4.362   6.023  11.514 -0.7296 -0.5654 -2.2522
15265TIP3   OH267285   3.799   0.611  17.034 -0.1751  0.3720  0.1062
15265TIP3    H167286   3.732   0.668  16.996 -0.9122  0.4518  1.4572
15265TIP3    H267287   3.756   0.571  17.109  1.1387  0.0086  0.6875
15266TIP3   OH267288   6.169   6.858   2.985 -0.2435 -0.8099  0.2152
15266TIP3    H167289   6.162   6.927   3.051  0.4337 -0.8472  0.3357
15266TIP3    H267290   6.258   6.824   2.995  0.8190  0.8789 -2.3928
15267TIP3   OH267291   1.511   5.070  13.685  0.1018 -0.4209 -0.0359
15267TIP3    H167292   1.453   4.994  13.678 -0.8243  0.3406 -0.8261
15267TIP3    H267293   1.458   5.139  13.724  0.5462  0.2100 -0.5122
15268TIP3   OH267294   1.740   4.509   1.898  0.6184 -0.3088  0.3897
15268TIP3    H167295   1.747   4.585   1.840 -0.4636  1.0093  1.8841
15268TIP3    H267296   1.830   4.493   1.927  1.0114 -0.2955 -0.7701
15269TIP3   OH267297   3.869   2.828  13.707  0.0306  0.4991  0.9122
15269TIP3    H167298   3.897   2.803  13.796 -1.6738 -0.5829  1.1849
15269TIP3    H267299   3.778   2.800  13.702 -0.3932  2.0231 -0.6486
15270TIP3   OH267300   1.347   3.730  15.472 -0.2069  0.9931 -0.4640
15270TIP3    H167301   1.397   3.781  15.409 -0.8475  1.9362 -0.2156
15270TIP3    H267302   1.327   3.648  15.426  2.4672  0.0994 -0.2214
15271TIP3   OH267303   2.265   4.062  15.703  0.8815 -0.5354 -0.0984
15271TIP3    H167304   2.208   4.050  15.779  2.3443 -1.5079  0.8834
15271TIP3    H267305   2.252   4.154  15.678 -0.7979 -0.6322  0.3347
15272TIP3   OH267306   3.726   1.963   3.244  0.0202  0.2294 -0.0002
15272TIP3    H167307   3.676   2.038   3.277  2.3879  1.8339  0.1650
15272TIP3    H267308   3.795   2.002   3.190  1.4056 -1.8283  0.1746
15273TIP3   OH267309   3.326   1.454  16.346 -0.0014 -0.7639 -0.2621
15273TIP3    H167310   3.358   1.366  16.327  0.4336 -0.4752 -0.8858
15273TIP3    H267311   3.232   1.444  16.358 -0.2095 -1.0753 -1.9382
15274TIP3   OH267312   3.973   0.212   1.417 -0.2952  0.5525 -0.0764
15274TIP3    H167313   4.019   0.165   1.486 -0.1141 -0.8143 -1.1013
15274TIP3    H267314   3.880   0.203   1.439 -0.2039  1.2530  0.6733
15275TIP3   OH267315   6.530   3.178  15.348  0.2681 -0.3198  0.4133
15275TIP3    H167316   6.507   3.085  15.351 -1.9213  0.1410  4.4908
15275TIP3    H267317   6.464   3.217  15.291 -1.6089 -0.7732  2.1732
15276TIP3   OH267318   4.859   4.104   4.911 -0.6250  0.0624  0.1588
15276TIP3    H167319   4.858   4.192   4.948  0.8913  0.5025 -0.7312
15276TIP3    H267320   4.809   4.051   4.973 -4.2032  2.0517 -0.7527
15277TIP3   OH267321   1.957   0.448  10.999  0.2476  0.2520 -0.5728
15277TIP3    H167322   1.980   0.425  10.909 -1.7191 -1.2260 -0.7762
15277TIP3    H267323   1.957   0.364  11.046  0.5941  0.9126  0.6506
15278TIP3   OH267324   6.526   3.833   5.650  0.1566 -0.4601  0.3087
15278TIP3    H167325   6.506   3.818   5.742  2.0352  1.0504  1.0323
15278TIP3    H267326   6.494   3.921   5.632 -0.2703 -0.7703 -0.5454
15279TIP3   OH267327   4.146   5.483  10.160 -0.4100  0.2718  0.4788
15279TIP3    H167328   4.056   5.454  10.175 -1.7326  2.1226 -2.6834
15279TIP3    H267329   4.153   5.565  10.208 -0.2044 -0.1583  1.1872
15280TIP3   OH267330   4.624   1.819   5.701  0.4697  0.2981  0.0221
15280TIP3    H167331   4.570   1.755   5.748 -0.7734  1.5203  0.2955
15280TIP3    H267332   4.683   1.854   5.767 -0.8534  1.5603  0.5660
15281TIP3   OH267333   2.955   2.930  15.909 -0.7028  0.9942 -0.6007
15281TIP3    H167334   2.872   2.901  15.870 -0.8977  2.2873 -1.1845
15281TIP3    H267335   2.932   3.006  15.962 -0.2340 -0.0275  1.1444
15282TIP3   OH267336   1.700   4.208  11.773 -0.5259  0.6465  0.0550
15282TIP3    H167337   1.638   4.204  11.700 -0.5626  2.0741 -0.0340
15282TIP3    H267338   1.739   4.295  11.765 -0.0608  0.5709  1.3680
15283TIP3   OH267339   0.314   4.929   2.825  0.0955  0.0033 -0.7666
15283TIP3    H167340   0.335   4.978   2.746 -1.5457 -0.3351 -1.4560
15283TIP3    H267341   0.283   4.995   2.888  1.3102  0.2606 -0.4256
15284TIP3   OH267342   2.017   2.235  11.107  0.6319 -0.4337 -0.1480
15284TIP3    H167343   2.108   2.209  11.095  0.7643 -0.5459  1.0236
15284TIP3    H267344   1.967   2.175  11.051  1.2123 -0.8617 -0.2114
15285TIP3   OH267345   0.832   3.593   3.482  0.0105 -0.6958  0.0738
15285TIP3    H167346   0.768   3.627   3.418 -1.1995 -1.4794  0.8218
15285TIP3    H267347   0.916   3.597   3.436 -0.3090  1.7283 -0.4526
15286TIP3   OH267348   6.500   2.008   0.721  0.2447  0.4511  0.0393
15286TIP3    H167349   6.536   1.921   0.705 -0.7405  0.1326 -0.5463
15286TIP3    H267350   6.562   2.068   0.679  0.2518 -0.0561 -0.6826
15287TIP3   OH267351   5.857   4.217  13.480  0.5109 -0.1221  0.1536
15287TIP3    H167352   5.795   4.271  13.528  0.2168 -0.3388  0.0218
15287TIP3    H267353   5.828   4.223  13.389  1.1303  0.3797 -0.0193
15288TIP3   OH267354   1.917   5.107   3.744 -0.5450  0.0332 -0.3819
15288TIP3    H167355   1.868   5.117   3.826  0.6463  2.4245  0.1291
15288TIP3    H267356   2.008   5.099   3.772 -0.3287 -1.3426 -1.4206
15289TIP3   OH267357   1.915   0.990   4.191 -0.3906  0.3543 -0.1632
15289TIP3    H167358   1.828   0.970   4.157 -1.0042  0.7161  1.1652
15289TIP3    H267359   1.901   1.014   4.282  1.3469 -1.8408  0.7930
15290TIP3   OH267360   5.581   3.716   3.772  0.1998 -0.1309  0.0392
15290TIP3    H167361   5.540   3.716   3.859 -0.5998  0.0614 -0.3297
15290TIP3    H267362   5.674   3.709   3.790 -0.0393 -2.0514  0.8812
15291TIP3   OH267363   3.967   3.963   1.870 -0.4335 -0.0268 -0.3651
15291TIP3    H167364   3.965   3.954   1.965  1.3423  0.5962 -0.2378
15291TIP3    H267365   3.877   3.988   1.847 -1.1098 -1.0001  1.0303
15292TIP3   OH267366   2.001   2.626   2.947 -0.3375 -0.3831  0.3221
15292TIP3    H167367   2.005   2.708   2.996  0.0681  0.1193 -0.5331
15292TIP3    H267368   1.991   2.558   3.014  0.8084  0.2371  1.1384
15293TIP3   OH267369   2.955   2.195   3.438  0.5309  0.2838 -0.2466
15293TIP3    H167370   2.878   2.243   3.468  0.1334 -1.4212  1.6681
15293TIP3    H267371   3.026   2.260   3.440 -0.1237  1.0173  1.5304
15294TIP3   OH267372   5.490   3.667   4.991 -0.3951  0.2685  0.0323
15294TIP3    H167373   5.417   3.607   5.004 -0.2258  0.2874  1.1332
15294TIP3    H267374   5.548   3.621   4.930 -1.0360  0.0121 -0.3973
15295TIP3   OH267375   1.575   4.030   3.981 -0.2211  0.0033  0.2253
15295TIP3    H167376   1.610   4.117   3.965 -1.3622  0.2773 -1.0329
15295TIP3    H267377   1.636   3.971   3.937  1.2848 -0.0089  2.1888
15296TIP3   OH267378   2.101   4.291   5.520 -0.0947 -0.3342 -0.0387
15296TIP3    H167379   2.007   4.279   5.534  0.1358 -1.2549  0.8705
15296TIP3    H267380   2.141   4.253   5.598  1.0618 -0.5137 -0.6996
15297TIP3   OH267381   6.163   1.159  12.556 -0.2223  0.2917  0.2686
15297TIP3    H167382   6.084   1.114  12.586  0.1511  0.0360  0.9046
15297TIP3    H267383   6.197   1.104  12.485  0.0110 -0.2245  0.7734
15298TIP3   OH267384   3.273   0.074  11.322  0.3019 -0.7768  0.0890
15298TIP3    H167385   3.194   0.023  11.310  0.3918 -1.1862  1.0812
15298TIP3    H267386   3.253   0.160  11.285 -0.6643 -0.8222  0.4805
15299TIP3   OH267387   2.331   5.822   5.450 -0.2361 -0.1287  0.2727
15299TIP3    H167388   2.251   5.825   5.502 -0.6552  0.3812 -0.3783
15299TIP3    H267389   2.391   5.882   5.494 -1.0655  1.3864 -0.5645
15300TIP3   OH267390   1.555   1.997   3.186 -0.2433 -0.1979  0.5509
15300TIP3    H167391   1.624   1.965   3.244  0.3867 -0.4895 -0.3459
15300TIP3    H267392   1.536   2.086   3.218  0.8513  0.0461  0.5384
15301TIP3   OH267393   2.785   2.042   5.122 -0.3553  0.3444  0.1819
15301TIP3    H167394   2.851   2.094   5.076  1.9717 -2.2590  0.2987
15301TIP3    H267395   2.823   2.026   5.208 -0.8388 -1.6978  0.0649
15302TIP3   OH267396   3.144   5.158   0.956 -0.1904  0.5396 -0.5741
15302TIP3    H167397   3.214   5.132   1.016 -0.3875  1.4863  0.0913
15302TIP3    H267398   3.185   5.221   0.897 -0.6843  1.8171  0.4109
15303TIP3   OH267399   1.364   6.077  11.164  0.3438  0.2778  0.5325
15303TIP3    H167400   1.323   6.164  11.159 -0.8646 -0.2062  1.6017
15303TIP3    H267401   1.301   6.018  11.123  0.0290 -0.4543  2.0246
15304TIP3   OH267402   4.009   0.558   3.546  0.0541 -0.0006 -0.5549
15304TIP3    H167403   4.048   0.488   3.599 -0.1870 -0.2590 -0.7130
15304TIP3    H267404   3.924   0.524   3.521  0.0998  0.1852 -0.9743
15305TIP3   OH267405   0.382   0.547   4.539  0.2322 -0.1265  0.1517
15305TIP3    H167406   0.362   0.534   4.632  0.3279 -0.4987  0.1192
15305TIP3    H267407   0.326   0.621   4.513 -0.9152 -0.9758  0.1407
15306TIP3   OH267408   6.083   6.122  13.897 -0.3420 -0.7391 -0.4927
15306TIP3    H167409   6.010   6.069  13.864 -0.7402  0.1490 -1.0878
15306TIP3    H267410   6.155   6.060  13.907 -0.2179 -1.0930 -2.9849
15307TIP3   OH267411   4.256   2.170   1.655 -0.1637  0.6603 -0.0601
15307TIP3    H167412   4.273   2.118   1.576 -2.6002 -0.8902  0.3438
15307TIP3    H267413   4.301   2.253   1.639  1.2994 -0.4444 -2.0753
15308TIP3   OH267414   2.511   3.623   6.200  0.4281  0.1414  0.6706
15308TIP3    H167415   2.438   3.572   6.236 -0.7309  1.5147  0.3630
15308TIP3    H267416   2.565   3.645   6.276  0.5063 -0.8326  0.9095
15309TIP3   OH267417   0.888   0.250   0.433  0.1291 -0.0987 -0.0262
15309TIP3    H167418   0.960   0.231   0.493 -0.5326 -3.8690 -0.1499
15309TIP3    H267419   0.809   0.219   0.479 -0.5775 -1.7300 -2.1393
15310TIP3   OH267420   1.671   2.153  12.807 -0.3688  0.3337 -0.3521
15310TIP3    H167421   1.698   2.213  12.738 -0.7966 -0.6232 -1.3814
15310TIP3    H267422   1.750   2.140  12.860  0.4565 -0.2433 -1.6700
15311TIP3   OH267423   0.485   4.843  15.165  0.1934 -0.0970 -0.1025
15311TIP3    H167424   0.463   4.867  15.254 -0.3133 -0.1931 -0.1976
15311TIP3    H267425   0.420   4.887  15.111 -0.6972 -1.5681 -0.2842
15312TIP3   OH267426   1.229   4.172   1.885  0.3672  0.0150 -0.1924
15312TIP3    H167427   1.256   4.094   1.932  0.7499  0.5011  0.4144
15312TIP3    H267428   1.167   4.216   1.944  2.4624  1.7334  0.8668
15313TIP3   OH267429   2.748   6.197  11.716  0.5930 -0.3874  0.0229
15313TIP3    H167430   2.770   6.201  11.623 -2.3950 -0.8528 -0.7982
15313TIP3    H267431   2.691   6.273  11.730 -1.2015 -1.8072  0.7512
15314TIP3   OH267432   2.197   0.848   1.809 -0.7306 -0.0337  0.1864
15314TIP3    H167433   2.287   0.871   1.786 -0.7655  0.4377  0.5142
15314TIP3    H267434   2.182   0.890   1.893 -1.8886  1.5094 -0.7454
15315TIP3   OH267435   4.446   5.516  12.906  0.8425  0.0457 -0.1556
15315TIP3    H167436   4.518   5.572  12.935  1.3721  0.1137 -1.5331
15315TIP3    H267437   4.469   5.429  12.940  0.0159  0.6022  1.9836
15316TIP3   OH267438   2.780   1.856  10.882 -0.5959 -0.3841 -0.1955
15316TIP3    H167439   2.830   1.775  10.891  3.4894  1.9870  1.5856
15316TIP3    H267440   2.710   1.849  10.947 -0.2239 -2.3757  0.0428
15317TIP3   OH267441   2.258   6.192  14.738 -0.2074 -0.3763 -0.1318
15317TIP3    H167442   2.248   6.236  14.822  0.5770 -1.1350  0.3733
15317TIP3    H267443   2.240   6.260  14.673 -2.8052 -0.2688  0.6219
15318TIP3   OH267444   3.754   1.028   0.418 -0.1022  0.5895 -0.5445
15318TIP3    H167445   3.776   1.009   0.509 -0.5358 -0.7097 -0.6898
15318TIP3    H267446   3.674   1.081   0.423  1.8352  3.6891 -0.0910
15319TIP3   OH267447   6.377   3.991  13.137  0.1189 -0.1017 -0.0370
15319TIP3    H167448   6.379   4.052  13.063  1.4178 -0.4484 -0.3145
15319TIP3    H267449   6.408   3.908  13.101  0.1299 -0.4499  0.7461
15320TIP3   OH267450   4.922   2.433  13.668  0.0937 -0.0548  0.4676
15320TIP3    H167451   5.010   2.406  13.643 -0.0212  0.2379 -0.2666
15320TIP3    H267452   4.894   2.367  13.732  1.1825  0.3561  1.3920
15321TIP3   OH267453   0.128   2.212   5.758  0.0460 -0.1421 -0.9883
15321TIP3    H167454   0.096   2.287   5.707 -1.0708  0.0466 -0.0464
15321TIP3    H267455   0.093   2.136   5.713 -0.9084  0.0236 -0.5560
15322TIP3   OH267456   5.865   1.297  13.962 -0.3490 -0.5215  0.7131
15322TIP3    H167457   5.871   1.215  14.012 -0.4418  0.3986  2.2869
15322TIP3    H267458   5.790   1.343  14.000 -0.6357  0.0833 -0.5214
15323TIP3   OH267459   1.954   5.739   6.509  0.1260  0.1341 -0.1374
15323TIP3    H167460   1.985   5.670   6.568 -0.2205  1.5670  1.8427
15323TIP3    H267461   2.026   5.802   6.505 -0.4547  0.8416  0.1132
15324TIP3   OH267462   2.896   1.904   3.138 -0.7796  0.4350  0.2930
15324TIP3    H167463   2.838   1.839   3.099 -0.2360  0.2405 -0.2127
15324TIP3    H267464   2.938   1.858   3.211  0.7994 -0.3284 -1.0227
15325TIP3   OH267465   0.264   6.297  11.425 -0.4400 -0.8099 -0.1203
15325TIP3    H167466   0.231   6.211  11.399 -1.1604 -0.6333  0.1847
15325TIP3    H267467   0.220   6.315  11.509  1.6248 -1.2581  1.1192
15326TIP3   OH267468   5.936   5.781   3.128 -0.5481  0.5038 -0.7426
15326TIP3    H167469   5.960   5.872   3.146  0.1252  0.1245  0.3869
15326TIP3    H267470   5.889   5.753   3.207  1.5715 -0.9078  0.0885
15327TIP3   OH267471   5.429   2.434   1.326 -0.5611  0.0762  0.1282
15327TIP3    H167472   5.442   2.482   1.244  0.1463 -1.3735 -0.6714
15327TIP3    H267473   5.516   2.434   1.367 -0.4025 -0.9435 -0.1649
15328TIP3   OH267474   3.315   2.414  11.353 -0.1202 -0.7902  0.3604
15328TIP3    H167475   3.402   2.450  11.335 -0.1093 -0.3880  1.1717
15328TIP3    H267476   3.332   2.323  11.377 -0.1099 -1.2513 -1.3005
15329TIP3   OH267477   5.039   5.261  13.675  0.4757 -0.0400 -0.6768
15329TIP3    H167478   4.959   5.313  13.676  0.7856  0.4447 -0.0018
15329TIP3    H267479   5.044   5.222  13.763  1.1462  0.2093 -0.5946
15330TIP3   OH267480   2.676   5.219   1.799 -0.1796 -0.2629 -0.2387
15330TIP3    H167481   2.737   5.292   1.812 -0.2628 -0.0351 -1.0773
15330TIP3    H267482   2.590   5.260   1.798 -0.5029 -0.7209  2.2014
15331TIP3   OH267483   5.381   0.672   0.367  0.0744 -0.4779 -0.1735
15331TIP3    H167484   5.363   0.652   0.459  2.7691  2.8959  1.3043
15331TIP3    H267485   5.331   0.752   0.349 -0.1719 -0.9134 -1.5844
15332TIP3   OH267486   1.311   0.619  14.205 -0.1650 -0.5240 -0.4810
15332TIP3    H167487   1.229   0.639  14.251 -0.5624 -0.3210 -1.2675
15332TIP3    H267488   1.323   0.693  14.145  1.3455  0.1739  0.6194
15333TIP3   OH267489   4.347   3.342  16.025  0.2601 -0.2143  0.0026
15333TIP3    H167490   4.302   3.413  15.979 -0.2404 -0.6963 -0.2732
15333TIP3    H267491   4.424   3.323  15.971  1.8796  1.8563  1.4282
15334TIP3   OH267492   3.262   1.338  14.466 -0.5016 -0.3899  0.7166
15334TIP3    H167493   3.349   1.379  14.471  0.7985 -2.7651 -0.4568
15334TIP3    H267494   3.227   1.366  14.382  0.0246 -0.9792  0.2899
15335TIP3   OH267495   5.555   3.078   0.730  0.1695  0.1010 -0.7249
15335TIP3    H167496   5.504   3.056   0.808  1.7969  0.2883  0.4420
15335TIP3    H267497   5.613   3.002   0.717  2.0108  1.2844  0.0994
15336TIP3   OH267498   0.715   4.767   2.681 -0.9929 -0.1610 -0.1503
15336TIP3    H167499   0.778   4.746   2.750 -1.7998  1.4163  1.1341
15336TIP3    H267500   0.762   4.826   2.622 -0.6131 -0.7169 -0.4131
15337TIP3   OH267501   6.236   0.578  13.935 -0.6417  0.6341 -0.1644
15337TIP3    H167502   6.301   0.549  13.999 -1.3358 -0.5590  0.0304
15337TIP3    H267503   6.268   0.545  13.851 -0.9214  0.1550 -0.0866
15338TIP3   OH267504   2.921   1.831  17.043 -0.0580 -0.1201 -0.5684
15338TIP3    H167505   2.866   1.772  17.094 -0.0683 -0.7103 -1.2397
15338TIP3    H267506   3.002   1.837  17.092 -0.4509  0.1722  0.0548
15339TIP3   OH267507   4.319   1.670   5.368  0.7387  0.0364 -0.0872
15339TIP3    H167508   4.394   1.725   5.344  0.4222  0.6125  0.2480
15339TIP3    H267509   4.334   1.648   5.460 -1.1294  2.8485  1.0113
15340TIP3   OH267510   0.526   6.085   3.063 -0.2586  0.0758 -0.4727
15340TIP3    H167511   0.545   6.176   3.041  1.2054 -0.0111  0.2861
15340TIP3    H267512   0.490   6.089   3.152 -0.0531 -0.0909 -0.3801
15341TIP3   OH267513   5.721   6.121   2.076  0.0011  0.3997 -0.2503
15341TIP3    H167514   5.722   6.027   2.056 -0.6639  0.9163 -3.2525
15341TIP3    H267515   5.654   6.130   2.144 -1.6137 -1.0940 -1.5478
15342TIP3   OH267516   6.086   0.252   5.504  0.3178 -0.4288 -0.3248
15342TIP3    H167517   6.011   0.303   5.473  0.8940  0.5574 -0.1227
15342TIP3    H267518   6.102   0.189   5.433  0.6208  0.7532 -1.3479
15343TIP3   OH267519   5.399   2.551   4.596 -0.0615  0.3410  0.3080
15343TIP3    H167520   5.443   2.599   4.525  0.3697 -0.1902  0.2074
15343TIP3    H267521   5.331   2.610   4.626  0.1754  0.8386 -0.1151
15344TIP3   OH267522   5.174   1.301   6.487 -0.7507  0.5196  0.2899
15344TIP3    H167523   5.133   1.273   6.404 -2.5825  0.7094  1.0901
15344TIP3    H267524   5.267   1.307   6.466 -0.7702 -2.0629 -1.0708
15345TIP3   OH267525   6.850   3.066   5.844 -0.1704  0.5753 -0.8048
15345TIP3    H167526   6.854   3.087   5.938 -1.4060  2.1606 -1.0562
15345TIP3    H267527   6.758   3.043   5.829  0.0850  0.0479 -1.5669
15346TIP3   OH267528   3.409   1.909  13.808 -0.6590  0.0373 -0.9011
15346TIP3    H167529   3.471   1.980  13.827 -1.9303  1.2568 -1.1628
15346TIP3    H267530   3.356   1.901  13.888  0.7043 -1.9945 -0.1217
15347TIP3   OH267531   3.916   5.323   3.411  0.0022  0.1297 -0.3700
15347TIP3    H167532   3.864   5.288   3.483 -0.6787  1.6418 -0.0828
15347TIP3    H267533   3.853   5.339   3.341  0.5489 -0.6567 -1.0591
15348TIP3   OH267534   1.253   5.405   4.589  0.2069 -0.1453 -0.4124
15348TIP3    H167535   1.314   5.338   4.620  1.0607  0.9701  0.3966
15348TIP3    H267536   1.260   5.402   4.494  1.1475 -0.3741 -0.3460
15349TIP3   OH267537   2.513   4.880  14.519  0.2157  0.0661 -0.3739
15349TIP3    H167538   2.435   4.920  14.480 -0.7604 -0.5889  0.8229
15349TIP3    H267539   2.585   4.906  14.461 -0.3667  3.3617  0.1575
15350TIP3   OH267540   4.796   6.785  15.049 -0.2540  0.4651 -0.7173
15350TIP3    H167541   4.750   6.864  15.078 -0.2111  0.6334 -1.0918
15350TIP3    H267542   4.737   6.745  14.985 -1.2157 -0.9514  0.9846
15351TIP3   OH267543   4.590   4.493   4.193 -0.1841 -0.7893 -0.4946
15351TIP3    H167544   4.556   4.561   4.133 -0.6051 -0.0100  0.5985
15351TIP3    H267545   4.619   4.423   4.135  0.6787  0.5003 -1.7073
15352TIP3   OH267546   3.751   1.240   0.913 -0.1940  0.3377  0.0962
15352TIP3    H167547   3.766   1.265   1.004 -1.0872  0.9470  0.0952
15352TIP3    H267548   3.656   1.246   0.902 -0.0796  0.4545 -0.9193
15353TIP3   OH267549   0.320   4.966  14.874  0.5454 -0.0082 -0.0391
15353TIP3    H167550   0.334   4.900  14.807  1.6649 -0.3438  0.5005
15353TIP3    H267551   0.306   5.047  14.826 -2.9361 -0.9024 -0.7945
15354TIP3   OH267552   3.231   1.936  14.658 -0.2699 -0.0340  0.7169
15354TIP3    H167553   3.264   2.026  14.661 -2.2140  0.7291  0.6260
15354TIP3    H267554   3.160   1.938  14.595 -0.2171 -1.7040  0.5476
15355TIP3   OH267555   3.362   5.512  12.381  0.4398  0.6168 -0.3798
15355TIP3    H167556   3.438   5.501  12.439  0.4267 -0.5024 -0.5493
15355TIP3    H267557   3.373   5.443  12.315  0.5948  2.0224 -1.8708
15356TIP3   OH267558   3.749   6.339   0.264  0.7141 -0.3290  0.4727
15356TIP3    H167559   3.757   6.358   0.171  0.0611 -1.8700  0.0675
15356TIP3    H267560   3.656   6.351   0.284  0.2540 -2.8891  0.1827
15357TIP3   OH267561   3.878   1.599   0.358  0.1762  0.8426  0.4236
15357TIP3    H167562   3.875   1.626   0.267 -0.5279  0.7201  0.3994
15357TIP3    H267563   3.951   1.647   0.396  1.1847  0.0561 -0.4669
15358TIP3   OH267564   0.413   4.755   6.272 -0.8668  0.1329  0.4307
15358TIP3    H167565   0.466   4.675   6.274 -1.6381 -0.3996  0.1824
15358TIP3    H267566   0.456   4.811   6.207 -2.1382 -1.4173 -1.8901
15359TIP3   OH267567   3.800   1.852   2.927  0.4568  0.0501  0.1625
15359TIP3    H167568   3.889   1.885   2.937  1.0106 -0.6189 -2.0368
15359TIP3    H267569   3.780   1.863   2.834 -0.4617 -2.9079 -0.0857
15360TIP3   OH267570   2.384   1.027   2.908  0.1836  0.2260 -0.2670
15360TIP3    H167571   2.454   0.994   2.964  0.2364  1.8694  0.7095
15360TIP3    H267572   2.326   1.074   2.968  0.6553  2.7379 -1.6577
15361TIP3   OH267573   1.352   2.538   0.956 -0.7744 -0.1599 -0.3297
15361TIP3    H167574   1.317   2.512   0.871  0.4642  1.4415 -1.3960
15361TIP3    H267575   1.372   2.631   0.946  0.0490 -0.1010  1.4955
15362TIP3   OH267576   3.211   0.651  16.881  0.2799  0.1172 -0.5546
15362TIP3    H167577   3.248   0.671  16.795 -1.4105  2.5486 -0.8167
15362TIP3    H267578   3.141   0.589  16.863  2.5008 -2.6901 -0.3184
15363TIP3   OH267579   6.336   3.664  14.698 -0.6216  0.1861 -0.0598
15363TIP3    H167580   6.368   3.574  14.692  0.9929  0.7895 -0.9876
15363TIP3    H267581   6.398   3.716  14.646 -2.8934  1.4869 -1.6670
15364TIP3   OH267582   4.140   5.471  12.605 -0.1428  0.1081 -0.3764
15364TIP3    H167583   4.116   5.552  12.560 -0.3747  1.1070  1.4405
15364TIP3    H267584   4.084   5.470  12.683  0.9767 -0.9882  0.4454
15365TIP3   OH267585   1.270   3.718  13.856  1.1971  0.1262  0.4131
15365TIP3    H167586   1.349   3.684  13.900 -0.1377 -1.4189  1.7434
15365TIP3    H267587   1.217   3.640  13.839 -0.8364  1.2667  1.1871
15366TIP3   OH267588   5.807   2.261   2.104 -0.9411 -0.1859 -0.1346
15366TIP3    H167589   5.745   2.273   2.176  1.0804  1.9127  1.4197
15366TIP3    H267590   5.888   2.301   2.136  0.6797 -1.0947 -2.7957
15367TIP3   OH267591   5.495   0.171  10.900  0.7248 -0.3043 -0.3611
15367TIP3    H167592   5.590   0.159  10.894  0.6950 -1.1654  0.5796
15367TIP3    H267593   5.484   0.254  10.945  1.0556 -0.5749  0.2393
15368TIP3   OH267594   4.737   2.978  15.014  0.0880  0.0746  1.0060
15368TIP3    H167595   4.714   2.995  15.106 -1.6693  2.6416  0.2146
15368TIP3    H267596   4.653   2.980  14.968  0.9601 -0.8098 -0.7241
15369TIP3   OH267597   6.462   4.729  17.040  0.2596 -0.3054 -0.6253
15369TIP3    H167598   6.406   4.799  17.008  0.0482  0.0226  0.4079
15369TIP3    H267599   6.458   4.662  16.972 -0.4792  0.1924 -1.0884
15370TIP3   OH267600   4.379   3.848  13.959 -0.0486 -0.6769  0.0478
15370TIP3    H167601   4.386   3.890  13.873  0.0911 -0.2931  0.2405
15370TIP3    H267602   4.341   3.916  14.015 -2.0345 -1.5672 -0.1545
15371TIP3   OH267603   4.027   1.422  14.453 -0.5288  0.0177 -0.1773
15371TIP3    H167604   4.105   1.369  14.435 -0.2749  0.0265  0.8094
15371TIP3    H267605   3.954   1.371  14.419 -0.1361 -0.2206 -0.6691
15372TIP3   OH267606   6.633   0.771   3.981 -0.2871  0.2129 -0.4568
15372TIP3    H167607   6.582   0.750   3.903 -1.9347  2.0347  0.0485
15372TIP3    H267608   6.698   0.835   3.952  0.7186 -0.9310 -0.7865
15373TIP3   OH267609   2.240   5.961  13.792  0.0944  0.2218 -0.4947
15373TIP3    H167610   2.247   6.034  13.731  0.9258 -0.6140 -1.4313
15373TIP3    H267611   2.315   5.906  13.772 -0.7515 -1.1142 -0.0962
15374TIP3   OH267612   1.517   0.024   5.225  0.0057  0.3353 -0.5573
15374TIP3    H167613   1.468  -0.026   5.291 -1.3160 -0.7662 -2.2800
15374TIP3    H267614   1.539   0.106   5.269 -3.0469  0.7294  0.4822
15375TIP3   OH267615   6.130   6.450  17.069  0.3075 -0.4905 -0.4826
15375TIP3    H167616   6.138   6.404  16.985 -0.0201 -1.4363 -0.0049
15375TIP3    H267617   6.048   6.498  17.062  0.7610  0.2288 -1.0694
15376TIP3   OH267618   2.587   2.854   4.587 -0.1303 -0.0566  0.2346
15376TIP3    H167619   2.649   2.786   4.612 -1.1424 -0.3874  2.0092
15376TIP3    H267620   2.614   2.880   4.499  0.8462 -2.0870 -0.1171
15377TIP3   OH267621   4.372   3.449  12.999 -0.4159  0.1724 -0.1957
15377TIP3    H167622   4.392   3.523  13.057 -0.7736 -0.6596  1.0220
15377TIP3    H267623   4.277   3.449  12.991 -0.4173 -0.1497 -0.1914
15378TIP3   OH267624   3.206   6.336  12.473  0.4682 -0.0698 -0.2318
15378TIP3    H167625   3.132   6.316  12.415  0.4790 -2.0121  0.3282
15378TIP3    H267626   3.175   6.409  12.527 -0.8872 -0.5505 -0.3078
15379TIP3   OH267627   4.207   1.716   1.968  0.9195  0.4649  0.3159
15379TIP3    H167628   4.123   1.675   1.946  0.3297  0.5772  2.1760
15379TIP3    H267629   4.205   1.800   1.923  0.4586  0.0846 -0.4025
15380TIP3   OH267630   4.634   4.089  12.685 -0.6870 -0.5227  0.6199
15380TIP3    H167631   4.718   4.134  12.678 -0.6587 -0.4064  1.6448
15380TIP3    H267632   4.640   4.038  12.766 -1.9399  0.2247  1.2130
15381TIP3   OH267633   6.581   0.545   4.133  0.7477  1.0444  0.0643
15381TIP3    H167634   6.567   0.621   4.077 -0.6018  1.2154  0.5964
15381TIP3    H267635   6.498   0.533   4.179  1.7059  0.7469  1.8140
15382TIP3   OH267636   6.813   3.053   5.129  0.4391 -0.2648 -0.9126
15382TIP3    H167637   6.848   3.036   5.216  1.1621  0.3671 -1.0723
15382TIP3    H267638   6.862   2.996   5.071  0.0180 -0.6206 -0.9271
15383TIP3   OH267639   0.256   3.478   0.117  0.3426  0.3990  0.4835
15383TIP3    H167640   0.213   3.442   0.039 -0.2698  0.5987  0.7205
15383TIP3    H267641   0.193   3.542   0.151  0.6860  0.4465  1.0349
15384TIP3   OH267642   2.272   2.004  16.475  0.1633 -0.5077  0.1001
15384TIP3    H167643   2.202   2.008  16.410 -0.6037 -0.5351  0.9046
15384TIP3    H267644   2.344   2.055  16.437 -0.8614  0.8690 -0.0579
15385TIP3   OH267645   3.115   0.437   3.262 -0.5230 -0.1184 -0.0364
15385TIP3    H167646   3.187   0.417   3.203 -1.0929  1.1970 -1.2400
15385TIP3    H267647   3.055   0.490   3.210 -1.4599  0.3859  1.4742
15386TIP3   OH267648   1.092   1.754  11.184 -0.1002  0.0852 -0.5533
15386TIP3    H167649   1.035   1.780  11.112 -0.2251  0.5866 -0.2837
15386TIP3    H267650   1.109   1.836  11.231 -0.4162 -0.3001  0.2572
15387TIP3   OH267651   1.042   3.298  16.719 -0.2911  0.2235  0.2542
15387TIP3    H167652   1.122   3.248  16.703 -0.0322  0.4882  0.6958
15387TIP3    H267653   1.072   3.388  16.731 -0.8961  0.8187 -2.1596
15388TIP3   OH267654   1.560   5.522  15.214 -0.4646 -0.1306 -0.0952
15388TIP3    H167655   1.498   5.449  15.212 -2.3262  1.3231  0.7486
15388TIP3    H267656   1.644   5.484  15.187 -0.6651 -3.2245  2.8683
15389TIP3   OH267657   3.085   0.733   3.774  0.4204 -0.4409  0.0269
15389TIP3    H167658   3.077   0.673   3.699  0.6480  0.4956 -0.7636
15389TIP3    H267659   3.166   0.706   3.817  0.1072 -1.2122  0.1516
15390TIP3   OH267660   2.494   0.418  13.132  0.3997 -0.4269 -0.1184
15390TIP3    H167661   2.557   0.480  13.170 -1.4508  2.3316 -1.2560
15390TIP3    H267662   2.542   0.375  13.061  0.8014  2.4901 -1.7705
15391TIP3   OH267663   1.671   1.073  14.112  0.2053 -0.4767 -0.5628
15391TIP3    H167664   1.620   1.131  14.055 -0.0126 -0.0339  0.0737
15391TIP3    H267665   1.740   1.038  14.055 -0.9963 -1.3458 -1.5222
15392TIP3   OH267666   5.019   0.363  14.559 -0.1183  0.2986  0.0605
15392TIP3    H167667   5.031   0.363  14.653  0.1737  0.5176  0.0241
15392TIP3    H267668   4.929   0.334  14.546 -0.3162  0.7485  0.4231
15393TIP3   OH267669   5.283   0.887  11.395 -0.1260 -0.4614  0.2132
15393TIP3    H167670   5.306   0.847  11.311 -0.1568 -3.5413  1.5387
15393TIP3    H267671   5.193   0.860  11.411 -1.4335  3.0645 -0.2508
15394TIP3   OH267672   6.427   5.744  15.391 -0.6474 -0.3032  0.4177
15394TIP3    H167673   6.352   5.784  15.347 -0.2746 -0.7299 -0.6144
15394TIP3    H267674   6.500   5.804  15.373 -0.6280 -0.1397  1.0142
15395TIP3   OH267675   6.396   1.391  16.171 -0.1433 -0.6909  0.4631
15395TIP3    H167676   6.331   1.447  16.129  0.9520  0.0587 -0.3071
15395TIP3    H267677   6.356   1.304  16.173 -0.9324 -0.3684 -0.5155
15396TIP3   OH267678   6.300   1.026   0.663 -0.9347  0.3751  0.4477
15396TIP3    H167679   6.275   1.114   0.637  1.0487  0.9667  0.4478
15396TIP3    H267680   6.367   1.038   0.730 -0.1740 -1.1221  0.0155
15397TIP3   OH267681   4.040   5.093  13.565 -0.0773 -0.4049  0.0743
15397TIP3    H167682   4.036   4.998  13.577  1.6205 -0.5182  0.0030
15397TIP3    H267683   4.053   5.106  13.471  2.5034 -0.2838  0.3775
15398TIP3   OH267684   2.903   5.339   3.311 -0.1128 -0.0365 -0.3650
15398TIP3    H167685   2.865   5.294   3.236  1.2771 -2.7603  0.4699
15398TIP3    H267686   2.886   5.282   3.385  1.3772  1.0054  0.8488
15399TIP3   OH267687   2.728   3.687   6.345 -0.4063  0.2531 -1.1019
15399TIP3    H167688   2.766   3.703   6.258  0.2832  1.0349 -0.6662
15399TIP3    H267689   2.696   3.772   6.373 -0.5478  0.0203 -0.5531
15400TIP3   OH267690   5.240   6.711   5.451  0.4146  0.4681 -0.2031
15400TIP3    H167691   5.242   6.688   5.545  2.3123  0.2398 -0.2429
15400TIP3    H267692   5.148   6.707   5.427  0.1216 -2.5008  0.9504
15401TIP3   OH267693   5.460   4.336  12.653 -0.2614  0.1725  0.0742
15401TIP3    H167694   5.551   4.318  12.674  0.2648 -0.8063 -2.5957
15401TIP3    H267695   5.414   4.255  12.674 -0.2211  0.1129 -0.0658
15402TIP3   OH267696   0.623   4.182   3.898  0.7232  0.0636 -0.1630
15402TIP3    H167697   0.707   4.209   3.934  1.4638 -0.1181 -1.6612
15402TIP3    H267698   0.565   4.256   3.915  1.6769  0.9570 -0.7032
15403TIP3   OH267699   2.910   6.371  12.199 -0.1315  0.4310 -0.2633
15403TIP3    H167700   2.850   6.311  12.155  0.1206 -0.6924  0.8652
15403TIP3    H267701   2.853   6.438  12.238 -0.3625  1.3781 -2.1219
15404TIP3   OH267702   4.573   6.780  10.630 -0.0249 -0.6235  0.6967
15404TIP3    H167703   4.504   6.754  10.569  1.4278 -0.9348 -0.8853
15404TIP3    H267704   4.569   6.876  10.631 -1.6257 -0.6663  2.0430
15405TIP3   OH267705   4.483   2.817  14.971  0.0182 -0.3588  0.4082
15405TIP3    H167706   4.467   2.797  15.063 -1.5613  0.1829  0.2748
15405TIP3    H267707   4.406   2.785  14.925  0.5262 -0.0973 -0.6590
15406TIP3   OH267708   0.923   6.341   5.589  0.4937  0.1545  0.0664
15406TIP3    H167709   0.966   6.261   5.619  3.1921  1.5780  0.2927
15406TIP3    H267710   0.914   6.394   5.668 -2.2846 -0.2694  0.1217
15407TIP3   OH267711   0.001   5.407   0.955  0.0690  0.1301  0.1852
15407TIP3    H167712   0.062   5.347   0.912 -2.4425 -1.9796 -0.6875
15407TIP3    H267713   0.052   5.444   1.028  2.1522 -2.0895 -0.0028
15408TIP3   OH267714   6.341   6.173  15.590  0.4447  0.5162 -0.6816
15408TIP3    H167715   6.410   6.238  15.602  1.2618 -0.3870 -0.4176
15408TIP3    H267716   6.336   6.161  15.495  1.4286 -0.2232 -0.6518
15409TIP3   OH267717   2.473   5.569  12.606 -0.9694 -0.3846 -0.0920
15409TIP3    H167718   2.412   5.521  12.662 -1.6511 -1.0252 -1.3378
15409TIP3    H267719   2.535   5.503  12.575 -0.7425 -0.0843 -0.2850
15410TIP3   OH267720   0.037   0.697  14.266 -0.1593 -0.0252  0.2595
15410TIP3    H167721   0.017   0.675  14.175  0.8507 -1.3775  0.3284
15410TIP3    H267722  -0.017   0.773  14.285  1.3404  1.8453 -2.2360
15411TIP3   OH267723   3.304   1.095  14.302 -0.1577 -0.0167  0.0146
15411TIP3    H167724   3.223   1.123  14.345 -0.3643 -0.6780  0.0672
15411TIP3    H267725   3.347   1.038  14.366  0.2518  0.1764 -0.0890
15412TIP3   OH267726   6.299   6.261   3.432  0.1786  0.1039  0.1270
15412TIP3    H167727   6.355   6.253   3.509  0.5814  2.4056  0.1419
15412TIP3    H267728   6.323   6.345   3.393 -0.9633 -0.3739 -1.7567
15413TIP3   OH267729   6.293   1.248  10.702  0.3955 -0.4591 -0.0261
15413TIP3    H167730   6.330   1.176  10.754  0.6592  1.4788  2.7367
15413TIP3    H267731   6.348   1.251  10.624  3.8870 -0.0553  2.1858
15414TIP3   OH267732   1.129   5.855  15.413 -0.2494  0.1371  0.3783
15414TIP3    H167733   1.220   5.878  15.432 -0.2557  0.5312 -0.0587
15414TIP3    H267734   1.101   5.919  15.348 -0.4578 -0.7450 -0.4181
15415TIP3   OH267735   0.030   4.985  16.259 -0.0861 -0.6740 -0.5806
15415TIP3    H167736   0.119   4.966  16.228  1.0105  1.4046  1.0311
15415TIP3    H267737   0.012   4.916  16.323  0.4809 -0.9450 -0.7063
15416TIP3   OH267738   2.838   0.169   3.287  0.3132  0.2758 -0.3006
15416TIP3    H167739   2.829   0.081   3.252  0.5913 -0.9452  2.4881
15416TIP3    H267740   2.750   0.193   3.316  0.7883 -0.5182  1.9886
15417TIP3   OH267741   2.348   3.041   0.107  0.5177 -0.5726 -0.2449
15417TIP3    H167742   2.367   3.123   0.062  0.2776 -1.5987 -2.2916
15417TIP3    H267743   2.386   3.052   0.194  0.2532  1.7940 -0.3802
15418TIP3   OH267744   0.634   1.528  14.224 -0.0076 -0.3111  0.0176
15418TIP3    H167745   0.640   1.462  14.293 -0.7948 -0.2526  0.1508
15418TIP3    H267746   0.572   1.491  14.161  1.9288 -1.1230 -1.5353
15419TIP3   OH267747   1.811   5.988  15.610 -0.4618 -0.4356 -0.3676
15419TIP3    H167748   1.850   5.942  15.684  0.2360  0.9724  0.1872
15419TIP3    H267749   1.741   6.041  15.649 -1.0676 -0.8050 -0.9401
15420TIP3   OH267750   2.743   1.292  12.900  0.1148 -0.0726  0.3592
15420TIP3    H167751   2.813   1.308  12.964  1.0279  0.8052 -0.8116
15420TIP3    H267752   2.766   1.209  12.860  1.0988  0.6844 -0.7283
15421TIP3   OH267753   4.686   5.444   3.565  0.3979 -0.5833  0.6643
15421TIP3    H167754   4.591   5.443   3.579  0.3200  0.4651  0.2948
15421TIP3    H267755   4.710   5.352   3.560 -0.8804 -0.8785 -1.0211
15422TIP3   OH267756   2.719   3.760  16.838 -0.0554 -0.0027  0.5705
15422TIP3    H167757   2.742   3.688  16.779  0.7330  0.5546  0.1807
15422TIP3    H267758   2.713   3.837  16.782  0.3864  0.4766  1.1637
15423TIP3   OH267759   1.400   6.256   0.710  0.0512  0.0639  0.1689
15423TIP3    H167760   1.306   6.257   0.695 -0.0671  0.5663  0.8828
15423TIP3    H267761   1.415   6.327   0.773  0.6301 -1.3630  1.7052
15424TIP3   OH267762   3.299   1.987   5.027  0.3860 -0.2889 -0.2271
15424TIP3    H167763   3.344   2.052   4.972  0.3631  0.5199  0.6803
15424TIP3    H267764   3.361   1.969   5.098 -0.4227  0.3105  0.6530
15425TIP3   OH267765   5.770   3.614   0.083 -0.9321  0.6371  0.1554
15425TIP3    H167766   5.849   3.666   0.079 -0.5614  0.0374 -0.6066
15425TIP3    H267767   5.755   3.585  -0.007  0.0551 -2.2900  0.8188
15426TIP3   OH267768   0.346   4.462  10.575  0.3746  0.2030  0.1240
15426TIP3    H167769   0.258   4.490  10.553  0.2818 -0.4514 -0.3866
15426TIP3    H267770   0.353   4.373  10.538  1.6314  0.6799 -0.8928
15427TIP3   OH267771   2.625   3.495   3.893 -0.0577 -0.0532 -0.1979
15427TIP3    H167772   2.544   3.514   3.940 -0.9044  0.8277 -1.8885
15427TIP3    H267773   2.626   3.400   3.884  0.4053 -0.3032  1.9698
15428TIP3   OH267774   4.116   5.543  15.480 -0.2009  0.8047 -0.3235
15428TIP3    H167775   4.066   5.482  15.425 -0.4560  1.7528 -1.1803
15428TIP3    H267776   4.204   5.506  15.482 -0.0089  1.0849 -1.9538
15429TIP3   OH267777   0.671   3.928  16.115 -0.0772 -0.1214 -0.7697
15429TIP3    H167778   0.659   3.903  16.024  0.9810 -2.8803 -0.2369
15429TIP3    H267779   0.723   3.858  16.153  1.4125  2.0250  1.4655
15430TIP3   OH267780   4.427   2.037   3.806 -0.1448 -0.0229  0.3109
15430TIP3    H167781   4.333   2.019   3.795 -0.4621 -0.2680  2.8391
15430TIP3    H267782   4.461   1.959   3.849  1.2140  0.1357 -0.4362
15431TIP3   OH267783   3.201   5.911  15.706  0.9002  0.2339 -0.2989
15431TIP3    H167784   3.141   5.943  15.773  1.9829  2.3559 -0.2609
15431TIP3    H267785   3.246   5.837  15.747 -2.0736 -1.9121 -0.5755
15432TIP3   OH267786   2.309   5.920  14.070 -0.0656 -0.5563 -0.0984
15432TIP3    H167787   2.299   5.925  13.975 -0.8658  0.1709  0.0133
15432TIP3    H267788   2.296   5.827  14.091  1.0600 -0.8765 -0.7915
15433TIP3   OH267789   0.108   4.922  13.962 -0.2609 -0.1482 -0.1620
15433TIP3    H167790   0.037   4.933  13.899 -1.5456 -1.2717  0.9809
15433TIP3    H267791   0.125   4.827  13.962  1.0267  0.0686 -0.1773
15434TIP3   OH267792   4.164   2.111  14.939  0.0350  0.2666  0.2935
15434TIP3    H167793   4.253   2.077  14.936  0.2739  0.9073 -0.0704
15434TIP3    H267794   4.112   2.049  14.887 -0.2274 -1.4733  2.4929
15435TIP3   OH267795   3.754   5.674  14.435 -0.1384  0.1728  0.5587
15435TIP3    H167796   3.700   5.751  14.416 -1.0384 -0.6144 -0.1873
15435TIP3    H267797   3.696   5.616  14.485 -0.5104 -1.2910 -1.4549
15436TIP3   OH267798   5.862   5.847   5.104  0.5243  0.1549  0.5801
15436TIP3    H167799   5.895   5.936   5.092 -0.1095  0.5629  1.6881
15436TIP3    H267800   5.938   5.798   5.134  1.4582 -0.2660 -2.1672
15437TIP3   OH267801   0.805   3.609  14.398 -0.1660 -0.3940 -0.1039
15437TIP3    H167802   0.753   3.669  14.345  1.1967  0.4880 -0.4909
15437TIP3    H267803   0.783   3.632  14.488  1.0408  1.3729 -0.2227
15438TIP3   OH267804   6.843   4.393  14.613 -0.4273 -0.1860  0.2320
15438TIP3    H167805   6.856   4.483  14.644  0.4413 -0.0038 -0.6120
15438TIP3    H267806   6.930   4.353  14.619 -0.4120 -0.3992 -1.1247
15439TIP3   OH267807   6.339   5.705   5.895  0.8369 -0.2515  0.1344
15439TIP3    H167808   6.430   5.733   5.904  0.7102  0.2815 -0.2206
15439TIP3    H267809   6.306   5.755   5.821  0.0785  0.0205  0.6489
15440TIP3   OH267810   5.720   3.955  13.479  0.2779 -0.4562  0.1696
15440TIP3    H167811   5.748   3.961  13.571 -0.2252  0.4893  0.2747
15440TIP3    H267812   5.766   4.025  13.435 -0.1999 -0.3151 -0.1117
15441TIP3   OH267813   2.201   0.221   3.707 -0.1158 -0.4591  0.0807
15441TIP3    H167814   2.115   0.225   3.665 -0.9830  0.2984  1.8213
15441TIP3    H267815   2.213   0.307   3.746  0.9954 -0.8786  0.7163
15442TIP3   OH267816   1.885   2.415  12.973 -0.0591  0.1557 -0.1754
15442TIP3    H167817   1.895   2.349  13.042 -0.3618 -0.6524 -0.8722
15442TIP3    H267818   1.918   2.371  12.894 -0.8169  0.6291 -0.7678
15443TIP3   OH267819   5.658   5.258  11.282  0.2830  0.0581  0.6986
15443TIP3    H167820   5.665   5.176  11.233 -0.3186 -0.8121  2.0275
15443TIP3    H267821   5.744   5.269  11.322  0.5923  0.4729 -0.0499
15444TIP3   OH267822   4.906   3.760   2.880 -0.0212  0.3222 -0.4558
15444TIP3    H167823   4.907   3.846   2.924  2.7047  1.2280 -2.0601
15444TIP3    H267824   4.954   3.775   2.799 -1.0256 -2.3639 -1.6354
15445TIP3   OH267825   2.519   3.393   0.858  0.2047  0.5735  0.2437
15445TIP3    H167826   2.536   3.416   0.950 -0.1972  1.0232  0.2092
15445TIP3    H267827   2.569   3.458   0.808  0.6644  0.1458  0.1392
15446TIP3   OH267828   4.358   6.145   0.848 -0.6281  0.3468  0.4189
15446TIP3    H167829   4.421   6.214   0.868 -0.2582  0.2476 -0.3475
15446TIP3    H267830   4.273   6.183   0.870 -0.2107 -0.2248  3.3776
15447TIP3   OH267831   4.754   3.981   5.632 -0.1908 -0.2151  0.5204
15447TIP3    H167832   4.674   3.949   5.675 -0.8919  0.0842 -0.5094
15447TIP3    H267833   4.732   4.069   5.603  0.3908 -0.2622 -0.0886
15448TIP3   OH267834   1.616   3.968   5.643  1.0086 -0.2968 -0.3028
15448TIP3    H167835   1.669   4.000   5.570  1.5350 -1.0182 -0.2497
15448TIP3    H267836   1.526   3.968   5.610  1.2949 -1.0581 -1.1207
15449TIP3   OH267837   4.939   1.486   1.957 -0.4646  0.3519  0.0296
15449TIP3    H167838   5.015   1.433   1.980 -2.6111 -2.1176  2.0381
15449TIP3    H267839   4.888   1.430   1.898 -1.1351  1.6278 -0.6508
15450TIP3   OH267840   4.528   1.055  15.086 -0.5389  0.0210  0.4120
15450TIP3    H167841   4.616   1.072  15.119  0.6457  0.0740 -2.4910
15450TIP3    H267842   4.470   1.092  15.152  1.6845  2.8633  0.9653
15451TIP3   OH267843   3.320   6.319   3.935 -0.6379 -0.1124 -0.2734
15451TIP3    H167844   3.347   6.301   3.845 -0.1421 -1.0534  0.0463
15451TIP3    H267845   3.352   6.244   3.985 -0.8791  0.4103  0.6955
15452TIP3   OH267846   5.646   2.911   5.695  0.0779  0.5722  0.1359
15452TIP3    H167847   5.662   2.860   5.774  1.0799  1.0701  0.2821
15452TIP3    H267848   5.733   2.941   5.669 -0.2851  0.7300 -0.9441
15453TIP3   OH267849   5.581   2.723   2.879  0.4450 -0.4051  0.0377
15453TIP3    H167850   5.560   2.815   2.896 -1.1359 -1.0691  2.0893
15453TIP3    H267851   5.652   2.703   2.940  0.6225 -0.6249 -0.2396
15454TIP3   OH267852   3.457   2.786   0.625  0.0169  0.2323  0.2795
15454TIP3    H167853   3.435   2.744   0.708 -1.1154  0.5797  0.1727
15454TIP3    H267854   3.382   2.841   0.605  0.8181  1.1430 -0.3459
15455TIP3   OH267855   4.519   5.096  12.487 -0.0855  0.0116  0.5258
15455TIP3    H167856   4.483   5.046  12.414  1.8401  1.2719 -1.3819
15455TIP3    H267857   4.546   5.179  12.449 -0.5920  1.4383  3.0467
15456TIP3   OH267858   1.151   4.736   1.564 -0.0567 -0.2893 -0.1769
15456TIP3    H167859   1.112   4.823   1.558 -0.0475 -0.2560  0.2509
15456TIP3    H267860   1.092   4.686   1.620  0.0404 -0.5003 -0.2607
15457TIP3   OH267861   2.433   4.179  13.577 -0.4500 -0.2033  0.1696
15457TIP3    H167862   2.376   4.108  13.607 -1.3295  0.9059  1.2135
15457TIP3    H267863   2.494   4.136  13.516 -1.5941 -1.6536 -0.0244
15458TIP3   OH267864   6.454   0.728   3.774  0.0846 -0.1984 -0.1071
15458TIP3    H167865   6.460   0.766   3.687  1.5511  1.5993  0.6926
15458TIP3    H267866   6.405   0.792   3.825  3.0914  1.0893  1.4135
15459TIP3   OH267867   4.527   2.420  13.755 -0.1977 -0.1514  0.9811
15459TIP3    H167868   4.578   2.356  13.804  0.3671 -0.7699 -0.3584
15459TIP3    H267869   4.577   2.502  13.764  1.8364 -0.9966 -1.3207
15460TIP3   OH267870   3.827   3.271   3.129 -0.3979 -0.3007 -0.2922
15460TIP3    H167871   3.801   3.333   3.061 -0.0733 -2.2555 -2.2968
15460TIP3    H267872   3.918   3.294   3.149 -0.5775  0.4400 -0.2974
15461TIP3   OH267873   1.869   0.079   0.722  0.0837  0.2610  0.0005
15461TIP3    H167874   1.943   0.018   0.731  0.0277  0.1528 -0.2769
15461TIP3    H267875   1.907   0.155   0.678 -0.0700  0.0232 -0.5472
15462TIP3   OH267876   3.001   1.295  15.431  0.2181  0.2367  0.1373
15462TIP3    H167877   2.979   1.202  15.436 -0.5330  0.4703  1.6150
15462TIP3    H267878   3.096   1.296  15.414  0.4255 -0.8090  1.1445
15463TIP3   OH267879   2.192   4.910   0.219  0.3605 -1.0002  0.3278
15463TIP3    H167880   2.248   4.988   0.222 -0.0784 -0.5893 -1.1354
15463TIP3    H267881   2.215   4.868   0.136 -0.8837 -1.2770  0.1046
15464TIP3   OH267882   5.743   4.167  16.406 -0.2235  0.3251 -0.0916
15464TIP3    H167883   5.768   4.243  16.352 -0.1783  1.0966  0.9905
15464TIP3    H267884   5.660   4.192  16.445  0.1609  0.1199  0.8698
15465TIP3   OH267885   4.836   2.141   4.893  0.1632  0.4482 -0.6018
15465TIP3    H167886   4.824   2.235   4.883  0.2842  0.3465 -1.9253
15465TIP3    H267887   4.778   2.102   4.827  1.8568 -0.2920 -1.7502
15466TIP3   OH267888   5.183   6.706  12.489  0.5858  0.1589  0.0469
15466TIP3    H167889   5.215   6.616  12.491  1.2031  0.3896  1.9454
15466TIP3    H267890   5.118   6.710  12.559 -1.3547  0.5481 -1.6724
15467TIP3   OH267891   2.032   4.543  13.632 -0.2586 -0.2948  0.3692
15467TIP3    H167892   1.963   4.515  13.572 -0.5516  0.3772  0.3777
15467TIP3    H267893   2.083   4.464  13.650 -0.4365 -0.5917 -0.4100
15468TIP3   OH267894   4.845   2.289   1.121  0.2913  0.5665  0.4468
15468TIP3    H167895   4.839   2.244   1.036  1.1773  0.5638  0.3808
15468TIP3    H267896   4.756   2.320   1.137  0.1253  0.6418 -0.5294
15469TIP3   OH267897   1.556   4.176  16.631  0.2659  0.2081  0.2931
15469TIP3    H167898   1.528   4.151  16.719 -1.7131  1.0154 -0.0489
15469TIP3    H267899   1.572   4.093  16.587 -0.2410 -0.2654  0.9740
15470TIP3   OH267900   0.256   4.996  16.785 -0.5325 -0.6697 -0.0012
15470TIP3    H167901   0.278   5.054  16.858  1.1606  0.4639 -1.3498
15470TIP3    H267902   0.304   4.915  16.803 -0.7326 -0.6746  0.5186
15471TIP3   OH267903   1.357   3.903  12.396  0.3543  0.1539  0.1846
15471TIP3    H167904   1.319   3.977  12.349  1.2779 -0.5300 -1.7239
15471TIP3    H267905   1.452   3.917  12.390  0.5282 -0.9730  0.1199
15472TIP3   OH267906   3.471   2.440   3.582 -0.5163 -0.3681  0.4841
15472TIP3    H167907   3.381   2.445   3.548 -0.2595  0.4419 -0.1131
15472TIP3    H267908   3.498   2.531   3.592  0.7174 -0.5696 -0.6698
15473TIP3   OH267909   5.827   5.057  15.985 -0.7511  0.7492 -0.1383
15473TIP3    H167910   5.806   5.013  16.067 -0.1340 -0.7217 -0.7343
15473TIP3    H267911   5.743   5.093  15.955 -1.2096  0.2577  0.5395
15474TIP3   OH267912   3.905   5.409   0.928 -0.2128 -0.6905  0.3079
15474TIP3    H167913   3.992   5.435   0.958 -1.1571  0.6575  2.0007
15474TIP3    H267914   3.923   5.345   0.858  2.1103 -0.7189  0.8347
15475TIP3   OH267915   0.888   2.777   3.972  0.0782  0.4083 -0.1427
15475TIP3    H167916   0.819   2.716   3.999 -0.7657  1.6545  0.6330
15475TIP3    H267917   0.841   2.856   3.945  1.1393  0.6886 -1.2747
15476TIP3   OH267918   1.632   1.552   0.416  0.0864  0.0329 -0.0526
15476TIP3    H167919   1.662   1.613   0.483  0.7763  0.7555 -0.9996
15476TIP3    H267920   1.640   1.600   0.334 -1.1853 -0.6758 -0.6243
15477TIP3   OH267921   6.610   0.152  15.576  0.4519 -0.1957  0.3124
15477TIP3    H167922   6.698   0.188  15.580 -0.0887  1.1453  3.2353
15477TIP3    H267923   6.620   0.060  15.599  0.9746  0.5098  3.3765
15478TIP3   OH267924   4.199   0.220  15.017  0.1992 -0.0898  0.1496
15478TIP3    H167925   4.170   0.281  15.085  1.5899 -0.0344  0.7261
15478TIP3    H267926   4.165   0.135  15.045 -2.1428  0.4204 -0.8944
15479TIP3   OH267927   6.186   0.843   0.836  0.1667  0.7885 -0.1991
15479TIP3    H167928   6.179   0.768   0.777 -2.1097  1.6864 -1.1841
15479TIP3    H267929   6.237   0.907   0.788  0.4782  0.5736 -0.1527
15480TIP3   OH267930   2.607   5.173   3.393 -0.4412 -0.2669  0.3447
15480TIP3    H167931   2.562   5.090   3.408  2.3992 -1.9999  0.1718
15480TIP3    H267932   2.687   5.166   3.446  1.0770  1.2636 -1.5943
15481TIP3   OH267933   2.822   4.079  13.004 -0.0702  0.1403 -0.2018
15481TIP3    H167934   2.797   4.164  13.042 -1.7430 -0.0578 -0.7600
15481TIP3    H267935   2.783   4.080  12.917 -1.6250 -1.8616  0.3907
15482TIP3   OH267936   1.782   1.096  12.649  0.2019  0.9439 -0.1479
15482TIP3    H167937   1.827   1.122  12.729  2.1299  0.7305 -1.0846
15482TIP3    H267938   1.816   1.008  12.630 -1.4686  0.3008 -0.3441
15483TIP3   OH267939   3.624   5.887   1.488 -0.1057  0.0425 -0.0072
15483TIP3    H167940   3.692   5.952   1.505  1.6926 -2.0999  1.6288
15483TIP3    H267941   3.637   5.820   1.556 -2.9324 -1.2194 -0.5503
15484TIP3   OH267942   3.429   3.108  11.084  0.3357 -0.0431 -0.5767
15484TIP3    H167943   3.463   3.056  11.012  0.5573  0.5039 -0.8766
15484TIP3    H267944   3.507   3.140  11.130  0.1960 -0.5165  0.0057
15485TIP3   OH267945   5.620   4.560   0.443  0.0691 -0.2682  0.3371
15485TIP3    H167946   5.579   4.582   0.526 -0.5564 -1.7895  0.4645
15485TIP3    H267947   5.628   4.643   0.397  1.3594  0.7867  2.2973
15486TIP3   OH267948   3.217   5.166  15.894 -0.5613  0.2693  0.2500
15486TIP3    H167949   3.207   5.074  15.918 -0.3798 -0.0850 -0.9897
15486TIP3    H267950   3.306   5.189  15.923 -0.4468 -0.0707  0.1715
15487TIP3   OH267951   1.993   4.757  15.282  0.0019  0.5944  1.1417
15487TIP3    H167952   1.983   4.770  15.377 -0.0467 -2.4114  1.6586
15487TIP3    H267953   2.085   4.733  15.271 -0.0307  0.7771  0.4359
15488TIP3   OH267954   2.409   5.212   0.778  0.4335  0.4306  0.0069
15488TIP3    H167955   2.378   5.230   0.689  0.7261  0.1141 -0.1612
15488TIP3    H267956   2.338   5.242   0.835 -0.2625 -0.4195 -0.3785
15489TIP3   OH267957   0.875   4.073   5.821  0.6039  0.5078 -0.8031
15489TIP3    H167958   0.788   4.051   5.789  0.1624  2.3413 -1.0065
15489TIP3    H267959   0.869   4.067   5.917  0.9367 -1.5690 -0.8705
15490TIP3   OH267960   4.200   0.590  16.621 -0.3792 -0.2902 -0.2549
15490TIP3    H167961   4.143   0.624  16.551 -0.7625 -0.9533 -0.2691
15490TIP3    H267962   4.210   0.497  16.601  1.3920 -0.0406 -0.7130
15491TIP3   OH267963   0.564   6.187  10.989  0.2200  0.4489  0.5453
15491TIP3    H167964   0.537   6.097  10.976 -0.8975  0.6059  1.6252
15491TIP3    H267965   0.492   6.228  11.036 -0.7192  2.7711 -2.5913
15492TIP3   OH267966   0.908   2.099  15.872  0.0083 -0.0853  0.6078
15492TIP3    H167967   0.997   2.129  15.893 -0.2135  0.1478  1.2693
15492TIP3    H267968   0.855   2.131  15.946 -0.2699 -2.0147  1.2943
15493TIP3   OH267969   6.165   2.127   2.545 -0.2586 -0.0019 -0.3631
15493TIP3    H167970   6.093   2.128   2.608 -0.5121 -0.1816 -0.6506
15493TIP3    H267971   6.233   2.074   2.588 -0.6401 -0.5898 -0.4632
15494TIP3   OH267972   5.095   6.740  16.359  1.0998 -0.0415 -0.5222
15494TIP3    H167973   5.039   6.769  16.431  2.3103 -2.2319  1.4168
15494TIP3    H267974   5.154   6.676  16.398  2.2546 -0.8661 -3.3538
15495TIP3   OH267975   1.187   0.963   5.665  0.1757  0.1102 -0.2870
15495TIP3    H167976   1.111   0.994   5.715  0.6486 -0.0470  0.5555
15495TIP3    H267977   1.252   1.033   5.675  0.2265  0.1405 -0.8113
15496TIP3   OH267978   3.049   3.741  12.100  0.2523 -0.5953 -0.5261
15496TIP3    H167979   3.133   3.751  12.055  0.8206 -0.8781  0.4557
15496TIP3    H267980   3.053   3.804  12.172 -0.1276 -1.0510 -0.1076
15497TIP3   OH267981   5.727   6.684  11.789 -0.3715 -0.1135  0.3876
15497TIP3    H167982   5.800   6.628  11.815 -0.6613 -1.0875 -0.7633
15497TIP3    H267983   5.666   6.680  11.863 -0.0177 -0.6705  0.6572
15498TIP3   OH267984   4.249   0.443   1.815  0.1082  0.5937 -0.0442
15498TIP3    H167985   4.329   0.495   1.807 -0.2204  1.1264  0.0544
15498TIP3    H267986   4.186   0.502   1.858  0.3821 -0.5920  2.1130
15499TIP3   OH267987   0.671   4.831   1.813  0.8557  0.1228  0.4234
15499TIP3    H167988   0.609   4.869   1.751 -2.3625 -2.5822  1.7128
15499TIP3    H267989   0.753   4.827   1.764 -0.5734  1.4739 -2.3295
15500TIP3   OH267990   5.521   2.939   4.717  0.3274  0.4969 -0.4199
15500TIP3    H167991   5.476   2.903   4.640  1.0329 -0.0162 -0.6034
15500TIP3    H267992   5.465   2.915   4.791 -0.2966  0.8920 -0.7611
15501TIP3   OH267993   6.507   3.823   1.437 -0.3221  0.0030  0.3741
15501TIP3    H167994   6.412   3.834   1.440 -0.2002  1.0955  0.5338
15501TIP3    H267995   6.522   3.732   1.462 -1.2603  0.1716  1.6474
15502TIP3   OH267996   2.322   3.720   4.786  0.2136 -0.0989  0.5558
15502TIP3    H167997   2.255   3.669   4.740 -0.4574  0.3565  1.0115
15502TIP3    H267998   2.359   3.659   4.850 -0.2828 -0.1445  0.8028
15503TIP3   OH267999   0.880   6.366   1.454 -0.1948  0.4081 -0.4550
15503TIP3    H168000   0.866   6.378   1.548  1.6132 -1.5628  0.1627
15503TIP3    H268001   0.975   6.376   1.443 -0.2826 -0.1488 -1.9278
15504TIP3   OH268002   2.755   4.394  17.060  0.3081  0.4774 -0.1851
15504TIP3    H168003   2.707   4.457  17.113 -0.7236 -0.2206 -0.2513
15504TIP3    H268004   2.763   4.316  17.116 -0.0428  0.0320 -0.7386
15505TIP3   OH268005   6.045   3.499  12.442 -0.0306  0.0612 -0.1159
15505TIP3    H168006   6.133   3.462  12.437 -0.8002 -1.8547 -0.1783
15505TIP3    H268007   5.987   3.424  12.434 -1.6825  1.1963  0.6899
15506TIP3   OH268008   4.100   0.684   5.218  0.9743 -0.4194 -0.0057
15506TIP3    H168009   4.084   0.597   5.253  1.2038 -1.0575 -1.4061
15506TIP3    H268010   4.189   0.679   5.181  1.5661  0.8418  1.1325
15507TIP3   OH268011   6.663   2.454  11.373 -1.0505  0.2586 -0.5677
15507TIP3    H168012   6.667   2.484  11.282 -4.5692 -0.9534 -1.3019
15507TIP3    H268013   6.652   2.534  11.425 -2.5571  0.7928 -1.6425
15508TIP3   OH268014   3.399   6.496  11.138 -0.0335  0.2374  0.3538
15508TIP3    H168015   3.461   6.496  11.211 -0.5545 -1.4085  0.8258
15508TIP3    H268016   3.339   6.424  11.157 -0.9803  0.6214 -1.0356
15509TIP3   OH268017   1.896   2.432   0.235  0.1080 -0.1843  0.2794
15509TIP3    H168018   1.805   2.405   0.240 -0.3368  0.7420 -1.8436
15509TIP3    H268019   1.932   2.381   0.162  0.1991  2.1978 -1.4380
15510TIP3   OH268020   6.091   0.176   3.716  0.1804 -0.2340 -0.1294
15510TIP3    H168021   5.998   0.154   3.706 -0.2552  1.9027 -1.7611
15510TIP3    H268022   6.090   0.262   3.758  1.4382 -0.3001  0.0578
15511TIP3   OH268023   2.331   2.238   3.493  0.4770 -0.2326 -0.2102
15511TIP3    H168024   2.345   2.327   3.461  2.7565 -0.3618  0.2897
15511TIP3    H268025   2.240   2.219   3.470  0.5583  1.4348 -2.2308
15512TIP3   OH268026   3.603   2.775  14.403 -0.0668 -0.5586  0.3695
15512TIP3    H168027   3.642   2.813  14.483  0.7409  0.2281 -0.3725
15512TIP3    H268028   3.678   2.763  14.344 -0.2500 -3.5037  0.6026
15513TIP3   OH268029   1.792   1.463  11.582  0.4789  0.0391  0.4379
15513TIP3    H168030   1.777   1.425  11.495 -2.1537  1.0510  0.3646
15513TIP3    H268031   1.709   1.451  11.628  2.6521 -3.3906  4.1084
15514TIP3   OH268032   5.447   1.906  12.217 -0.1999 -0.1668 -0.3000
15514TIP3    H168033   5.396   1.825  12.217 -0.0926 -0.2348 -0.1188
15514TIP3    H268034   5.400   1.964  12.157 -0.0595 -0.5018 -0.7411
15515TIP3   OH268035   6.696   5.448  14.204 -0.0412 -0.0256 -0.3692
15515TIP3    H168036   6.720   5.355  14.209  1.0437  0.2228 -0.8371
15515TIP3    H268037   6.664   5.469  14.292  1.4562 -0.3831  0.2860
15516TIP3   OH268038   0.118   1.877  12.639  0.5570 -0.0143 -0.3127
15516TIP3    H168039   0.032   1.876  12.680  0.6588  0.3522 -0.0895
15516TIP3    H268040   0.113   1.810  12.570 -0.2357  0.7014 -0.9722
15517TIP3   OH268041   1.704   5.894   3.867 -0.6595 -0.9020 -0.3551
15517TIP3    H168042   1.636   5.827   3.858 -1.2492 -0.0633 -2.8044
15517TIP3    H268043   1.757   5.885   3.788  0.3067  0.3751  0.1154
15518TIP3   OH268044   4.627   3.016  15.615  0.3813  0.2651  0.0914
15518TIP3    H168045   4.640   3.109  15.635  2.7349 -0.3945  2.0157
15518TIP3    H268046   4.534   3.001  15.634  0.5446  1.6790  2.3844
15519TIP3   OH268047   0.718   3.025   5.360  0.3695  0.0553  0.4214
15519TIP3    H168048   0.757   2.959   5.417  0.4776 -1.2876 -1.1275
15519TIP3    H268049   0.780   3.098   5.360  0.7188 -0.2382  1.3996
15520TIP3   OH268050   4.891   4.374  14.079  0.4827 -0.3731 -0.3794
15520TIP3    H168051   4.948   4.408  14.149 -0.5631  1.7535 -0.4763
15520TIP3    H268052   4.818   4.333  14.126  1.0406 -1.2394 -0.2520
15521TIP3   OH268053   4.668   6.083  13.946 -0.5985 -0.6750  0.1968
15521TIP3    H168054   4.761   6.092  13.925 -0.7203 -1.3997 -0.7178
15521TIP3    H268055   4.624   6.144  13.886 -0.7793 -1.0469 -0.0534
15522TIP3   OH268056   5.629   4.787  14.020 -0.2393  0.1395 -0.1043
15522TIP3    H168057   5.549   4.839  14.012  0.6691  1.7350  0.7764
15522TIP3    H268058   5.654   4.796  14.112  0.4614 -1.1160 -0.1503
15523TIP3   OH268059   0.736   1.124   0.433  0.0139  0.0096  0.3313
15523TIP3    H168060   0.791   1.047   0.444  0.0893  0.2006  1.4033
15523TIP3    H268061   0.750   1.150   0.342  0.7010 -0.6969  0.2218
15524TIP3   OH268062   6.430   3.832   1.846 -0.0317  0.0237 -0.3193
15524TIP3    H168063   6.522   3.814   1.826 -0.2558 -2.1400  0.3525
15524TIP3    H268064   6.416   3.794   1.933 -1.5661  0.3125 -0.4073
15525TIP3   OH268065   2.727   5.693  16.180 -0.2428  0.3294  0.1781
15525TIP3    H168066   2.771   5.725  16.259  1.0633  0.2872 -0.4963
15525TIP3    H268067   2.778   5.731  16.108 -0.8822 -0.3363 -0.6398
15526TIP3   OH268068   6.069   1.018  12.061 -0.1670 -0.8719 -0.2784
15526TIP3    H168069   5.975   1.038  12.062 -0.2259 -1.1206  1.2888
15526TIP3    H268070   6.076   0.933  12.103  0.6130 -1.7522 -2.0756
15527TIP3   OH268071   1.878   1.891  14.205  0.3392  0.8898 -0.1852
15527TIP3    H168072   1.783   1.883  14.213  0.3659  0.1196 -0.5734
15527TIP3    H268073   1.913   1.841  14.279  0.4637  0.0600 -0.8030
15528TIP3   OH268074   4.516   4.507  14.032  0.1217  0.2545 -0.1529
15528TIP3    H168075   4.549   4.425  14.068 -1.5754 -1.2007 -1.6751
15528TIP3    H268076   4.431   4.519  14.073  0.2519  1.1589 -0.1183
15529TIP3   OH268077   1.396   3.140  14.957  0.2277 -0.1463  0.0797
15529TIP3    H168078   1.435   3.102  14.879 -0.7735  0.9696 -1.0098
15529TIP3    H268079   1.402   3.234  14.944  1.3011  0.1123  2.0186
15530TIP3   OH268080   6.361   4.179   1.070  0.0466 -0.4768  0.4043
15530TIP3    H168081   6.313   4.253   1.033  0.8022  1.1338  2.4402
15530TIP3    H268082   6.297   4.132   1.124 -0.2979 -1.0062 -0.4508
15531TIP3   OH268083   4.930   6.737  12.353 -0.0232  0.3879  0.1343
15531TIP3    H168084   4.985   6.766  12.280  0.9911  0.5795  0.9581
15531TIP3    H268085   4.889   6.656  12.321  2.2856 -0.8898  0.1873
15532TIP3   OH268086   6.447   4.238  10.799 -0.1910 -0.1743 -0.1081
15532TIP3    H168087   6.467   4.330  10.816 -0.3139 -0.1061 -0.3230
15532TIP3    H268088   6.528   4.192  10.819 -0.5776 -0.2082  1.4614
15533TIP3   OH268089   5.538   6.342   0.569  0.0534  0.2708  0.3339
15533TIP3    H168090   5.606   6.400   0.603 -0.4238 -0.3963  2.6023
15533TIP3    H268091   5.520   6.375   0.481  1.1322  2.3573  0.8315
15534TIP3   OH268092   6.333   2.679   2.682 -0.4324 -0.1810  0.5463
15534TIP3    H168093   6.334   2.670   2.778 -0.1538 -0.6613  0.5007
15534TIP3    H268094   6.247   2.649   2.655 -0.4394 -0.2362  0.6300
15535TIP3   OH268095   6.615   1.851   3.243  0.1814  0.0570 -0.0843
15535TIP3    H168096   6.597   1.800   3.321 -1.0781  1.1858  0.4150
15535TIP3    H268097   6.709   1.841   3.228  0.5427  0.2058  1.8446
15536TIP3   OH268098   5.147   5.821  16.933  0.0453  0.0217 -0.3837
15536TIP3    H168099   5.169   5.807  17.025 -1.0799  0.9061  0.0481
15536TIP3    H268100   5.224   5.865  16.897  0.5673 -0.4952  0.0844
15537TIP3   OH268101   5.481   2.389   2.050  0.5066 -0.1996 -0.1745
15537TIP3    H168102   5.405   2.441   2.079 -0.8257 -1.2880 -1.5757
15537TIP3    H268103   5.536   2.384   2.128 -0.3902  1.4002  0.6360
15538TIP3   OH268104   2.564   4.243  14.372 -0.1738  1.0590  0.4290
15538TIP3    H168105   2.565   4.312  14.305 -0.9918  0.8372  0.1832
15538TIP3    H268106   2.475   4.210  14.371  0.4754 -0.7932 -0.2697
15539TIP3   OH268107   4.720   5.683   2.081  0.2334 -0.1367  0.1336
15539TIP3    H168108   4.645   5.678   2.141 -0.2127 -0.5055 -0.4498
15539TIP3    H268109   4.707   5.610   2.020  0.2368  0.7412 -0.9322
15540TIP3   OH268110   5.548   2.697  16.565  0.5740  0.1088  0.3591
15540TIP3    H168111   5.585   2.695  16.476  0.8183  0.2916  0.4556
15540TIP3    H268112   5.623   2.677  16.622  0.4012 -0.0871  0.5214
15541TIP3   OH268113   6.564   6.219   5.535 -0.6372  0.4474 -0.1261
15541TIP3    H168114   6.491   6.268   5.573  0.7415  1.9598  0.7192
15541TIP3    H268115   6.576   6.257   5.448 -0.3769  0.7288  0.0322
15542TIP3   OH268116   1.934   6.403  11.024 -0.1708  1.1678 -0.1158
15542TIP3    H168117   1.956   6.325  10.972  1.0934 -0.2756  2.4334
15542TIP3    H268118   1.847   6.428  10.992 -0.0623 -0.4914 -1.9201
15543TIP3   OH268119   4.144   5.946   4.505 -0.2419  0.5619  0.0900
15543TIP3    H168120   4.228   5.917   4.469 -1.2552  0.5503 -2.4909
15543TIP3    H268121   4.106   5.867   4.544  1.1818  0.7201  1.9515
15544TIP3   OH268122   2.515   4.362   1.062  0.3362 -0.1552  0.3901
15544TIP3    H168123   2.525   4.453   1.089 -1.6825  0.7348 -1.5465
15544TIP3    H268124   2.439   4.329   1.110 -0.3392 -0.0696 -0.5960
15545TIP3   OH268125   2.659   1.159   1.879  0.5346  0.0515 -0.4350
15545TIP3    H168126   2.617   1.212   1.947  1.2455  0.2495 -0.1348
15545TIP3    H268127   2.739   1.127   1.920  1.1887  0.5137 -1.3096
15546TIP3   OH268128   5.957   4.776   4.489 -0.3515 -0.2146  0.1903
15546TIP3    H168129   5.932   4.754   4.400 -0.5172 -0.3486  0.2701
15546TIP3    H268130   5.989   4.866   4.483 -1.3753  0.1632  0.1781
15547TIP3   OH268131   1.935   2.568  11.611 -0.5917 -0.2531 -0.3378
15547TIP3    H168132   2.005   2.624  11.576  1.6535 -2.5960  0.1264
15547TIP3    H268133   1.910   2.609  11.694  2.7641 -1.1057  1.2424
15548TIP3   OH268134   4.020   3.151  11.709  0.2740 -0.3230 -0.3746
15548TIP3    H168135   3.969   3.232  11.703  0.7156 -0.0008  0.1295
15548TIP3    H268136   4.042   3.130  11.619  1.3030  0.8697 -0.4329
15549TIP3   OH268137   5.388   1.001  16.537  0.0956 -0.3275 -0.4085
15549TIP3    H168138   5.369   1.027  16.447  1.0325  0.1943 -0.4619
15549TIP3    H268139   5.479   0.971  16.536  0.5598  0.9308  0.6095
15550TIP3   OH268140   0.468   6.311   1.208  0.7643 -0.1063  0.4854
15550TIP3    H168141   0.393   6.301   1.150  0.9488  0.0677  0.2136
15550TIP3    H268142   0.457   6.398   1.246 -0.0722 -0.7266  1.7485
15551TIP3   OH268143   1.936   6.281  13.221  0.2209 -0.4927  0.0315
15551TIP3    H168144   2.020   6.244  13.194  1.0030  0.6032  0.8692
15551TIP3    H268145   1.929   6.363  13.171  0.0355 -0.1796  0.5701
15552TIP3   OH268146   1.132   5.744  12.056 -0.0921  0.1392 -0.2602
15552TIP3    H168147   1.143   5.669  12.114 -0.8704  0.5171  0.3827
15552TIP3    H268148   1.208   5.800  12.075 -1.0787  0.9746  1.5100
15553TIP3   OH268149   2.588   3.608   4.570  0.5486 -0.2971  0.2646
15553TIP3    H168150   2.561   3.539   4.631  0.8227  0.2493  1.0111
15553TIP3    H268151   2.654   3.566   4.515 -0.6852 -1.1926 -0.5671
15554TIP3   OH268152   5.025   1.286  12.305  0.0558 -0.0951  0.6513
15554TIP3    H168153   5.001   1.356  12.367 -0.7087 -0.3298  0.6319
15554TIP3    H268154   5.027   1.330  12.220 -0.3773 -0.0787  0.6451
15555TIP3   OH268155   1.323   5.047   4.539  0.3818  0.1986 -0.0163
15555TIP3    H168156   1.357   5.098   4.613 -2.3818  1.2596  0.6230
15555TIP3    H268157   1.259   4.987   4.579 -1.7044  1.2847 -1.5585
15556TIP3   OH268158   6.612   2.807  15.336  0.4368 -0.0204 -0.1198
15556TIP3    H168159   6.636   2.748  15.265  2.2491 -0.4531  0.7928
15556TIP3    H268160   6.661   2.775  15.412  1.2265  2.4273  0.4945
15557TIP3   OH268161   5.100   2.672   4.353  0.0685  0.7669  0.0723
15557TIP3    H168162   5.046   2.708   4.423  1.4114  0.5341  1.2851
15557TIP3    H268163   5.070   2.582   4.341 -1.4170  1.3611 -1.0088
15558TIP3   OH268164   0.847   2.770  16.733  0.2990  0.0293 -0.2163
15558TIP3    H168165   0.867   2.808  16.818  0.1938  0.8010 -0.5209
15558TIP3    H268166   0.774   2.823  16.700 -1.1098 -1.6081  0.1303
15559TIP3   OH268167   5.609   5.380  11.676 -0.6815 -0.5133  0.0375
15559TIP3    H168168   5.698   5.362  11.644  0.3374  3.4817  0.0099
15559TIP3    H268169   5.597   5.474  11.660 -4.7674 -0.7622  0.5546
15560TIP3   OH268170   4.975   6.668   2.293  0.6568 -0.7553 -0.8318
15560TIP3    H168171   5.031   6.690   2.219  2.8523  0.6681  1.1004
15560TIP3    H268172   4.976   6.573   2.298  0.4679 -0.8753 -2.5655
15561TIP3   OH268173   5.155   1.263  12.972  0.3141 -0.3936 -0.5776
15561TIP3    H168174   5.250   1.254  12.984 -0.0563 -1.6309  2.0520
15561TIP3    H268175   5.121   1.175  12.985 -1.1871 -0.1304 -2.3472
15562TIP3   OH268176   5.510   1.307   2.358 -0.4381  0.7230 -0.5911
15562TIP3    H168177   5.510   1.276   2.267  1.1591  0.0606 -0.3954
15562TIP3    H268178   5.587   1.364   2.364 -0.8265  1.1780  0.2196
15563TIP3   OH268179   3.112   5.104  16.909  0.0937 -0.3314 -0.0638
15563TIP3    H168180   3.105   5.188  16.954 -0.8515  1.2944 -2.9529
15563TIP3    H268181   3.189   5.113  16.853  0.0049 -1.4250 -0.3847
15564TIP3   OH268182   1.640   4.772  16.433  0.2191 -0.1202 -0.5567
15564TIP3    H168183   1.588   4.769  16.513 -0.2899  1.4514 -0.7952
15564TIP3    H268184   1.728   4.797  16.462 -0.4051  2.4564 -0.5936
15565TIP3   OH268185   3.124   0.792   5.791 -0.0196 -0.3298  0.5860
15565TIP3    H168186   3.152   0.774   5.881 -0.3645 -1.1293  0.5393
15565TIP3    H268187   3.169   0.873   5.768  0.1744 -0.1833  1.4337
15566TIP3   OH268188   5.703   4.873  14.297 -0.2837  0.3502  0.2995
15566TIP3    H168189   5.680   4.966  14.300 -1.6522  0.0158  1.5691
15566TIP3    H268190   5.740   4.854  14.383 -0.9273 -0.4695  0.4163
15567TIP3   OH268191   4.516   2.410   0.501  0.1357  0.2823  0.7761
15567TIP3    H168192   4.595   2.453   0.536 -0.5927  2.3355  0.0514
15567TIP3    H268193   4.464   2.389   0.578  1.9678 -2.4925  1.4005
15568TIP3   OH268194   2.009   6.068  12.223 -0.1816  0.1417  0.3290
15568TIP3    H168195   1.970   6.065  12.136  2.4595  0.3573 -0.9479
15568TIP3    H268196   2.025   5.976  12.246  1.2830  0.1490 -0.5223
15569TIP3   OH268197   2.437   5.339   1.418 -0.0522 -0.7755 -0.0858
15569TIP3    H168198   2.487   5.380   1.490  0.2773 -1.5012  0.1110
15569TIP3    H268199   2.497   5.274   1.382  0.2632  0.4359 -1.8713
15570TIP3   OH268200   0.843   0.542   0.849  0.6778 -0.1855 -0.0300
15570TIP3    H168201   0.844   0.499   0.934 -0.2235  0.9571  0.5798
15570TIP3    H268202   0.760   0.515   0.809  1.1044 -0.7338 -0.5704
15571TIP3   OH268203   0.432   5.535   3.769 -0.1896 -0.1819 -0.1719
15571TIP3    H168204   0.373   5.579   3.830  0.5375  0.1759  0.2856
15571TIP3    H268205   0.463   5.605   3.712  0.4017 -0.2337  0.0886
15572TIP3   OH268206   0.926   6.835   2.274 -0.5572  0.2849  0.0125
15572TIP3    H168207   0.935   6.746   2.308 -2.1955  0.8213  2.1156
15572TIP3    H268208   0.835   6.840   2.245  0.3724  0.3436 -3.2800
15573TIP3   OH268209   0.385   3.952  11.002  0.4783 -0.1216  0.4777
15573TIP3    H168210   0.413   3.896  10.930 -0.6982  2.5324 -2.2707
15573TIP3    H268211   0.380   4.040  10.964 -1.2679  1.2836  3.5364
15574TIP3   OH268212   4.833   6.818  16.666  0.0305  0.0955  0.1985
15574TIP3    H168213   4.764   6.752  16.665 -1.1945  1.3295  0.2953
15574TIP3    H268214   4.799   6.890  16.613  1.6036  0.4122 -0.4608
15575TIP3   OH268215   3.145   2.902  13.736  0.0031 -0.0996 -0.3178
15575TIP3    H168216   3.067   2.938  13.693  0.2642 -0.8898 -1.5029
15575TIP3    H268217   3.218   2.944  13.689  0.3251  1.0716  1.1546
15576TIP3   OH268218   2.421   0.298  16.531 -0.0417 -0.0965  0.6397
15576TIP3    H168219   2.494   0.242  16.505 -0.0575  1.2349 -2.7329
15576TIP3    H268220   2.349   0.238  16.548  0.9270 -1.2480  0.8347
15577TIP3   OH268221   0.381   3.231  14.359 -0.3705  0.1957 -0.0819
15577TIP3    H168222   0.410   3.257  14.272 -1.4240  0.9612 -0.2218
15577TIP3    H268223   0.440   3.160  14.384  0.3777  0.4281 -1.1282
15578TIP3   OH268224   1.852   0.519   5.739  0.5693 -0.1326  0.0033
15578TIP3    H168225   1.853   0.601   5.789 -0.5855 -0.0316 -0.1223
15578TIP3    H268226   1.783   0.530   5.674  0.9614 -0.8938 -0.5721
15579TIP3   OH268227   1.565   0.779   4.953  0.9160 -0.8611 -0.3563
15579TIP3    H168228   1.573   0.685   4.968  0.2129 -0.5708  2.2294
15579TIP3    H268229   1.655   0.809   4.940  1.0618 -2.0015 -2.5549
15580TIP3   OH268230   1.892   5.279   5.004 -0.2254  0.5548 -0.6794
15580TIP3    H168231   1.865   5.313   4.919 -0.1980  0.4769 -0.7201
15580TIP3    H268232   1.954   5.344   5.037  1.5466 -0.5030 -1.7475
15581TIP3   OH268233   5.716   6.489  16.144 -0.3741  0.1321 -0.2803
15581TIP3    H168234   5.676   6.484  16.057  0.8356 -0.3024 -0.8202
15581TIP3    H268235   5.691   6.407  16.186  0.9264 -0.6934 -1.0601
15582TIP3   OH268236   2.889   6.659  15.005  0.5398  0.4760 -0.0531
15582TIP3    H168237   2.849   6.745  15.015 -0.6650 -0.2601  1.9649
15582TIP3    H268238   2.887   6.620  15.092  0.4613 -1.8415 -0.9975
15583TIP3   OH268239   5.598   3.353   0.713  0.1972 -0.1253 -0.6292
15583TIP3    H168240   5.511   3.368   0.751  0.0792 -1.6371 -0.2187
15583TIP3    H268241   5.604   3.257   0.704  2.5679 -0.2507  1.2380
15584TIP3   OH268242   1.803   5.168  13.816 -0.9800 -0.4742  0.5788
15584TIP3    H168243   1.807   5.094  13.755 -0.7865  0.7921 -1.0168
15584TIP3    H268244   1.717   5.206  13.802  0.2492  1.8414 -1.4742
15585TIP3   OH268245   1.093   3.515  11.137 -0.0175  0.0770  0.0743
15585TIP3    H168246   1.089   3.419  11.129  0.5295  0.1190 -0.8538
15585TIP3    H268247   1.006   3.545  11.112  0.0633 -0.1360 -0.4767
15586TIP3   OH268248   6.111   2.583  11.955 -0.3483  0.7046 -0.6809
15586TIP3    H168249   6.037   2.612  12.008  0.3786 -0.7995  1.3062
15586TIP3    H268250   6.188   2.615  12.003  0.4851 -3.6901  1.3906
15587TIP3   OH268251   0.761   1.278  13.877 -0.1662 -0.0699  0.0334
15587TIP3    H168252   0.682   1.296  13.928  0.0035 -1.2197  0.7248
15587TIP3    H268253   0.772   1.356  13.822 -1.7283  0.1469 -0.0172
15588TIP3   OH268254   0.777   0.586   5.466  0.3129 -0.0690 -0.2227
15588TIP3    H168255   0.778   0.669   5.418 -0.7773  0.5866  0.8045
15588TIP3    H268256   0.833   0.528   5.415  0.8597  1.2032 -1.1398
15589TIP3   OH268257   5.297   2.337   3.474  0.0560  0.3240  0.0532
15589TIP3    H168258   5.336   2.251   3.489  0.4127  0.7826  2.0026
15589TIP3    H268259   5.216   2.318   3.426 -0.8523 -1.3246  2.0992
15590TIP3   OH268260   6.505   3.499   0.758 -0.0090 -0.6234 -0.5077
15590TIP3    H168261   6.455   3.485   0.839  0.1894 -0.0861 -0.2937
15590TIP3    H268262   6.438   3.512   0.692 -0.1735 -1.0743 -0.4391
15591TIP3   OH268263   2.812   4.883  14.641  0.1517  0.3482  0.0499
15591TIP3    H168264   2.802   4.921  14.554  1.4862  0.4471 -0.0698
15591TIP3    H268265   2.825   4.958  14.699  2.6602  0.1655 -0.1682
15592TIP3   OH268266   2.133   0.327   5.413 -0.7831 -0.5418  0.4799
15592TIP3    H168267   2.132   0.245   5.462  1.1505 -2.0556 -1.7557
15592TIP3    H268268   2.206   0.376   5.452 -0.1201 -1.1478  0.0304
15593TIP3   OH268269   2.732   6.858  13.923 -0.1676 -0.4382  0.1584
15593TIP3    H168270   2.750   6.924  13.990 -0.1722 -0.3813  0.1043
15593TIP3    H268271   2.803   6.868  13.860 -1.9197  1.8091 -1.6318
15594TIP3   OH268272   4.268   4.109   2.455  0.3007  0.4155  0.0640
15594TIP3    H168273   4.299   4.160   2.530  0.2263 -0.5143  0.7475
15594TIP3    H268274   4.344   4.056   2.430 -0.4607 -1.3392  1.2875
15595TIP3   OH268275   4.301   5.864   5.013  0.2242  0.2811 -0.0777
15595TIP3    H168276   4.248   5.812   5.073 -1.4988  0.3512 -1.4707
15595TIP3    H268277   4.358   5.915   5.071 -0.2953 -0.7487  1.4255
15596TIP3   OH268278   1.373   2.733  15.016 -0.0722 -0.2003  0.1820
15596TIP3    H168279   1.405   2.812  15.060  3.6848  0.5740 -3.2524
15596TIP3    H268280   1.314   2.766  14.948  0.4527 -0.4361 -0.4008
15597TIP3   OH268281   3.531   3.077   1.584 -0.1167 -0.0723 -0.4274
15597TIP3    H168282   3.510   3.057   1.493  0.7830 -0.7219 -0.5111
15597TIP3    H268283   3.455   3.125   1.616  0.7590  2.8839 -2.3835
15598TIP3   OH268284   6.756   4.499  14.145  0.8076  0.2871  0.6139
15598TIP3    H168285   6.774   4.541  14.230 -2.7045  2.7582  0.3343
15598TIP3    H268286   6.719   4.569  14.091 -1.1970 -2.1808 -1.4633
15599TIP3   OH268287   0.233   2.268  11.909  0.4128  0.5324  0.0889
15599TIP3    H168288   0.206   2.196  11.853  1.4047 -0.1500  0.4531
15599TIP3    H268289   0.323   2.288  11.881 -0.0083  1.9854 -0.3514
15600TIP3   OH268290   4.870   3.079   0.200  0.4914  0.2162 -0.1569
15600TIP3    H168291   4.782   3.063   0.234 -0.6037  2.2920 -1.8205
15600TIP3    H268292   4.912   3.135   0.265  0.3890 -0.2861  0.3486
15601TIP3   OH268293   0.921   1.831   0.598 -0.2051  0.0447  0.2941
15601TIP3    H168294   0.979   1.776   0.545  0.2297  0.2006  0.6060
15601TIP3    H268295   0.930   1.798   0.687  0.5720  1.0427  0.6011
15602TIP3   OH268296   3.358   1.652   5.625 -0.3151 -1.2627 -0.0125
15602TIP3    H168297   3.293   1.614   5.565 -1.1670 -2.0723  1.3770
15602TIP3    H268298   3.417   1.580   5.645 -1.1569 -1.5614  1.5868
15603TIP3   OH268299   5.078   6.103   2.707 -0.4563 -0.0685 -0.3559
15603TIP3    H168300   5.076   6.105   2.802 -1.4149 -1.4149 -0.3229
15603TIP3    H268301   5.163   6.142   2.684  0.5836 -1.3660  1.1080
15604TIP3   OH268302   1.191   3.117   3.855 -0.1766  0.0745  0.1371
15604TIP3    H168303   1.260   3.128   3.789 -1.2680 -0.4995 -1.1439
15604TIP3    H268304   1.224   3.163   3.932  1.8308 -0.5547 -0.2872
15605TIP3   OH268305   2.181   5.634  16.279  0.7146  0.3530 -0.2037
15605TIP3    H168306   2.172   5.598  16.191 -1.6131  0.4395 -0.0722
15605TIP3    H268307   2.133   5.573  16.335  1.1813  0.9062  0.8288
15606TIP3   OH268308   5.413   2.217  16.807  0.9355  0.3129 -0.0139
15606TIP3    H168309   5.463   2.151  16.854  2.0465 -0.1551 -1.7464
15606TIP3    H268310   5.474   2.290  16.797 -0.4405  1.9319  2.3586
15607TIP3   OH268311   5.626   0.583   6.538 -0.0240 -0.4397  0.9574
15607TIP3    H168312   5.715   0.565   6.566 -0.2395 -2.7068  0.3276
15607TIP3    H268313   5.572   0.559   6.613 -0.1581  0.3622  1.1257
15608TIP3   OH268314   1.296   3.806   1.475 -0.3343  0.1860 -0.3967
15608TIP3    H168315   1.325   3.722   1.440 -0.2983  1.0853 -2.7701
15608TIP3    H268316   1.246   3.785   1.553 -0.4989 -2.0493 -1.0489
15609TIP3   OH268317   4.996   6.258  13.622 -0.1246 -0.1791  1.0991
15609TIP3    H168318   4.906   6.233  13.644 -0.4565 -0.5746 -0.5707
15609TIP3    H268319   5.033   6.180  13.581  0.2202  0.6783 -0.2906
15610TIP3   OH268320   6.342   1.853   2.887 -0.8556 -0.2286 -0.4258
15610TIP3    H168321   6.292   1.774   2.871  0.2207 -0.8404 -0.8781
15610TIP3    H268322   6.357   1.890   2.800 -1.3513  0.4868 -0.2193
15611TIP3   OH268323   3.364   4.312  15.475 -0.2091 -0.3923  0.3503
15611TIP3    H168324   3.429   4.243  15.491 -0.0228  0.0587  1.7024
15611TIP3    H268325   3.298   4.298  15.543 -0.8679 -0.0546 -0.2116
15612TIP3   OH268326   2.978   0.286  13.208 -0.1349 -0.4895  0.0368
15612TIP3    H168327   3.053   0.332  13.245 -1.5924  1.9840  0.1995
15612TIP3    H268328   2.966   0.325  13.121 -0.8437 -1.3197 -0.2530
15613TIP3   OH268329   4.448   2.944  13.146  0.3299 -0.1969  0.0617
15613TIP3    H168330   4.530   2.936  13.195  1.1236 -0.0983 -1.2329
15613TIP3    H268331   4.453   3.031  13.106 -0.7075  0.0749  0.4846
15614TIP3   OH268332   6.583   5.938  16.821  0.4173  0.0729 -0.0463
15614TIP3    H168333   6.581   6.012  16.882 -0.3532 -0.5909  0.7655
15614TIP3    H268334   6.572   5.861  16.877 -0.7536 -0.5301 -1.0637
15615TIP3   OH268335   6.467   2.837  15.626 -0.2388  0.4760 -0.2285
15615TIP3    H168336   6.496   2.747  15.641  1.5872  0.8268 -1.3715
15615TIP3    H268337   6.418   2.834  15.544  0.7548  0.6729 -0.8475
15616TIP3   OH268338   6.662   5.959   2.357  0.1049 -0.1956  0.5720
15616TIP3    H168339   6.682   5.896   2.427 -1.6164 -1.1759  0.2425
15616TIP3    H268340   6.632   6.037   2.403 -0.4484 -0.6242  0.9528
15617TIP3   OH268341   5.870   4.313  11.069  0.0040  0.5865 -0.2944
15617TIP3    H168342   5.823   4.231  11.057 -0.2840  0.7858 -0.5363
15617TIP3    H268343   5.828   4.353  11.146  0.6945  0.1253  0.3396
15618TIP3   OH268344   1.995   2.372  15.337 -0.0961  0.5356 -0.3910
15618TIP3    H168345   2.026   2.363  15.428  1.2217  0.1411 -0.8494
15618TIP3    H268346   1.950   2.290  15.319 -0.1644  0.5213 -0.1561
15619TIP3   OH268347   6.796   3.634  13.945  0.6163  0.0205  0.1928
15619TIP3    H168348   6.776   3.703  13.881 -1.7615 -0.6867  0.0814
15619TIP3    H268349   6.785   3.677  14.030  0.3640  0.0863  0.1278
15620TIP3   OH268350   0.550   5.070  12.860 -0.5612 -0.0134  0.0073
15620TIP3    H168351   0.614   5.127  12.817 -1.2041  0.4494 -0.3674
15620TIP3    H268352   0.591   5.044  12.942 -0.1593  0.8179  0.0796
15621TIP3   OH268353   5.377   4.333   2.591 -0.2009 -1.0948 -0.1341
15621TIP3    H168354   5.387   4.317   2.685 -0.3169  0.2370  0.1182
15621TIP3    H268355   5.462   4.306   2.554 -0.3257 -2.0885  0.2699
15622TIP3   OH268356   1.928   5.379   0.784  0.1429 -0.3389  0.5298
15622TIP3    H168357   1.938   5.357   0.691 -1.8047  0.0468  0.1932
15622TIP3    H268358   1.902   5.297   0.826 -0.4252 -0.1980  0.4628
15623TIP3   OH268359   0.413   4.054  11.240 -1.1156 -0.2778  0.1774
15623TIP3    H168360   0.407   4.026  11.149  0.0759 -3.5531  0.9585
15623TIP3    H268361   0.505   4.079  11.251 -0.8491 -1.4500  0.8060
15624TIP3   OH268362   3.582   4.707  14.407  0.2422  0.1692 -0.1384
15624TIP3    H168363   3.583   4.778  14.343 -3.1901  0.9870  0.4974
15624TIP3    H268364   3.665   4.661  14.394  1.5838  2.9021 -2.1222
15625TIP3   OH268365   5.697   1.146   5.502  0.0275  0.2422 -0.6219
15625TIP3    H168366   5.617   1.109   5.464 -0.1791  0.0727 -0.0327
15625TIP3    H268367   5.670   1.179   5.587  0.8718 -1.1441  0.2364
15626TIP3   OH268368   6.765   4.961  12.639  0.0655  0.5752 -0.2057
15626TIP3    H168369   6.681   4.925  12.668  0.3569  1.6605  2.3290
15626TIP3    H268370   6.830   4.912  12.688  0.8021  0.8877 -0.8497
15627TIP3   OH268371   5.035   5.107  11.117 -0.4226 -0.6295 -0.3448
15627TIP3    H168372   4.998   5.091  11.030 -0.1967  0.0459 -0.5725
15627TIP3    H268373   5.124   5.073  11.112 -0.6568 -1.2809 -0.1338
15628TIP3   OH268374   5.185   3.478  16.387  0.0001  0.0159  0.2090
15628TIP3    H168375   5.113   3.444  16.441 -1.7867  1.4725 -1.1112
15628TIP3    H268376   5.226   3.400  16.349 -1.3682 -0.8417  0.4370
15629TIP3   OH268377   6.511   2.476   3.125  0.1449 -0.2986 -0.0891
15629TIP3    H168378   6.516   2.562   3.167 -2.5723 -0.0991 -0.0322
15629TIP3    H268379   6.469   2.420   3.189  1.5670 -1.6347 -0.2636
15630TIP3   OH268380   3.214   1.089   4.100  0.2019 -0.5711 -0.5931
15630TIP3    H168381   3.231   1.089   4.006  2.7800 -2.7397 -0.2516
15630TIP3    H268382   3.275   1.155   4.135 -1.0166  0.5041 -0.4229
15631TIP3   OH268383   6.359   4.950   4.616  0.0253 -0.0317  0.5700
15631TIP3    H168384   6.295   5.007   4.574  0.3667 -1.2640 -1.7416
15631TIP3    H268385   6.421   5.010   4.658 -0.0800  1.2929 -1.0868
15632TIP3   OH268386   4.339   0.484   4.276  0.2938 -0.0760 -0.1526
15632TIP3    H168387   4.357   0.520   4.189  1.4277 -0.8711 -0.2662
15632TIP3    H268388   4.291   0.554   4.321  0.3186  0.6193 -1.1667
15633TIP3   OH268389   5.788   3.474   4.081  0.4645  0.2924  0.0049
15633TIP3    H168390   5.836   3.510   4.156 -1.0791  1.6725  0.3803
15633TIP3    H268391   5.718   3.537   4.064 -0.2764 -0.8665 -1.5117
15634TIP3   OH268392   4.658   3.693   4.649  0.1205 -0.1281 -0.0979
15634TIP3    H168393   4.653   3.778   4.695 -1.1583 -1.3613  2.2394
15634TIP3    H268394   4.739   3.653   4.683  1.4191  0.5968 -2.1631
15635TIP3   OH268395   5.608   5.705  15.320 -0.3673  0.6511  1.3131
15635TIP3    H168396   5.700   5.715  15.346 -0.0488 -1.7714  1.3454
15635TIP3    H268397   5.611   5.642  15.248 -1.9687  0.9553  0.9637
15636TIP3   OH268398   4.084   0.434   0.169  0.7190 -0.3294 -0.2789
15636TIP3    H168399   4.138   0.479   0.234  0.1910  0.8853 -0.6718
15636TIP3    H268400   4.121   0.460   0.085 -0.7996  0.9974 -0.5824
15637TIP3   OH268401   5.100   3.633   3.951 -0.6501 -0.2989 -0.6719
15637TIP3    H168402   5.151   3.558   3.921  1.3672  1.5418 -2.1611
15637TIP3    H268403   5.165   3.694   3.985 -2.1597  1.0095 -0.0091
15638TIP3   OH268404   2.263   0.395   2.616 -0.4111 -0.4477  0.5909
15638TIP3    H168405   2.185   0.347   2.587 -0.6253 -0.1628  0.6890
15638TIP3    H268406   2.335   0.358   2.565 -0.9758  1.0339 -1.4164
15639TIP3   OH268407   0.709   5.468   2.601  0.0297 -0.2065  0.9906
15639TIP3    H168408   0.736   5.418   2.678  1.9520 -0.7349  0.0366
15639TIP3    H268409   0.700   5.403   2.532  0.0994  0.4664  0.3331
15640TIP3   OH268410   6.017   4.670  11.855  0.0246 -0.1990  0.4853
15640TIP3    H168411   6.109   4.695  11.855 -0.3548  1.4284  2.0311
15640TIP3    H268412   6.002   4.634  11.943 -1.4994  2.7023  1.5646
15641TIP3   OH268413   1.341   3.114  13.499 -0.4961 -0.9527  0.0380
15641TIP3    H168414   1.352   3.130  13.593  1.9237 -0.4874 -0.2612
15641TIP3    H268415   1.364   3.021  13.488 -1.7765 -1.2878  0.0029
15642TIP3   OH268416   5.893   4.540  12.507  0.6436  0.8538  0.4474
15642TIP3    H168417   5.943   4.620  12.522  1.6482  0.0228  1.7565
15642TIP3    H268418   5.942   4.472  12.553 -1.1739 -0.1868  0.9459
15643TIP3   OH268419   2.614   2.536  12.644 -0.4755  0.0276  0.2594
15643TIP3    H168420   2.524   2.566  12.629 -1.0101 -2.2070 -1.6307
15643TIP3    H268421   2.648   2.519  12.556  0.9890 -1.3502  1.0431
15644TIP3   OH268422   0.490   2.197  11.863  0.3070 -0.0277 -0.2805
15644TIP3    H168423   0.520   2.179  11.952 -1.6964 -0.7199  0.3082
15644TIP3    H268424   0.433   2.123  11.841 -0.5877  0.9696 -1.4662
15645TIP3   OH268425   1.791   5.751  15.401  0.1051  0.6162 -0.1732
15645TIP3    H168426   1.837   5.795  15.472 -1.6304  0.4566  1.1189
15645TIP3    H268427   1.808   5.804  15.324  1.2309  1.3418  0.5460
15646TIP3   OH268428   5.793   1.252  15.309 -0.5909  0.0609 -0.0809
15646TIP3    H168429   5.725   1.317  15.292 -1.2410 -1.0822 -2.1852
15646TIP3    H268430   5.857   1.298  15.363 -2.0211  1.7927  0.2323
15647TIP3   OH268431   5.858   4.496   0.236  0.2522 -0.3450 -0.0755
15647TIP3    H168432   5.875   4.472   0.145  0.7763  0.0432 -0.0878
15647TIP3    H268433   5.819   4.417   0.275  2.5862 -1.5033  0.0805
15648TIP3   OH268434   0.106   3.172   3.612 -0.4706 -0.0863 -0.2843
15648TIP3    H168435   0.125   3.086   3.650 -3.4010 -0.6880  0.0911
15648TIP3    H268436   0.079   3.226   3.686 -0.5961  0.5260 -0.7716
15649TIP3   OH268437   5.073   6.328  14.135 -0.1101 -0.2193 -0.5381
15649TIP3    H168438   4.994   6.309  14.186 -1.5448  1.8455 -1.8839
15649TIP3    H268439   5.108   6.408  14.173  1.0723 -0.8023 -0.3256
15650TIP3   OH268440   2.016   4.402  15.440 -0.6569  0.5409  0.1974
15650TIP3    H168441   1.927   4.436  15.439  0.0087  2.3537 -0.2319
15650TIP3    H268442   2.046   4.408  15.350 -0.4019 -1.0064  0.1397
15651TIP3   OH268443   0.754   4.351   2.075 -0.1309 -0.1500 -0.0418
15651TIP3    H168444   0.687   4.334   2.009  0.3177  0.7017 -0.7515
15651TIP3    H268445   0.769   4.446   2.070  0.0206 -0.0898  1.1944
15652TIP3   OH268446   2.577   5.062  11.864  0.4569  0.3038  0.0400
15652TIP3    H168447   2.499   5.016  11.895  2.2066 -1.6370  1.9125
15652TIP3    H268448   2.557   5.155  11.876 -1.0630 -0.1888  1.8043
15653TIP3   OH268449   2.308   5.164   4.211 -0.0633  0.1300 -0.2150
15653TIP3    H168450   2.264   5.109   4.146  0.3993 -0.2258 -0.2334
15653TIP3    H268451   2.259   5.246   4.210 -0.7586 -0.2786 -0.1875
15654TIP3   OH268452   4.455   1.592   0.120 -0.5241 -0.0579 -0.1177
15654TIP3    H168453   4.436   1.673   0.166  0.3405 -0.0693  0.2742
15654TIP3    H268454   4.548   1.576   0.136 -0.5137 -0.7449 -0.7907
15655TIP3   OH268455   4.850   4.146  14.962  1.0714  0.1111  0.2115
15655TIP3    H168456   4.907   4.222  14.946 -0.6352  1.6161  0.9568
15655TIP3    H268457   4.901   4.090  15.020  1.7479  1.4912  0.9977
15656TIP3   OH268458   5.997   2.647  13.292  0.0680  0.4923 -0.0789
15656TIP3    H168459   5.938   2.634  13.217  0.0323 -0.3125  0.0790
15656TIP3    H268460   6.079   2.678  13.253 -0.0002  0.2263 -0.4397
15657TIP3   OH268461   1.707   3.620  12.701 -0.1133  0.0437  0.8880
15657TIP3    H168462   1.707   3.649  12.610  0.2506  0.8375  1.1326
15657TIP3    H268463   1.732   3.528  12.697  0.9580  0.3419  0.2585
15658TIP3   OH268464   2.146   5.133   5.689 -0.0783  0.5017 -0.0766
15658TIP3    H168465   2.215   5.124   5.755 -0.7747  1.6519  0.8559
15658TIP3    H268466   2.074   5.081   5.723  0.1585 -0.3029 -0.8046
15659TIP3   OH268467   4.154   2.193  11.834 -0.2309 -0.0973  0.4807
15659TIP3    H168468   4.156   2.119  11.894  1.6536 -0.3131  0.1905
15659TIP3    H268469   4.167   2.270  11.890 -2.7247  0.1452  0.8572
15660TIP3   OH268470   5.981   3.805   0.083  0.5639  0.1233  0.2718
15660TIP3    H168471   5.934   3.821   0.002 -0.0034  0.8561  0.7373
15660TIP3    H268472   6.072   3.825   0.062  0.6522 -1.0587 -0.5622
15661TIP3   OH268473   4.476   1.313  12.208  0.5176  0.1405 -0.3949
15661TIP3    H168474   4.430   1.232  12.187 -2.1546  0.9401  1.8320
15661TIP3    H268475   4.542   1.287  12.272  1.1320 -0.5550 -1.2889
15662TIP3   OH268476   3.675   0.736  13.323  0.4100  0.1294 -0.1184
15662TIP3    H168477   3.650   0.698  13.407  1.4693 -1.0368 -0.2921
15662TIP3    H268478   3.751   0.790  13.342 -1.0638  2.2683  0.1170
15663TIP3   OH268479   6.858   3.084   3.356  0.6086 -0.1778 -0.0462
15663TIP3    H168480   6.817   3.001   3.381 -0.2183  0.1822 -0.1761
15663TIP3    H268481   6.939   3.087   3.406  0.5146 -0.9450  0.1571
15664TIP3   OH268482   0.825   3.055  13.994  0.1701  0.7474 -0.2673
15664TIP3    H168483   0.914   3.078  14.020  0.7537 -0.4089 -1.1272
15664TIP3    H268484   0.835   3.011  13.909 -1.1427  0.0494 -0.0955
15665TIP3   OH268485   6.374   3.489  11.379 -0.0838 -0.7583  0.2563
15665TIP3    H168486   6.311   3.424  11.409 -0.2263 -0.9826 -0.5135
15665TIP3    H268487   6.414   3.522  11.459  0.6654 -2.4681  0.6343
15666TIP3   OH268488   1.822   5.091  15.288  0.1898  0.1889 -0.5123
15666TIP3    H168489   1.863   5.171  15.255 -0.0201  0.8512  0.7625
15666TIP3    H268490   1.858   5.082  15.376  1.2629 -1.8938 -1.1016
15667TIP3   OH268491   4.100   0.234  13.598 -0.5208  0.1806 -0.5547
15667TIP3    H168492   4.013   0.261  13.628 -0.7654 -2.0118  0.9101
15667TIP3    H268493   4.152   0.226  13.677  0.0286 -1.7781 -1.0693
15668TIP3   OH268494   0.577   3.131  11.234  0.1172 -0.2488  0.2677
15668TIP3    H168495   0.543   3.150  11.147 -1.1873 -1.1755  0.5371
15668TIP3    H268496   0.666   3.100  11.220 -0.1898 -0.7007 -0.7743
15669TIP3   OH268497   5.149   4.562   1.729 -0.0881  0.1886 -0.6635
15669TIP3    H168498   5.231   4.515   1.711  1.0264  1.9285 -0.3554
15669TIP3    H268499   5.110   4.515   1.803  1.2032  0.0018 -0.0723
15670TIP3   OH268500   1.156   3.475  15.403  0.3034 -0.6615  0.2552
15670TIP3    H168501   1.226   3.435  15.350  2.4145  0.7952  1.7677
15670TIP3    H268502   1.148   3.417  15.479  1.9391  0.5647  1.4501
15671TIP3   OH268503   1.145   4.243   2.174  0.5445 -0.0544  0.4409
15671TIP3    H168504   1.183   4.218   2.258 -1.2511 -0.7799  1.0710
15671TIP3    H268505   1.051   4.250   2.191  0.0501 -0.8994 -1.6545
15672TIP3   OH268506   0.123   5.324   1.202  0.4657 -0.0257  0.0476
15672TIP3    H168507   0.215   5.345   1.185  0.2018  0.5975 -0.6818
15672TIP3    H268508   0.117   5.318   1.298  2.0675 -3.9281  0.0987
15673TIP3   OH268509   3.813   2.841  10.532 -0.0559  0.5168  0.3217
15673TIP3    H168510   3.884   2.786  10.564  1.5747  1.1877 -1.9040
15673TIP3    H268511   3.741   2.780  10.514  0.8615 -0.5335  0.1381
15674TIP3   OH268512   1.238   6.001  11.411  0.1017 -0.3402  0.0045
15674TIP3    H168513   1.203   5.914  11.391  0.4632 -0.3264 -0.7371
15674TIP3    H268514   1.292   6.023  11.335 -0.7556  0.9408 -0.2659
15675TIP3   OH268515   1.950   5.603  14.488  0.7327 -0.4435 -0.3382
15675TIP3    H168516   2.013   5.652  14.435  0.4523  0.0409 -0.2279
15675TIP3    H268517   1.908   5.544  14.425 -0.5651  1.0722 -0.9771
15676TIP3   OH268518   2.192   3.196  13.562  0.1579 -0.3798 -0.2679
15676TIP3    H168519   2.187   3.276  13.509 -0.1361 -0.6320 -0.6277
15676TIP3    H268520   2.286   3.175  13.565  0.1114 -0.8873 -1.4985
15677TIP3   OH268521   1.196   3.474  14.409 -0.4532 -0.9114 -0.2317
15677TIP3    H168522   1.187   3.511  14.321 -0.7010 -0.5182 -0.0456
15677TIP3    H268523   1.268   3.524  14.448 -0.1986 -1.2348 -0.2859
15678TIP3   OH268524   6.216   6.568   3.846 -0.2562  0.1299  0.3316
15678TIP3    H168525   6.308   6.541   3.848  1.2749  4.3679 -0.3189
15678TIP3    H268526   6.191   6.562   3.754  0.1046  0.8717  0.1763
15679TIP3   OH268527   3.222   3.456  12.371 -0.1985 -0.3604 -0.0644
15679TIP3    H168528   3.145   3.407  12.400 -0.9720  0.7850 -0.1441
15679TIP3    H268529   3.247   3.509  12.447  1.5962 -1.9749  0.5629
15680TIP3   OH268530   1.801   3.285  11.663  0.5589 -0.1397 -0.5528
15680TIP3    H168531   1.716   3.242  11.652  1.4301 -1.8659 -0.7806
15680TIP3    H268532   1.826   3.267  11.753 -0.2783  2.2774  0.2459
15681TIP3   OH268533   1.428   2.270  13.219  0.0174 -0.4655 -0.6650
15681TIP3    H168534   1.372   2.311  13.286 -1.2891  0.1219 -2.0502
15681TIP3    H268535   1.475   2.343  13.180  2.6875 -1.0593  1.1981
15682TIP3   OH268536   6.397   3.266   4.276 -0.2937  0.3332 -0.1375
15682TIP3    H168537   6.410   3.199   4.209 -0.3313 -1.7728  1.8641
15682TIP3    H268538   6.479   3.269   4.324 -0.0683  2.2222 -0.5552
15683TIP3   OH268539   1.573   1.902  13.719  0.0118  0.0096 -0.0101
15683TIP3    H168540   1.636   1.933  13.783  2.0502  0.2438 -2.0028
15683TIP3    H268541   1.626   1.876  13.644 -2.1169 -2.0918 -0.9001
15684TIP3   OH268542   4.615   1.986  14.710  0.0961  0.1476 -0.1461
15684TIP3    H168543   4.689   1.959  14.656 -0.1289 -1.7384  0.4293
15684TIP3    H268544   4.538   1.955  14.661 -0.0897 -2.2997  1.5242
15685TIP3   OH268545   2.119   5.971   2.541  0.3752  0.2227  0.5407
15685TIP3    H168546   2.161   5.903   2.593  1.0543 -0.4916 -0.8728
15685TIP3    H268547   2.101   5.930   2.456 -0.5037  1.3906  0.1181
15686TIP3   OH268548   1.471   0.172  13.233 -0.0419 -0.2575 -0.2801
15686TIP3    H168549   1.417   0.122  13.294  0.3805 -2.9226 -1.9236
15686TIP3    H268550   1.561   0.151  13.258  0.1626  0.1310 -0.6727
15687TIP3   OH268551   2.914   6.616   4.409 -0.1994  1.0838 -0.2326
15687TIP3    H168552   2.947   6.617   4.498 -0.6913 -1.0631  0.0407
15687TIP3    H268553   2.976   6.560   4.361 -1.7873 -0.6975 -0.3454
15688TIP3   OH268554   0.178   3.817  12.683  0.0151 -0.5454 -0.2607
15688TIP3    H168555   0.152   3.781  12.598  0.0544 -1.9457  0.3064
15688TIP3    H268556   0.179   3.912  12.669 -0.5804 -0.7231 -1.6482
15689TIP3   OH268557   0.245   6.420  12.841 -0.6300 -0.2226  0.7101
15689TIP3    H168558   0.174   6.451  12.785  0.2653 -0.0016 -0.3489
15689TIP3    H268559   0.219   6.445  12.929 -1.7729  0.0185  0.3157
15690TIP3   OH268560   1.584   1.799   5.613  0.0310 -0.4039 -0.2757
15690TIP3    H168561   1.649   1.864   5.640 -0.3703  0.3939 -1.1935
15690TIP3    H268562   1.582   1.736   5.686  0.1331  0.8074  0.8183
15691TIP3   OH268563   3.594   1.846   3.520  0.2608 -0.0677 -0.0057
15691TIP3    H168564   3.528   1.832   3.452 -0.0082  0.4845  0.1357
15691TIP3    H268565   3.547   1.828   3.602 -0.1646  1.8016  0.2033
15692TIP3   OH268566   2.793   4.305   3.339 -0.1447  0.1107  0.1578
15692TIP3    H168567   2.826   4.236   3.396  0.1136 -0.1609 -0.3120
15692TIP3    H268568   2.815   4.387   3.384 -0.2356 -0.1030  0.5987
15693TIP3   OH268569   4.907   4.852  13.195  0.4536 -0.6917 -0.2365
15693TIP3    H168570   4.949   4.933  13.226 -0.6642 -0.7393  1.5480
15693TIP3    H268571   4.965   4.782  13.225  1.4005 -0.5892 -1.7465
15694TIP3   OH268572   5.318   5.984   1.162  0.5374  0.1323  0.2594
15694TIP3    H168573   5.399   5.942   1.133 -0.0540 -0.6711 -0.3117
15694TIP3    H268574   5.250   5.946   1.105 -0.1826  1.0816  0.4526
15695TIP3   OH268575   4.239   6.037  14.996  0.2477  0.0153 -0.0945
15695TIP3    H168576   4.182   5.967  15.027  1.6697 -1.3901 -0.4903
15695TIP3    H268577   4.281   6.000  14.918  1.5049  1.0553  0.0534
15696TIP3   OH268578   2.240   4.551   1.035  0.0221 -0.0618 -0.2173
15696TIP3    H168579   2.268   4.527   1.123 -0.2701 -1.3841 -0.4716
15696TIP3    H268580   2.298   4.623   1.010  0.9800 -0.5527  0.5485
15697TIP3   OH268581   5.694   4.472  14.321 -0.0485  0.2317 -0.7756
15697TIP3    H168582   5.609   4.514  14.311 -0.4256  0.8739  3.4453
15697TIP3    H268583   5.748   4.536  14.366  0.8941 -1.9910  1.5033
15698TIP3   OH268584   5.198   2.524   0.142  0.3619 -0.5363  0.0026
15698TIP3    H168585   5.112   2.541   0.180  0.1134 -1.7915  0.0738
15698TIP3    H268586   5.222   2.605   0.099 -0.1833  0.3244  1.2612
15699TIP3   OH268587   4.345   0.703   3.314 -0.2042  0.3914 -0.3285
15699TIP3    H168588   4.259   0.692   3.272 -0.2190  1.7215 -0.6783
15699TIP3    H268589   4.402   0.735   3.243  0.3445  0.4279  0.1269
15700TIP3   OH268590   1.311   5.023   4.991 -0.2207 -0.0093  0.1857
15700TIP3    H168591   1.238   4.970   5.022  0.2867 -1.3351 -0.7867
15700TIP3    H268592   1.388   4.984   5.031  0.1027  0.4989  0.0741
15701TIP3   OH268593   6.090   1.234  13.019  0.0865 -0.2588 -0.0517
15701TIP3    H168594   6.030   1.276  13.080  0.0544 -1.7160  0.9598
15701TIP3    H268595   6.047   1.152  12.995  1.0073 -0.6405 -0.4569
15702TIP3   OH268596   2.533   6.559  13.840  0.2424 -0.5694  0.1797
15702TIP3    H168597   2.625   6.562  13.866  0.1703  1.2695  0.3276
15702TIP3    H268598   2.521   6.471  13.804  2.3105 -0.4904 -0.8050
15703TIP3   OH268599   0.150   3.560  16.023 -0.3895  0.0827  0.4182
15703TIP3    H168600   0.074   3.503  16.041 -0.3312  0.1276  0.8179
15703TIP3    H268601   0.184   3.529  15.939 -0.7485 -0.0515  0.3208
15704TIP3   OH268602   2.037   5.879   3.420  0.0708 -0.2414 -0.4368
15704TIP3    H168603   2.083   5.799   3.394 -1.7176 -0.9059 -1.7610
15704TIP3    H268604   1.947   5.850   3.439  0.0847  1.0251  1.9151
15705TIP3   OH268605   0.572   5.204   2.888 -0.3777  0.1344 -0.0690
15705TIP3    H168606   0.647   5.165   2.933  0.8915  2.3978 -0.0704
15705TIP3    H268607   0.586   5.181   2.796  1.6949  2.4326 -0.4269
15706TIP3   OH268608   6.230   1.108  11.317 -0.2691 -0.3926  0.1693
15706TIP3    H168609   6.173   1.092  11.242 -1.1639 -0.1787  0.7774
15706TIP3    H268610   6.169   1.122  11.390  0.5729 -0.2297  0.8546
15707TIP3   OH268611   3.624   6.574   4.354  0.0896 -0.3415 -0.6431
15707TIP3    H168612   3.719   6.569   4.361  0.2375  2.0156 -0.1290
15707TIP3    H268613   3.604   6.536   4.268  1.2942 -2.3459 -0.0846
15708TIP3   OH268614   2.145   5.427   1.725  0.4914 -0.2847 -0.5361
15708TIP3    H168615   2.095   5.413   1.645 -0.5860  0.0707  0.0517
15708TIP3    H268616   2.129   5.518   1.748  0.1883 -0.5835  0.4812
15709TIP3   OH268617   5.248   4.185  14.931 -0.4950  0.0636  0.0847
15709TIP3    H168618   5.263   4.256  14.993  0.8239  0.6172 -0.8203
15709TIP3    H268619   5.266   4.105  14.982 -0.9199  0.4207  0.8078
15710TIP3   OH268620   2.325   6.214  10.727 -0.4574 -1.1795  0.5164
15710TIP3    H168621   2.316   6.134  10.779  0.8741 -0.2281  2.2925
15710TIP3    H268622   2.282   6.282  10.778  0.3956 -0.3202  0.1206
15711TIP3   OH268623   6.266   2.344  14.258 -0.2899 -0.5237 -0.1361
15711TIP3    H168624   6.254   2.379  14.169  2.0658 -0.4396 -0.4681
15711TIP3    H268625   6.360   2.345  14.272 -0.5978 -0.6324  2.3597
15712TIP3   OH268626   4.833   5.722  10.479 -0.0391 -0.0532 -0.3016
15712TIP3    H168627   4.925   5.695  10.469 -0.4201 -1.0831 -1.2941
15712TIP3    H268628   4.837   5.805  10.527  1.3918 -0.2123 -0.0998
15713TIP3   OH268629   0.648   6.086  15.871  0.1293  0.5323  0.0009
15713TIP3    H168630   0.604   6.054  15.950 -1.4238 -0.0479 -1.0425
15713TIP3    H268631   0.624   6.178  15.866 -1.4650  0.1030 -0.8311
15714TIP3   OH268632   1.352   2.111  17.029 -0.0795  0.1220 -0.2795
15714TIP3    H168633   1.419   2.089  16.964 -0.4352  0.8213 -0.8999
15714TIP3    H268634   1.312   2.027  17.052 -0.0911 -0.1213 -1.1343
15715TIP3   OH268635   4.331   0.303   3.683 -0.0586  0.4193 -0.0579
15715TIP3    H168636   4.369   0.243   3.620  1.0622 -0.6728  1.5706
15715TIP3    H268637   4.406   0.340   3.730 -0.8489 -0.7834  2.3389
15716TIP3   OH268638   2.611   2.197  14.623 -0.4892  0.0661 -0.1650
15716TIP3    H168639   2.580   2.114  14.585 -0.0460 -0.7622  1.2262
15716TIP3    H268640   2.531   2.245  14.642 -0.7416  0.2034 -1.4465
15717TIP3   OH268641   1.416   4.907   5.427  0.1998 -0.1986  0.1674
15717TIP3    H168642   1.460   4.991   5.423 -2.3098  1.2963  1.5939
15717TIP3    H268643   1.476   4.850   5.474  1.4698  1.1004  0.1744
15718TIP3   OH268644   5.095   2.087  12.571  0.0917  0.0362  0.2686
15718TIP3    H168645   5.139   2.002  12.571  2.2289  1.0511 -0.2208
15718TIP3    H268646   5.098   2.116  12.662 -0.8890 -0.5214  0.4830
15719TIP3   OH268647   1.409   5.418   3.222  0.5124  0.8873 -0.1967
15719TIP3    H168648   1.342   5.449   3.284  3.6243  2.0662  2.9155
15719TIP3    H268649   1.420   5.325   3.243 -0.6135  0.4840 -1.2789
15720TIP3   OH268650   3.547   2.961   0.847 -0.0457 -0.2378 -0.2521
15720TIP3    H168651   3.521   2.980   0.757  1.3187  0.5639 -0.4974
15720TIP3    H268652   3.464   2.951   0.894 -0.7736 -0.3245 -1.5145
15721TIP3   OH268653   1.506   2.918  16.488  0.2093 -0.0988  0.3278
15721TIP3    H168654   1.435   2.928  16.551  0.0609  1.7671 -0.1013
15721TIP3    H268655   1.505   2.998  16.436  0.5410 -1.4288 -1.8721
15722TIP3   OH268656   5.640   5.677  11.575  0.3660  0.1968  0.2573
15722TIP3    H168657   5.717   5.720  11.614 -0.6905  0.8426  1.7224
15722TIP3    H268658   5.643   5.703  11.483  1.3824  1.0068  0.4926
15723TIP3   OH268659   6.699   2.245  12.377  0.4854 -0.5426  0.2809
15723TIP3    H168660   6.646   2.174  12.414  0.0041 -0.4301 -0.1803
15723TIP3    H268661   6.788   2.227  12.409  0.5464 -1.8755 -0.5442
15724TIP3   OH268662   1.793   5.037  13.311 -0.1382  0.0371  0.5170
15724TIP3    H168663   1.740   5.079  13.242 -1.4786 -0.0876  1.4309
15724TIP3    H268664   1.804   4.947  13.282  0.1462  0.2331  0.0032
15725TIP3   OH268665   2.448   1.707   1.221  0.3468  0.4538  0.2000
15725TIP3    H168666   2.528   1.666   1.187  0.2975  0.4302  0.1115
15725TIP3    H268667   2.383   1.636   1.220  0.1728  0.6204 -0.2622
15726TIP3   OH268668   1.528   2.360   3.307  0.2593  0.8587  0.0393
15726TIP3    H168669   1.444   2.316   3.293 -0.1116  1.6877 -0.4175
15726TIP3    H268670   1.510   2.453   3.289  1.1440  1.1272  0.4735
15727TIP3   OH268671   2.473   0.261   2.550 -0.1999 -0.5501  0.1812
15727TIP3    H168672   2.554   0.313   2.549  1.3184 -2.5483 -3.6628
15727TIP3    H268673   2.500   0.175   2.582 -0.7630 -1.1803 -0.9567
15728TIP3   OH268674   1.771   0.298  15.870  0.1105  0.2516  0.9992
15728TIP3    H168675   1.832   0.245  15.819 -1.3954 -0.1927 -0.4099
15728TIP3    H268676   1.753   0.374  15.814 -0.0168  0.7722  1.7391
15729TIP3   OH268677   6.737   6.766  12.155  0.6387 -0.1558 -0.4281
15729TIP3    H168678   6.804   6.762  12.224  1.0568 -1.6011 -0.8804
15729TIP3    H268679   6.666   6.712  12.188  1.3976 -1.9949 -1.6615
15730TIP3   OH268680   2.159   1.819   1.218 -0.2744 -0.0279 -0.1100
15730TIP3    H168681   2.186   1.846   1.130  0.3162 -1.6069 -0.4427
15730TIP3    H268682   2.240   1.811   1.267 -0.4464 -0.8778  0.0548
15731TIP3   OH268683   0.643   2.454   5.257  0.1912  0.1579  1.0996
15731TIP3    H168684   0.732   2.425   5.237 -0.1178 -0.6611  0.8641
15731TIP3    H268685   0.618   2.404   5.335 -1.0011 -1.6193 -0.3447
15732TIP3   OH268686   0.687   6.061  13.787  0.1549  0.8318  0.2535
15732TIP3    H168687   0.653   5.974  13.765  0.6759  1.1581 -2.1525
15732TIP3    H268688   0.614   6.104  13.830 -1.0370  0.0557 -0.8904
15733TIP3   OH268689   0.873   3.040   2.594  0.6182  0.0560 -0.2982
15733TIP3    H168690   0.878   3.132   2.566  1.7483 -0.0772 -0.5978
15733TIP3    H268691   0.964   3.009   2.589  0.5525 -0.5549  1.5988
15734TIP3   OH268692   1.997   5.112  17.095 -0.4221  0.4353  0.3420
15734TIP3    H168693   1.999   5.101  17.000 -0.6781 -2.1617  0.5805
15734TIP3    H268694   1.969   5.027  17.129  2.6412  0.2966  2.9294
15735TIP3   OH268695   6.508   0.999   5.119  0.4839 -0.2284  0.0426
15735TIP3    H168696   6.552   1.049   5.187 -0.3855  0.5149  0.0694
15735TIP3    H268697   6.447   1.061   5.078  1.5760 -0.4104 -1.9816
15736TIP3   OH268698   4.247   3.729   2.645 -0.0470  0.4707 -0.0183
15736TIP3    H168699   4.281   3.644   2.674  1.2269  1.3466  1.1413
15736TIP3    H268700   4.322   3.774   2.606 -1.1493  0.3536 -2.4629
15737TIP3   OH268701   3.564   3.774   1.759 -0.3279  0.8156 -0.1028
15737TIP3    H168702   3.608   3.858   1.742 -0.8261  1.4498  1.5968
15737TIP3    H268703   3.472   3.791   1.741 -0.5745  0.9362  1.2234
15738TIP3   OH268704   2.427   1.303  13.633 -0.1935  0.5582 -0.2426
15738TIP3    H168705   2.372   1.373  13.598 -0.7269  0.0121 -0.5015
15738TIP3    H268706   2.366   1.238  13.667  0.3060  0.6937  0.9799
15739TIP3   OH268707   2.463   6.092   1.058 -0.5482 -0.0023 -0.2538
15739TIP3    H168708   2.459   6.023   0.992 -1.3878 -0.1102 -0.1106
15739TIP3    H268709   2.372   6.120   1.068 -0.3511  0.4141  0.4328
15740TIP3   OH268710   5.431   1.298   1.197  0.3369 -0.4201 -0.3027
15740TIP3    H168711   5.413   1.205   1.210  1.1440 -0.5607 -0.1593
15740TIP3    H268712   5.415   1.312   1.103  1.6810 -1.0531 -0.6528
15741TIP3   OH268713   5.316   5.878   5.711  0.5361  0.2345 -0.1729
15741TIP3    H168714   5.359   5.879   5.626  2.2034  1.5030  0.6330
15741TIP3    H268715   5.250   5.810   5.703 -0.5613  1.4331 -3.0590
15742TIP3   OH268716   4.937   3.667   5.117 -0.4905  0.1582 -0.2289
15742TIP3    H168717   4.943   3.760   5.139  2.7038  0.6732 -2.4884
15742TIP3    H268718   4.999   3.624   5.176 -0.3989 -0.2029 -0.5801
15743TIP3   OH268719   3.134   4.528  13.374 -0.1077 -0.0296  0.7560
15743TIP3    H168720   3.126   4.619  13.403  1.8761  1.0324 -1.6578
15743TIP3    H268721   3.047   4.506  13.339 -0.6003  0.9130  1.3528
15744TIP3   OH268722   1.939   4.682  15.630 -0.0717 -0.0143  0.5617
15744TIP3    H168723   1.884   4.660  15.555  0.1695 -0.0076  0.3840
15744TIP3    H268724   2.001   4.609  15.637  3.0276  2.0822 -2.1408
15745TIP3   OH268725   6.419   5.799   4.344 -0.1268 -0.3577  0.8807
15745TIP3    H168726   6.473   5.846   4.280 -0.7592  1.0948  1.3760
15745TIP3    H268727   6.341   5.853   4.354 -0.3639 -0.9403  2.3483
15746TIP3   OH268728   5.292   3.288  13.887  0.4964  0.7228 -0.2180
15746TIP3    H168729   5.260   3.370  13.924 -0.5792  0.2952 -0.1704
15746TIP3    H268730   5.377   3.274  13.930  0.7648  1.8650 -0.3315
15747TIP3   OH268731   5.082   4.078  11.380  0.0497  0.0582  0.5302
15747TIP3    H168732   4.996   4.046  11.406  0.6022 -2.6719 -0.6375
15747TIP3    H268733   5.076   4.089  11.285  1.2171 -1.1794  0.2725
15748TIP3   OH268734   3.697   6.679   2.344  0.1592 -0.5792 -0.3133
15748TIP3    H168735   3.770   6.718   2.296 -0.2313 -2.4117 -2.5926
15748TIP3    H268736   3.626   6.744   2.336  1.3684  1.1393  1.7933
15749TIP3   OH268737   1.729   3.783   3.822 -0.1276 -0.3436 -0.4481
15749TIP3    H168738   1.795   3.827   3.875 -0.4546  0.0873 -0.3934
15749TIP3    H268739   1.755   3.691   3.823  0.0998 -0.2752  0.1149
15750TIP3   OH268740   4.497   5.718   1.008 -0.2490 -0.0597 -0.4190
15750TIP3    H168741   4.509   5.694   1.100 -1.3420  0.5213 -0.1125
15750TIP3    H268742   4.403   5.710   0.993 -0.0646 -0.2574 -1.5251
15751TIP3   OH268743   6.438   3.028  12.594  0.3726  0.4968 -0.1252
15751TIP3    H168744   6.445   2.935  12.614 -0.1712  0.6809  0.9874
15751TIP3    H268745   6.383   3.064  12.664 -4.4755  0.6399 -3.4454
15752TIP3   OH268746   4.669   3.801   3.197 -0.2500 -0.2419 -0.1320
15752TIP3    H168747   4.665   3.747   3.118 -0.8858 -1.8404  0.9536
15752TIP3    H268748   4.627   3.749   3.265  0.6348  0.9216  1.3890
15753TIP3   OH268749   3.871   6.268   2.830  0.2975 -0.2813 -0.0880
15753TIP3    H168750   3.832   6.192   2.785  0.8396 -0.1973 -0.7139
15753TIP3    H268751   3.819   6.278   2.910 -0.3190 -0.7918 -0.4184
15754TIP3   OH268752   4.737   6.233  15.925  0.3080  0.2997 -0.3679
15754TIP3    H168753   4.734   6.324  15.953  0.3184  0.7401 -1.6997
15754TIP3    H268754   4.664   6.191  15.970  1.2241  0.5668  1.4783
15755TIP3   OH268755   0.154   0.821   3.039 -0.4651 -0.7257 -0.0751
15755TIP3    H168756   0.233   0.864   3.007 -1.1582  0.1661 -0.6598
15755TIP3    H268757   0.160   0.826   3.134 -0.1191 -0.0956 -0.1273
15756TIP3   OH268758   3.041   5.979   1.636  0.2820 -0.2437 -0.1847
15756TIP3    H168759   3.047   5.905   1.575  0.1554 -0.1447 -0.3183
15756TIP3    H268760   3.101   6.044   1.601  2.2434 -1.1856  1.2278
15757TIP3   OH268761   3.573   4.476  15.893 -0.7211 -0.3590 -0.7354
15757TIP3    H168762   3.629   4.530  15.838 -0.7049 -0.9692 -1.3278
15757TIP3    H268763   3.628   4.453  15.968  0.3441 -2.1631 -2.0041
15758TIP3   OH268764   6.144   0.303  12.932  0.1346 -0.2717 -0.0249
15758TIP3    H168765   6.054   0.330  12.916  0.3605  0.9853  0.7009
15758TIP3    H268766   6.136   0.222  12.982 -0.6206  0.2982  0.8102
15759TIP3   OH268767   5.751   2.667  16.750  0.0340  0.4011 -0.0497
15759TIP3    H168768   5.845   2.646  16.752  0.7150  2.8859 -1.2526
15759TIP3    H268769   5.740   2.732  16.820 -0.7952  0.1481  0.0648
15760TIP3   OH268770   6.794   5.360   3.152 -0.6743 -0.1053  0.7486
15760TIP3    H168771   6.802   5.455   3.147 -1.2913 -0.1227 -1.5180
15760TIP3    H268772   6.825   5.329   3.067  1.3455 -2.1060  2.1172
15761TIP3   OH268773   1.345   6.525  11.892  0.3015  0.3944  0.0153
15761TIP3    H168774   1.435   6.507  11.867  0.3251 -1.7864  1.4389
15761TIP3    H268775   1.307   6.569  11.816  2.3241  0.6661 -0.8981
15762TIP3   OH268776   6.464   0.913  12.017 -0.2871 -0.1575 -0.2615
15762TIP3    H168777   6.454   1.004  12.045  1.0986  0.5685 -1.9199
15762TIP3    H268778   6.412   0.906  11.938  0.8819 -0.3071 -1.0501
15763TIP3   OH268779   4.928   4.411  12.339 -0.1466  0.0902  0.1974
15763TIP3    H168780   4.986   4.335  12.342 -1.0828 -0.6331  0.4519
15763TIP3    H268781   4.841   4.374  12.324 -0.7445  1.0299  1.1798
15764TIP3   OH268782   1.073   1.949   2.359  0.3042  0.2376 -0.5286
15764TIP3    H168783   1.077   1.969   2.452  0.1504  0.1750 -0.5097
15764TIP3    H268784   1.158   1.909   2.340  0.1798 -0.1231 -0.3321
15765TIP3   OH268785   2.574   3.878  12.183 -0.5911  0.6009 -0.2216
15765TIP3    H168786   2.512   3.829  12.129  0.7496  0.7177 -1.9665
15765TIP3    H268787   2.527   3.958  12.207 -1.3180  0.4154 -0.9740
15766TIP3   OH268788   2.776   0.823   4.452  0.1522 -0.2327 -0.5204
15766TIP3    H168789   2.783   0.916   4.473  1.1742 -0.2594 -0.6708
15766TIP3    H268790   2.682   0.806   4.446 -0.0525  0.6907 -0.0712
15767TIP3   OH268791   0.705   0.563   5.743  0.3134 -0.7201  0.3503
15767TIP3    H168792   0.740   0.578   5.655  1.6794  2.3680  1.2743
15767TIP3    H268793   0.780   0.534   5.795  0.4714  1.1764  1.2697
15768TIP3   OH268794   5.320   4.774   6.242 -0.5373  0.3343  0.1735
15768TIP3    H168795   5.334   4.867   6.259 -0.5641  0.0961  1.6709
15768TIP3    H268796   5.400   4.731   6.272 -0.8287 -0.1921  0.2212
15769TIP3   OH268797   3.670   3.916   2.211  0.4073 -0.0569  0.3270
15769TIP3    H168798   3.751   3.917   2.160  0.1306 -0.6132 -0.1313
15769TIP3    H268799   3.622   3.839   2.179 -2.3668  2.6079 -2.6512
15770TIP3   OH268800   4.243   5.215   4.479  0.2261 -0.2843  0.2953
15770TIP3    H168801   4.219   5.295   4.432  0.9374  0.9515  1.9208
15770TIP3    H268802   4.241   5.146   4.412 -0.8803  0.9824 -1.0566
15771TIP3   OH268803   4.046   3.604  13.928 -0.3793  0.6530  0.2252
15771TIP3    H168804   4.009   3.530  13.975 -0.3205  0.2728 -0.3163
15771TIP3    H268805   4.102   3.648  13.992  0.1420 -0.1835  0.3560
15772TIP3   OH268806   1.858   2.302  15.087  0.0457 -0.2303 -0.2108
15772TIP3    H168807   1.867   2.223  15.141  1.8308 -1.1101 -1.6915
15772TIP3    H268808   1.924   2.362  15.121 -0.1240 -0.0497 -0.2001
15773TIP3   OH268809   2.962   3.895  13.143 -0.3650 -0.1889  0.2723
15773TIP3    H168810   3.057   3.910  13.140 -0.3567 -0.2978 -0.0720
15773TIP3    H268811   2.924   3.972  13.103 -0.3898 -0.4323 -0.1797
15774TIP3   OH268812   1.058   5.858  12.392  0.4836  0.3666  0.3116
15774TIP3    H168813   1.148   5.825  12.392  0.3614  0.0099 -0.4586
15774TIP3    H268814   1.049   5.901  12.307 -0.7720 -1.5541 -0.5824
15775TIP3   OH268815   2.735   2.460  11.686 -0.4428  0.4820  0.2252
15775TIP3    H168816   2.648   2.446  11.722  0.6140 -1.7716  2.1649
15775TIP3    H268817   2.731   2.423  11.598 -1.6302  1.1977 -0.0434
15776TIP3   OH268818   3.195   5.669   1.773 -0.0811  0.1293  0.2891
15776TIP3    H168819   3.183   5.718   1.854 -3.6771 -0.0835  0.0247
15776TIP3    H268820   3.170   5.730   1.703 -3.3508 -1.4753 -0.1265
15777TIP3   OH268821   3.488   6.706  10.866  0.1820  0.1291  0.3751
15777TIP3    H168822   3.423   6.691  10.797  0.6113 -0.2935  0.0493
15777TIP3    H268823   3.559   6.645  10.845  1.3813  1.6477 -0.1690
15778TIP3   OH268824   0.089   3.893   2.262  0.1450 -0.3725  0.2720
15778TIP3    H168825   0.073   3.875   2.169 -0.3523  0.6858  0.1381
15778TIP3    H268826   0.175   3.854   2.279  0.4770 -0.1316 -0.7613
15779TIP3   OH268827   2.856   1.519  11.041  0.3810 -0.4595  0.4994
15779TIP3    H168828   2.796   1.468  10.988  0.2577  1.7743 -1.6968
15779TIP3    H268829   2.803   1.590  11.077  0.8568 -0.9064  2.1884
15780TIP3   OH268830   3.793   5.348  12.387 -0.2029 -0.3595  0.4796
15780TIP3    H168831   3.874   5.297  12.385  1.0531  1.5614 -0.5853
15780TIP3    H268832   3.799   5.399  12.468 -0.7654 -0.8168  0.8174
15781TIP3   OH268833   5.322   6.011   0.733 -0.4402  0.1017  0.0868
15781TIP3    H168834   5.372   5.933   0.706 -0.8623 -0.1461  0.0205
15781TIP3    H268835   5.266   5.980   0.804 -0.3621  0.4271  0.2912
15782TIP3   OH268836   2.555   2.186  16.583 -0.5357 -0.1162 -0.5519
15782TIP3    H168837   2.471   2.230  16.593 -0.4667 -0.2292  0.5608
15782TIP3    H268838   2.557   2.120  16.652  1.0426  0.7882  0.3230
15783TIP3   OH268839   2.195   4.249  11.226  0.2179 -0.1653  0.1793
15783TIP3    H168840   2.212   4.341  11.246 -0.7277  0.0870 -0.1488
15783TIP3    H268841   2.107   4.232  11.260 -0.6942 -0.2254 -2.0140
15784TIP3   OH268842   3.553   5.312  12.227 -0.4553  0.0293 -0.6569
15784TIP3    H168843   3.589   5.238  12.180 -1.7015  0.4909 -2.4159
15784TIP3    H268844   3.624   5.341  12.284  0.8042 -1.0915 -1.6117
15785TIP3   OH268845   0.937   2.158   0.448 -0.2188 -0.0282  0.3831
15785TIP3    H168846   0.938   2.193   0.359 -1.1856  0.1302  0.4163
15785TIP3    H268847   1.029   2.143   0.470  0.0032 -0.6353 -0.8647
15786TIP3   OH268848   6.334   0.232   2.108  0.2392  0.6530 -0.2196
15786TIP3    H168849   6.352   0.176   2.183  0.4864  0.8700 -0.1162
15786TIP3    H268850   6.318   0.171   2.036 -2.1494  0.3594  0.4519
15787TIP3   OH268851   1.701   1.972  12.100  0.3182  0.3129 -0.1982
15787TIP3    H168852   1.681   1.925  12.019  0.8819 -1.1919  0.4935
15787TIP3    H268853   1.643   1.932  12.166  0.0418  1.3427  0.1979
15788TIP3   OH268854   3.746   1.574  15.451 -0.0571 -0.1182 -0.0288
15788TIP3    H168855   3.764   1.666  15.432  0.9493 -0.5348 -1.2316
15788TIP3    H268856   3.666   1.575  15.504 -0.1511  1.4266 -0.1661
15789TIP3   OH268857   6.285   2.652  15.427  0.0881 -0.2317 -0.3758
15789TIP3    H168858   6.216   2.638  15.492  0.6548  0.7949  0.4804
15789TIP3    H268859   6.246   2.624  15.344 -2.1674  2.2860 -0.2958
15790TIP3   OH268860   2.863   0.240  14.621  0.0293  0.3198  0.0042
15790TIP3    H168861   2.805   0.315  14.606  1.0829  1.2742  0.5964
15790TIP3    H268862   2.863   0.227  14.715 -0.3193 -0.5969 -0.1047
15791TIP3   OH268863   4.788   0.310  11.410 -0.5995  0.1320  0.1692
15791TIP3    H168864   4.849   0.331  11.480 -0.1007 -0.5691 -0.0487
15791TIP3    H268865   4.778   0.215  11.413  1.2847 -0.2413 -2.1925
15792TIP3   OH268866   0.529   6.264  12.509 -0.1341  0.2292 -0.5035
15792TIP3    H168867   0.551   6.209  12.434 -0.4715 -1.2540  0.4402
15792TIP3    H268868   0.588   6.338  12.502  3.3235 -2.1826  0.3804
15793TIP3   OH268869   1.259   2.523   4.974 -0.1241  0.0861  0.4097
15793TIP3    H168870   1.195   2.593   4.963  0.2668  0.1298 -2.0629
15793TIP3    H268871   1.207   2.443   4.980 -0.4565  0.1779 -1.0216
15794TIP3   OH268872   1.413   1.896  11.326  0.4241 -0.1053  0.3424
15794TIP3    H168873   1.331   1.943  11.342  0.5620 -0.3150  1.7380
15794TIP3    H268874   1.394   1.841  11.249 -1.0338 -0.7962  1.1570
15795TIP3   OH268875   2.651   1.514   3.999 -0.3012  0.2986  0.6015
15795TIP3    H168876   2.700   1.521   3.917 -3.2430 -1.1135 -1.4628
15795TIP3    H268877   2.647   1.603   4.033  1.9270  0.7418 -0.1273
15796TIP3   OH268878   4.604   1.780  16.967 -0.9957  0.1324 -0.3817
15796TIP3    H168879   4.640   1.786  17.055  0.1861  0.7652 -0.8856
15796TIP3    H268880   4.509   1.781  16.980 -0.8592 -1.1124  0.9555
15797TIP3   OH268881   2.435   3.262  12.137  0.2801  0.4188 -0.4291
15797TIP3    H168882   2.383   3.192  12.177  3.0132 -0.7471  1.3526
15797TIP3    H268883   2.409   3.341  12.185  0.3802 -0.2127  0.6988
15798TIP3   OH268884   1.830   4.819   3.213 -0.0884  0.4843  0.0431
15798TIP3    H168885   1.879   4.855   3.287  0.7957  0.6547 -0.6166
15798TIP3    H268886   1.745   4.795   3.251  0.1814  0.9908  1.0154
15799TIP3   OH268887   5.965   3.082  11.768  0.0724 -0.3446  0.6280
15799TIP3    H168888   5.970   3.014  11.834 -0.7748 -1.3732 -0.3337
15799TIP3    H268889   5.992   3.162  11.814  1.1851 -1.3222  1.7433
15800TIP3   OH268890   1.300   4.855  16.112 -0.0338 -0.2933  0.1556
15800TIP3    H168891   1.367   4.885  16.051 -0.5129 -0.7149 -0.5812
15800TIP3    H268892   1.228   4.918  16.103 -0.5041 -0.9022 -0.4371
15801TIP3   OH268893   1.405   3.332  13.165  0.2854  0.3510 -0.2582
15801TIP3    H168894   1.441   3.412  13.205 -1.2394  0.7792  0.3495
15801TIP3    H268895   1.467   3.309  13.096  0.8966  1.9125 -0.2653
15802TIP3   OH268896   4.079   3.723   0.712 -0.4200 -0.0547 -0.3693
15802TIP3    H168897   4.032   3.796   0.754  0.2915 -0.2229  0.7718
15802TIP3    H268898   4.130   3.764   0.643 -0.5541  0.4437 -0.1783
15803TIP3   OH268899   0.064   4.004  11.003  0.2288  0.1650 -0.3105
15803TIP3    H168900   0.118   4.016  10.926 -1.1227 -0.3401 -1.3724
15803TIP3    H268901   0.097   3.923  11.043 -0.1970 -0.5553 -1.3703
15804TIP3   OH268902   3.544   3.132  13.417  0.0956 -0.0702 -0.2297
15804TIP3    H168903   3.580   3.202  13.472  1.9482 -1.3402  0.2637
15804TIP3    H268904   3.609   3.120  13.348 -0.8478 -0.4209 -1.0858
15805TIP3   OH268905   5.732   6.858   2.463  0.3262 -0.4583  0.1077
15805TIP3    H168906   5.641   6.857   2.490  0.0392  0.6901 -0.7176
15805TIP3    H268907   5.774   6.922   2.521  0.0683  0.7493 -0.9679
15806TIP3   OH268908   0.166   4.534  14.114 -0.2093  0.4919 -0.9572
15806TIP3    H168909   0.071   4.524  14.115 -0.2111  0.0569  1.4607
15806TIP3    H268910   0.198   4.455  14.158  1.1106  1.6504  0.2478
15807TIP3   OH268911   2.857   3.212   2.116  0.1535 -0.3968  0.3040
15807TIP3    H168912   2.812   3.275   2.172  0.0326 -1.2269  1.1514
15807TIP3    H268913   2.809   3.217   2.033 -1.1273 -0.8207  0.9995
15808TIP3   OH268914   4.949   2.534   5.387  0.7264 -0.0686 -0.5943
15808TIP3    H168915   4.903   2.451   5.403  0.1465 -0.2745 -2.9051
15808TIP3    H268916   5.037   2.520   5.421 -0.2673 -0.4098  2.0595
15809TIP3   OH268917   0.083   4.774   2.032  0.0106  0.2583  0.0663
15809TIP3    H168918   0.109   4.858   1.995 -1.0870  0.6539  0.1438
15809TIP3    H268919   0.156   4.715   2.015  1.1588  1.4419  0.7557
15810TIP3   OH268920   5.462   0.860  15.222  0.4522 -0.6431  0.0199
15810TIP3    H168921   5.480   0.860  15.316 -1.6162 -0.5714  0.4530
15810TIP3    H268922   5.522   0.927  15.186  0.0485  0.5895  1.5469
15811TIP3   OH268923   5.799   4.095   3.858 -0.2003 -0.0825 -0.7739
15811TIP3    H168924   5.768   4.030   3.796 -1.6886 -1.6337  1.4575
15811TIP3    H268925   5.771   4.063   3.944  2.5230  1.4641  0.8709
15812TIP3   OH268926   3.764   1.808   2.409 -0.5427  0.2623  0.1122
15812TIP3    H168927   3.786   1.766   2.493 -3.1778 -1.0010  0.2524
15812TIP3    H268928   3.827   1.770   2.348  1.2114  0.9431  1.3922
15813TIP3   OH268929   3.582   0.348   0.678  0.2749 -1.1044 -0.6842
15813TIP3    H168930   3.627   0.378   0.599  0.2671 -1.1370 -0.7007
15813TIP3    H268931   3.647   0.294   0.723  0.2954 -1.0480 -0.6447
15814TIP3   OH268932   0.709   1.175  15.977  0.2346  0.0326 -0.5786
15814TIP3    H168933   0.637   1.121  16.011  0.1677  0.5220  0.0966
15814TIP3    H268934   0.776   1.171  16.046  0.2865  0.6808 -0.5894
15815TIP3   OH268935   3.044   0.220   2.111  0.5046 -0.3824 -0.3298
15815TIP3    H168936   2.964   0.270   2.095  1.1307  0.9626  0.4730
15815TIP3    H268937   3.029   0.177   2.196  1.1443  1.0666  0.5595
15816TIP3   OH268938   2.467   2.968  10.511  0.0855  0.1641 -0.3543
15816TIP3    H168939   2.441   2.880  10.537 -0.3646  0.7027  1.1607
15816TIP3    H268940   2.463   3.019  10.592  2.1678  1.1592 -0.8053
15817TIP3   OH268941   6.834   4.714  15.927  0.2261 -0.2761 -0.9679
15817TIP3    H168942   6.901   4.687  15.864  0.0712  1.5264 -1.9673
15817TIP3    H268943   6.821   4.807  15.910  0.6408  0.4503  2.1902
15818TIP3   OH268944   2.075   6.667   2.125 -0.1888 -0.2394 -0.3298
15818TIP3    H168945   2.125   6.716   2.190 -0.6095 -0.2829  0.0332
15818TIP3    H268946   2.076   6.577   2.157  2.5846 -0.9940 -2.1907
15819TIP3   OH268947   4.733   4.317   2.156  0.1369  0.1334 -0.3483
15819TIP3    H168948   4.776   4.384   2.102  0.1165  0.1296 -0.3693
15819TIP3    H268949   4.764   4.234   2.120  0.4695  0.1369 -0.0726
15820TIP3   OH268950   2.103   6.677  15.067  0.0921 -0.4433  0.2448
15820TIP3    H168951   2.193   6.706  15.051  0.5204 -1.5711  0.5106
15820TIP3    H268952   2.112   6.589  15.103 -1.1913 -1.2675 -1.3045
15821TIP3   OH268953   4.397   1.348  10.796 -0.2105  0.1105 -0.3344
15821TIP3    H168954   4.485   1.330  10.831  0.3021  0.1907 -1.5317
15821TIP3    H268955   4.400   1.441  10.773 -0.5823  0.0912 -0.4598
15822TIP3   OH268956   3.843   0.201   3.672  0.5825 -0.3722  0.1021
15822TIP3    H168957   3.866   0.156   3.753  1.8406  0.2917  0.1495
15822TIP3    H268958   3.927   0.230   3.636 -0.0285  0.1729 -0.9477
15823TIP3   OH268959   0.483   4.983   4.050  0.0562 -0.6010 -0.0784
15823TIP3    H168960   0.426   4.928   3.997 -0.0000 -0.4369 -0.1891
15823TIP3    H268961   0.451   5.072   4.036  0.5936 -0.4583 -0.4698
15824TIP3   OH268962   0.672   2.737  16.060 -0.1701 -0.2032 -0.4270
15824TIP3    H168963   0.759   2.704  16.084 -0.7353  0.0095  2.2033
15824TIP3    H268964   0.623   2.659  16.033  0.3597 -0.5543 -0.3960
15825TIP3   OH268965   3.200   4.196   5.443  0.2097  0.0190  0.0527
15825TIP3    H168966   3.255   4.119   5.457  0.7372  0.0434 -1.6509
15825TIP3    H268967   3.127   4.165   5.390 -1.5164 -0.0097  2.2789
15826TIP3   OH268968   4.357   5.652  15.678 -0.0486 -0.3295 -0.0970
15826TIP3    H168969   4.427   5.676  15.739 -0.5387 -2.9402  1.6834
15826TIP3    H268970   4.400   5.592  15.616 -0.4109 -0.9781  0.2659
15827TIP3   OH268971   4.370   6.000   6.159 -0.1654  0.0285  0.0122
15827TIP3    H168972   4.351   5.910   6.186  1.9371 -0.7461 -0.8384
15827TIP3    H268973   4.284   6.040   6.145 -1.2460 -0.8147  3.4670
15828TIP3   OH268974   1.319   0.656  11.486  0.6296 -0.3815 -0.5627
15828TIP3    H168975   1.329   0.624  11.396  1.0454  0.2049 -0.7279
15828TIP3    H268976   1.405   0.691  11.508  0.1720  0.6490 -0.3906
15829TIP3   OH268977   1.523   6.850  13.815  0.2113 -0.4088 -0.4397
15829TIP3    H168978   1.527   6.757  13.793  1.2976 -0.3498 -0.5206
15829TIP3    H268979   1.504   6.893  13.731 -0.3169 -0.5490 -0.3982
15830TIP3   OH268980   1.502   5.682  15.940  0.4915  0.3238  0.8441
15830TIP3    H168981   1.454   5.752  15.985  1.0030  0.9287  0.4706
15830TIP3    H268982   1.519   5.617  16.008 -0.2169  0.4418  1.1410
15831TIP3   OH268983   1.809   4.029  14.222  1.1051  0.0457 -0.7036
15831TIP3    H168984   1.852   4.113  14.212 -0.5007  0.7953 -1.9484
15831TIP3    H268985   1.733   4.035  14.164  1.2928 -2.4991 -1.3217
15832TIP3   OH268986   1.991   1.484   6.472  0.7145 -0.1626 -0.4835
15832TIP3    H168987   1.910   1.535   6.472  0.5199 -0.3595 -3.0059
15832TIP3    H268988   2.061   1.549   6.474  0.4840  0.0776 -0.2333
15833TIP3   OH268989   2.774   5.678  13.679  0.0976  0.3292  0.0023
15833TIP3    H168990   2.820   5.741  13.734 -1.4235  0.7900  0.8134
15833TIP3    H268991   2.795   5.593  13.717  2.6674  0.2011 -1.4678
15834TIP3   OH268992   2.487   1.011  15.352  0.0241  0.1497  0.9800
15834TIP3    H168993   2.466   0.919  15.340  1.6968  0.0676 -2.3000
15834TIP3    H268994   2.539   1.014  15.433 -2.4281 -1.2466  2.7430
15835TIP3   OH268995   3.660   3.065   3.152 -0.0981 -0.0466 -0.0890
15835TIP3    H168996   3.576   3.106   3.176  0.6003  0.7844  1.0368
15835TIP3    H268997   3.723   3.137   3.154  0.8773 -0.8949  0.3545
15836TIP3   OH268998   2.569   2.670   0.449  0.0213 -1.0145  0.7541
15836TIP3    H168999   2.483   2.642   0.417 -0.1218 -1.2879  1.3690
15836TIP3    H269000   2.631   2.623   0.393 -0.2259 -1.4646  0.8521
15837TIP3   OH269001   3.225   2.965  16.269 -0.6138  0.3709  0.3967
15837TIP3    H169002   3.316   2.978  16.242  0.2696 -0.3239  2.7717
15837TIP3    H269003   3.174   3.012  16.203  1.3887  0.0956 -1.4697
15838TIP3   OH269004   5.960   6.684  12.527  0.3297 -0.5435  0.0880
15838TIP3    H169005   5.973   6.747  12.597  0.2187 -1.0233  0.5503
15838TIP3    H269006   5.879   6.639  12.550 -0.6067  0.3964 -1.2101
15839TIP3   OH269007   5.802   1.410  11.767 -0.0888 -0.5819 -0.4085
15839TIP3    H169008   5.872   1.355  11.802 -0.1097 -0.6780 -0.5177
15839TIP3    H269009   5.724   1.381  11.815 -0.5688 -2.2834 -2.0799
15840TIP3   OH269010   4.271   1.921   0.515 -0.3973 -0.2756  0.4316
15840TIP3    H169011   4.334   1.981   0.556 -0.2861  0.0238 -0.1702
15840TIP3    H269012   4.212   1.978   0.466  0.9768 -0.7376 -1.9253
15841TIP3   OH269013   5.692   3.466   2.049  0.1689 -0.0421  0.5996
15841TIP3    H169014   5.621   3.509   2.097 -0.3049  1.5990 -1.4347
15841TIP3    H269015   5.751   3.434   2.118 -1.0523  1.1372  2.2843
15842TIP3   OH269016   4.800   0.904   1.025 -0.1035 -0.6849  0.6386
15842TIP3    H169017   4.706   0.921   1.035 -0.0047 -0.5697  1.4080
15842TIP3    H269018   4.838   0.990   1.005  0.2118 -0.1465  3.1999
15843TIP3   OH269019   1.998   6.643   0.786  0.1668 -0.5018 -0.1135
15843TIP3    H169020   2.052   6.620   0.710  0.4017 -0.3331  0.0022
15843TIP3    H269021   2.061   6.667   0.854 -0.0711  1.9741 -0.6856
15844TIP3   OH269022   3.541   2.001   2.221 -0.5860 -0.3761 -1.0180
15844TIP3    H169023   3.471   2.063   2.243 -0.5764 -0.2815 -1.2490
15844TIP3    H269024   3.574   2.032   2.137  1.7545  1.4187  0.4050
15845TIP3   OH269025   1.193   4.082   4.380  0.1567 -0.1582  0.0812
15845TIP3    H169026   1.259   4.015   4.362  0.8738  1.0498 -2.2470
15845TIP3    H269027   1.243   4.164   4.381 -1.2107  0.7287 -1.2460
15846TIP3   OH269028   3.711   0.048   6.462 -0.7372  0.3088  0.2134
15846TIP3    H169029   3.637   0.026   6.518 -1.5980  2.3590 -0.0331
15846TIP3    H269030   3.763  -0.033   6.457 -2.1884 -0.7525  1.5432
15847TIP3   OH269031   4.096   0.776   6.218 -0.0497 -0.4621  0.3234
15847TIP3    H169032   4.077   0.686   6.195  0.3036 -0.0277 -1.9193
15847TIP3    H269033   4.191   0.785   6.206 -0.2521  0.5085 -0.9161
15848TIP3   OH269034   2.287   3.120  10.736 -0.2359 -0.2624  0.1181
15848TIP3    H169035   2.224   3.183  10.772 -0.3668 -0.5076  0.3221
15848TIP3    H269036   2.273   3.124  10.641  0.1753  0.4561  0.0836
15849TIP3   OH269037   2.682   4.799  16.223 -0.1638 -0.0846  0.5624
15849TIP3    H169038   2.618   4.863  16.192 -0.3075 -0.9117 -0.9285
15849TIP3    H269039   2.639   4.755  16.297 -0.8791  0.1240  0.2800
15850TIP3   OH269040   2.879   2.072   2.124  0.6072  0.0458 -0.3820
15850TIP3    H169041   2.790   2.102   2.107  0.5733 -0.7516 -1.7607
15850TIP3    H269042   2.934   2.130   2.071  0.7955 -0.2858 -0.5554
15851TIP3   OH269043   2.657   0.868   0.140  0.8110 -0.5128 -0.5328
15851TIP3    H169044   2.739   0.819   0.151  0.5003 -0.9037  0.1337
15851TIP3    H269045   2.645   0.912   0.225  0.0275 -0.9376 -0.4132
15852TIP3   OH269046   4.973   0.640   4.194 -0.1742  0.0885  0.1647
15852TIP3    H169047   4.892   0.598   4.220 -0.6785  0.7510 -0.3119
15852TIP3    H269048   5.041   0.593   4.242 -0.6764 -1.4652 -0.5722
15853TIP3   OH269049   5.623   3.909   1.162 -0.2931  0.4156 -0.5392
15853TIP3    H169050   5.572   3.915   1.243 -2.4259 -0.0968 -1.7638
15853TIP3    H269051   5.621   3.816   1.140  1.2304  0.3796 -0.6527
15854TIP3   OH269052   6.136   1.302   6.057 -0.4792 -0.2694  0.3253
15854TIP3    H169053   6.077   1.372   6.028 -0.3389 -0.4221 -0.3436
15854TIP3    H269054   6.150   1.320   6.150  0.0630  0.9700  0.0321
15855TIP3   OH269055   2.085   1.157   4.059 -0.6400 -0.3588  0.4621
15855TIP3    H169056   2.030   1.096   4.110 -0.6839  0.3346  1.2653
15855TIP3    H269057   2.033   1.176   3.981 -0.5496 -1.4859  0.1077
15856TIP3   OH269058   1.486   5.328  12.921 -0.0882  0.1437  0.6943
15856TIP3    H169059   1.457   5.406  12.874 -1.3657 -0.9333 -0.3667
15856TIP3    H269060   1.423   5.260  12.897  1.0134 -1.2392  1.5560
15857TIP3   OH269061   5.679   0.356   3.614 -0.7096  0.1589  0.0760
15857TIP3    H169062   5.653   0.448   3.624 -3.1871 -0.2839 -1.5939
15857TIP3    H269063   5.702   0.347   3.522 -0.6764 -0.9624  0.1838
15858TIP3   OH269064   6.226   0.259  12.685  0.2344 -0.3110 -0.3863
15858TIP3    H169065   6.198   0.274  12.775 -2.0513 -0.6663 -0.9954
15858TIP3    H269066   6.273   0.175  12.688 -3.1448 -2.3471 -0.0796
15859TIP3   OH269067   1.753   1.310   1.701 -0.5947  0.1295 -0.4934
15859TIP3    H169068   1.759   1.330   1.607 -4.4047  2.1539 -0.5044
15859TIP3    H269069   1.772   1.393   1.745 -0.8680 -0.2646  0.3936
15860TIP3   OH269070   1.053   3.443  13.705  0.3603 -0.2565  0.1454
15860TIP3    H169071   1.142   3.409  13.705 -0.1960 -1.7935 -0.3600
15860TIP3    H269072   0.997   3.366  13.697 -1.1898  0.3192  3.4174
15861TIP3   OH269073   5.164   1.272  16.621 -0.0481 -0.2674  0.1436
15861TIP3    H169074   5.131   1.360  16.639  0.3715  0.0079 -0.3756
15861TIP3    H269075   5.100   1.213  16.660 -0.6258  0.2622  0.0043
15862TIP3   OH269076   2.432   5.306   5.047 -0.0386  0.0139  0.6143
15862TIP3    H169077   2.349   5.353   5.041  0.8459  1.6974  0.9299
15862TIP3    H269078   2.482   5.354   5.113  1.0960 -1.1355  0.6407
15863TIP3   OH269079   4.944   0.819   0.256 -0.1041 -0.4320 -0.3209
15863TIP3    H169080   4.950   0.878   0.180 -0.3965  0.4212  0.2985
15863TIP3    H269081   4.928   0.733   0.218 -1.2587  0.1290 -1.2092
15864TIP3   OH269082   0.768   4.589  13.018  0.4993 -0.5045 -0.2265
15864TIP3    H169083   0.684   4.634  13.017  0.9542  0.5694  2.4446
15864TIP3    H269084   0.749   4.502  12.984 -1.9189 -0.6136  1.1716
15865TIP3   OH269085   4.484   0.323  12.340 -0.0671  0.0433 -0.2696
15865TIP3    H169086   4.453   0.264  12.271 -1.5407  0.6761 -0.1922
15865TIP3    H269087   4.459   0.410  12.310  0.2330  0.4296  0.5771
15866TIP3   OH269088   2.648   5.870   5.903 -1.2459 -0.0841 -0.2841
15866TIP3    H169089   2.577   5.901   5.847 -0.7771  1.7352  0.0768
15866TIP3    H269090   2.727   5.883   5.852 -0.7339  2.2535  0.9419
15867TIP3   OH269091   5.693   1.074  16.676  0.4172  0.2162 -0.3007
15867TIP3    H169092   5.775   1.122  16.667 -0.8477  2.1556 -2.8839
15867TIP3    H269093   5.696   1.007  16.607 -0.5182  0.9321 -1.0673
15868TIP3   OH269094   3.113   6.127  16.464 -0.0982  0.1397 -0.0189
15868TIP3    H169095   3.125   6.104  16.372  1.1603  1.1726 -0.1481
15868TIP3    H269096   3.182   6.078  16.509  0.0470  0.5526  0.2119
15869TIP3   OH269097   2.657   5.020  16.683 -0.3939 -0.5723  0.7882
15869TIP3    H169098   2.718   5.000  16.612  1.0371  1.2245  1.4277
15869TIP3    H269099   2.681   4.961  16.754  0.7919  0.2507  1.1022
15870TIP3   OH269100   3.536   6.219  16.125 -0.1474 -0.3988  0.2163
15870TIP3    H169101   3.557   6.312  16.128 -1.4601 -0.1055  2.1774
15870TIP3    H269102   3.446   6.215  16.093 -0.0583 -1.0106  0.0175
15871TIP3   OH269103   5.693   5.572  13.179  0.1818 -0.6048 -0.2961
15871TIP3    H169104   5.621   5.534  13.128  1.0847  0.0643 -2.1641
15871TIP3    H269105   5.749   5.498  13.199 -0.8510 -1.0943  0.9700
15872TIP3   OH269106   6.467   0.511   2.772 -0.2093  0.4879 -0.4474
15872TIP3    H169107   6.421   0.473   2.847  0.3495 -0.0181 -0.3512
15872TIP3    H269108   6.438   0.602   2.769  1.2449  1.0754  1.5792
15873TIP3   OH269109   3.956   1.296  11.114  0.3806 -0.5687  0.1153
15873TIP3    H169110   4.049   1.292  11.093  0.8826 -1.4053  2.2810
15873TIP3    H269111   3.934   1.389  11.107  1.6778 -0.1987  0.7353
15874TIP3   OH269112   3.717   5.795  12.474 -0.0819 -0.2055 -0.1054
15874TIP3    H169113   3.682   5.753  12.396  1.8443  0.0612 -1.1904
15874TIP3    H269114   3.805   5.824  12.448 -0.0365  1.4234  1.6381
15875TIP3   OH269115   2.560   2.530   3.072  0.4903 -0.0707  0.1901
15875TIP3    H169116   2.591   2.545   2.982  1.4664  1.1810  0.6970
15875TIP3    H269117   2.612   2.590   3.125 -0.8309  0.0023  1.4690
15876TIP3   OH269118   2.749   0.401   3.913  0.3670 -0.0118 -0.1246
15876TIP3    H169119   2.819   0.390   3.977 -0.8951  0.1946  1.3409
15876TIP3    H269120   2.683   0.336   3.937 -0.0013 -0.1600 -1.4370
15877TIP3   OH269121   1.447   2.887  12.440 -0.0397  0.6795  0.4186
15877TIP3    H169122   1.370   2.890  12.384  0.6825 -0.2483 -0.6629
15877TIP3    H269123   1.435   2.808  12.494  0.7562 -0.2438 -0.7026
15878TIP3   OH269124   2.688   2.766  11.280  0.9468  0.0403 -0.1095
15878TIP3    H169125   2.694   2.681  11.236  1.8210 -0.3337  0.6926
15878TIP3    H269126   2.738   2.755  11.361 -0.8424  0.6311  1.1313
15879TIP3   OH269127   0.035   6.531  12.673  0.4349 -0.1226  0.5913
15879TIP3    H169128  -0.038   6.512  12.615 -0.0255  0.1375  1.0788
15879TIP3    H269129   0.113   6.519  12.618  0.0217 -0.1518  0.0016
15880TIP3   OH269130   5.627   5.208   3.146 -0.4892 -0.3552 -0.0106
15880TIP3    H169131   5.708   5.250   3.174 -2.0056  1.6545  1.7014
15880TIP3    H269132   5.614   5.136   3.207 -0.9179  0.5410  1.0051
15881TIP3   OH269133   1.740   1.372   1.320  0.0565  0.7650 -0.0434
15881TIP3    H169134   1.796   1.407   1.390 -0.6724  1.2397  0.3180
15881TIP3    H269135   1.716   1.448   1.268 -2.3929  1.0488  1.3609
15882TIP3   OH269136   6.419   4.312  14.001  0.4409  0.2382  0.7770
15882TIP3    H169137   6.335   4.278  13.969 -0.1318  1.9397  0.3670
15882TIP3    H269138   6.480   4.297  13.929 -0.0839  1.0793  0.1270
15883TIP3   OH269139   3.547   6.399   5.618  0.3717 -0.2032  0.0673
15883TIP3    H169140   3.480   6.357   5.672 -1.6518  0.2885 -1.8833
15883TIP3    H269141   3.538   6.492   5.636  1.6270 -0.2250  0.9152
15884TIP3   OH269142   0.486   3.599   5.657 -0.1440 -0.0446  0.2295
15884TIP3    H169143   0.479   3.622   5.564  1.7305  0.8876  0.2745
15884TIP3    H269144   0.407   3.636   5.697  0.3700  1.9935 -0.5555
15885TIP3   OH269145   6.036   6.075  11.610 -0.1473  0.9262  0.4723
15885TIP3    H169146   6.130   6.059  11.601 -0.3068  0.7269 -1.3338
15885TIP3    H269147   6.019   6.069  11.704  0.6987 -4.8345  0.6454
15886TIP3   OH269148   1.990   6.261   1.070  0.2022 -0.1998  0.3305
15886TIP3    H169149   1.908   6.276   1.116  0.5056  1.2598  0.4398
15886TIP3    H269150   1.968   6.270   0.977  0.2038  0.0478  0.3532
15887TIP3   OH269151   4.969   1.860   4.522 -0.4416 -0.0283 -0.2682
15887TIP3    H169152   4.877   1.839   4.537  0.0413 -1.6536  0.6236
15887TIP3    H269153   4.968   1.949   4.488 -2.3772 -0.2062 -0.7758
15888TIP3   OH269154   5.017   2.036  15.364  0.6168 -0.2861 -0.3568
15888TIP3    H169155   5.091   2.008  15.310  0.4012  1.2807 -1.5381
15888TIP3    H269156   4.940   2.005  15.317  0.4649 -1.9369  0.8835
15889TIP3   OH269157   2.800   2.653  15.730 -0.4923 -0.0400  0.4901
15889TIP3    H169158   2.707   2.656  15.752 -0.8857 -0.8778 -0.9103
15889TIP3    H269159   2.810   2.571  15.681  1.3063 -0.7588  1.9391
15890TIP3   OH269160   1.661   0.099   2.514 -0.1286 -0.1559  0.6689
15890TIP3    H169161   1.692   0.113   2.604 -0.3506  1.0292  0.5854
15890TIP3    H269162   1.670   0.005   2.500 -1.0623 -0.5438  2.3126
15891TIP3   OH269163   1.179   4.431  14.949  0.1724  0.3799 -0.2459
15891TIP3    H169164   1.128   4.511  14.963  0.5526  0.3824  1.3944
15891TIP3    H269165   1.141   4.368  15.010  1.5161  0.1043  0.3426
15892TIP3   OH269166   4.020   1.891  13.145 -0.3152 -0.1495 -0.1210
15892TIP3    H169167   4.104   1.855  13.174  0.7817  2.9612  1.0739
15892TIP3    H269168   4.041   1.937  13.064 -0.8375  0.6284  0.1775
15893TIP3   OH269169   4.669   5.717  11.969 -0.1891 -0.4856 -0.3783
15893TIP3    H169170   4.591   5.730  12.022 -1.1588  1.2242 -2.0791
15893TIP3    H269171   4.736   5.771  12.011 -0.6763  0.0869 -0.3217
15894TIP3   OH269172   4.807   4.428   0.822  0.2979 -0.2359 -0.2130
15894TIP3    H169173   4.805   4.521   0.799  0.8715 -0.3548 -0.8051
15894TIP3    H269174   4.769   4.423   0.909  0.7226  0.6254  0.0331
15895TIP3   OH269175   0.999   0.998   1.572 -0.0739  0.1326 -0.5383
15895TIP3    H169176   0.954   0.915   1.553 -0.7244  0.8544 -2.3596
15895TIP3    H269177   0.949   1.037   1.643  1.2279 -1.7484  1.5505
15896TIP3   OH269178   0.451   4.720  14.242  0.1700  0.5444  0.1982
15896TIP3    H169179   0.460   4.628  14.265 -1.3751  0.1985 -0.4635
15896TIP3    H269180   0.409   4.719  14.156  3.4688  1.8127 -1.5819
15897TIP3   OH269181   5.963   2.620   0.051  0.6278  0.5865  0.5096
15897TIP3    H169182   5.982   2.543   0.104  0.0902 -0.6397 -1.0228
15897TIP3    H269183   6.041   2.634  -0.002 -0.0014 -0.1324 -0.6433
15898TIP3   OH269184   5.846   5.830   1.805  0.2756 -0.1355  0.7341
15898TIP3    H169185   5.817   5.758   1.861  2.1276 -0.1793  1.7094
15898TIP3    H269186   5.852   5.792   1.717 -0.8572 -0.5671  0.8272
15899TIP3   OH269187   3.277   1.223  15.995  0.6001  0.0004  0.4356
15899TIP3    H169188   3.332   1.214  16.073  0.2674 -1.7469  0.5201
15899TIP3    H269189   3.196   1.262  16.028  0.4910 -0.6571  0.9595
15900TIP3   OH269190   5.896   2.065  12.682  0.2058 -0.0331  0.5253
15900TIP3    H169191   5.808   2.100  12.668  0.2642  0.3259  1.0363
15900TIP3    H269192   5.940   2.130  12.736  0.9565  0.0380 -0.1548
15901TIP3   OH269193   1.426   0.306  15.795  0.3589 -0.3404 -0.1146
15901TIP3    H169194   1.358   0.312  15.729  0.7355 -1.8731 -0.6894
15901TIP3    H269195   1.384   0.264  15.870  0.3374 -0.0882  0.0144
15902TIP3   OH269196   6.749   3.118  12.236  0.4815  0.3949  0.5802
15902TIP3    H169197   6.659   3.146  12.218 -0.1284 -1.7792 -0.0811
15902TIP3    H269198   6.793   3.125  12.151 -0.2397 -2.3540 -0.1311
15903TIP3   OH269199   1.323   6.586   6.556  0.2396 -0.2634 -0.4432
15903TIP3    H169200   1.257   6.655   6.562 -2.0833 -2.4375  1.7215
15903TIP3    H269201   1.301   6.539   6.475 -1.7964 -1.6904  0.8457
15904TIP3   OH269202   6.852   0.693   2.004  0.2224 -0.0307 -0.0035
15904TIP3    H169203   6.918   0.652   1.949 -1.2420  0.9602 -2.6990
15904TIP3    H269204   6.808   0.620   2.048  1.7054 -0.8271  0.2080
15905TIP3   OH269205   5.672   0.582   5.091  0.3821 -0.1773 -0.2534
15905TIP3    H169206   5.618   0.533   5.152 -0.1826 -0.0107 -0.6122
15905TIP3    H269207   5.637   0.560   5.004  1.1895 -0.4404 -0.5311
15906TIP3   OH269208   0.124   2.853  12.923 -0.1449 -0.1560  0.5630
15906TIP3    H169209   0.163   2.936  12.951 -0.9660 -0.4366  2.6927
15906TIP3    H269210   0.195   2.808  12.876  0.7462  1.1414  0.6296
15907TIP3   OH269211   2.764   4.951   4.683 -0.0770 -0.3559 -0.0462
15907TIP3    H169212   2.847   4.903   4.679 -1.8895 -3.7944 -0.8224
15907TIP3    H269213   2.740   4.950   4.776  0.6154  0.4732  0.1518
15908TIP3   OH269214   0.605   2.414  16.484  0.1496 -0.2224  0.5922
15908TIP3    H169215   0.540   2.354  16.448  0.6884  0.1378 -1.0884
15908TIP3    H269216   0.558   2.498  16.493  0.1247 -0.2008  0.2804
15909TIP3   OH269217   0.693   3.998  14.734 -0.1200  0.1975 -0.6200
15909TIP3    H169218   0.706   4.061  14.663 -0.5172 -0.2284 -1.0857
15909TIP3    H269219   0.599   4.002  14.751 -1.0825 -3.3241 -3.6589
15910TIP3   OH269220   3.406   4.286   3.842  0.3281 -0.3232 -0.1109
15910TIP3    H169221   3.461   4.233   3.900 -0.3641 -2.0537 -0.9603
15910TIP3    H269222   3.386   4.364   3.894  2.1960 -0.3958  0.8320
15911TIP3   OH269223   4.379   2.857   3.904 -0.0848  0.1815  0.0927
15911TIP3    H169224   4.319   2.916   3.857 -0.4372  1.2137  1.7570
15911TIP3    H269225   4.338   2.844   3.989  1.9854  0.8552  1.2597
15912TIP3   OH269226   6.421   3.871   0.642 -0.0717 -0.3044 -0.3688
15912TIP3    H169227   6.372   3.797   0.607 -0.1399 -0.9454  0.9962
15912TIP3    H269228   6.374   3.894   0.722  1.7392 -0.8656  0.9338
15913TIP3   OH269229   3.322   2.131  15.336  0.4038  0.8828 -0.0364
15913TIP3    H169230   3.340   2.079  15.258 -1.0407 -1.8484  1.2990
15913TIP3    H269231   3.239   2.095  15.370  0.5089  2.5745  2.2396
15914TIP3   OH269232   5.221   3.301  13.608 -0.0051  0.6374 -0.0587
15914TIP3    H169233   5.256   3.305  13.697  0.0553  0.8714 -0.0914
15914TIP3    H269234   5.135   3.343  13.615 -0.3974 -0.1801  0.0758
15915TIP3   OH269235   2.662   0.152   4.269 -0.2565 -0.1910  0.1829
15915TIP3    H169236   2.693   0.092   4.202 -0.6660 -0.2656  0.0570
15915TIP3    H269237   2.642   0.096   4.344 -0.3504 -0.1760  0.1692
15916TIP3   OH269238   1.310   4.736   6.165  0.0971 -0.1329 -0.3456
15916TIP3    H169239   1.256   4.696   6.233  1.0192 -0.1302  0.4048
15916TIP3    H269240   1.400   4.725   6.196  0.6706 -1.4933 -2.2764
15917TIP3   OH269241   5.932   2.265  15.842 -0.3914  0.4024  0.1549
15917TIP3    H169242   6.014   2.245  15.797  0.7953  1.8983  1.5454
15917TIP3    H269243   5.901   2.346  15.802  0.6184  1.6838  1.8730
15918TIP3   OH269244   6.289   0.902  15.687 -0.6401 -0.5676 -0.1389
15918TIP3    H169245   6.344   0.833  15.649 -1.1572 -1.0091 -0.0954
15918TIP3    H269246   6.216   0.909  15.626  0.1709  1.0382 -0.9907
15919TIP3   OH269247   5.037   5.637  15.953  0.0595 -0.4248  0.8592
15919TIP3    H169248   5.085   5.689  16.018  1.0772  0.2915 -0.4148
15919TIP3    H269249   5.089   5.644  15.874 -1.5891 -0.5767 -0.2868
15920TIP3   OH269250   4.840   1.873   5.526  0.0844 -0.4024  0.0706
15920TIP3    H169251   4.895   1.944   5.556 -2.4661  2.1909 -0.8848
15920TIP3    H269252   4.771   1.865   5.592 -1.4007  0.2699 -1.3027
15921TIP3   OH269253   5.240   1.926   0.527  0.2822 -0.3513  0.0685
15921TIP3    H169254   5.287   1.918   0.610  1.7009  0.0429 -0.6610
15921TIP3    H269255   5.184   1.849   0.524  0.9045 -0.8616  0.9658
15922TIP3   OH269256   0.721   3.314   1.332  0.0148 -0.1355  0.3364
15922TIP3    H169257   0.803   3.303   1.380  0.4276  0.4797 -0.2006
15922TIP3    H269258   0.660   3.351   1.396  0.9336  1.9273  0.0883
15923TIP3   OH269259   4.678   0.141  15.157 -0.2093 -0.3293 -0.0162
15923TIP3    H169260   4.628   0.189  15.091 -1.3484 -0.5542  0.6385
15923TIP3    H269261   4.685   0.201  15.231 -1.4379 -1.0494  0.7164
15924TIP3   OH269262   3.966   6.075   2.260  0.6791 -0.6360  0.5069
15924TIP3    H169263   4.041   6.027   2.295  1.0603 -1.5035 -1.3796
15924TIP3    H269264   3.902   6.007   2.238  1.2540 -0.4015 -2.2886
15925TIP3   OH269265   2.859   1.428  16.822 -0.2393 -0.2969  0.1478
15925TIP3    H169266   2.810   1.346  16.816  0.9549 -1.3079  2.5001
15925TIP3    H269267   2.815   1.478  16.890  0.2997  0.0545  0.2477
15926TIP3   OH269268   6.074   0.206   0.178  0.0398  0.7859  0.4255
15926TIP3    H169269   6.073   0.260   0.099  0.8644 -0.1580 -0.2587
15926TIP3    H269270   6.165   0.179   0.187 -0.0495  0.8587  1.7011
15927TIP3   OH269271   4.593   6.030   5.978  0.3476 -0.2570 -0.0002
15927TIP3    H169272   4.544   6.016   6.059 -0.1681  1.1826 -0.0341
15927TIP3    H269273   4.669   6.082   6.005  0.8060 -0.7911 -0.2570
15928TIP3   OH269274   1.790   6.358  16.353  0.4195  0.0780 -0.3205
15928TIP3    H169275   1.755   6.335  16.267  0.4806 -1.2873 -0.0075
15928TIP3    H269276   1.827   6.445  16.342  2.7648 -1.0630 -2.3831
15929TIP3   OH269277   2.731   1.283   1.562 -0.0163 -0.3223  0.0115
15929TIP3    H169278   2.687   1.314   1.641 -0.6108  0.4372 -0.6001
15929TIP3    H269279   2.730   1.187   1.570 -0.3507 -0.2650  0.7634
15930TIP3   OH269280   2.343   6.446   5.377 -0.1541  0.8450  0.5847
15930TIP3    H169281   2.324   6.381   5.444  0.0203  0.4994  0.3016
15930TIP3    H269282   2.413   6.499   5.415  0.3319  0.3024  0.4578
15931TIP3   OH269283   6.275   5.387   0.206  0.2091 -0.1592  0.1389
15931TIP3    H169284   6.215   5.461   0.220  0.5868  0.2794 -0.5349
15931TIP3    H269285   6.340   5.420   0.144 -0.9818 -1.7961 -2.1100
15932TIP3   OH269286   0.188   1.467  16.300 -0.0189  0.1726  0.4953
15932TIP3    H169287   0.112   1.409  16.289  1.3755 -1.4487 -1.2261
15932TIP3    H269288   0.219   1.449  16.389 -2.2417  1.7291  1.6884
15933TIP3   OH269289   6.222   0.077  15.619  0.0030  0.3497  0.5013
15933TIP3    H169290   6.244   0.002  15.673 -0.4188 -0.0256  0.1648
15933TIP3    H269291   6.228   0.152  15.678  1.2985  0.1732  0.6263
15934TIP3   OH269292   4.773   1.036  12.745 -0.1288 -0.1507 -0.3938
15934TIP3    H169293   4.792   1.055  12.653 -0.3299  1.0305 -0.2059
15934TIP3    H269294   4.768   1.122  12.787 -0.0517 -0.6706  0.7237
15935TIP3   OH269295   4.018   4.164  15.239  0.2276 -0.0828  0.1582
15935TIP3    H169296   3.983   4.079  15.212 -0.6482 -0.0813  1.2082
15935TIP3    H269297   4.099   4.173  15.189  0.6709 -1.8177  0.4855
15936TIP3   OH269298   4.864   0.833   4.697  0.1641 -0.7023 -0.1190
15936TIP3    H169299   4.881   0.765   4.632  0.9144  0.4398 -1.1544
15936TIP3    H269300   4.786   0.803   4.744  1.6492 -3.2966  0.8853
15937TIP3   OH269301   1.292   4.066  16.371 -0.0981 -0.2532  0.0003
15937TIP3    H169302   1.358   4.002  16.398  0.7077  1.0227  1.2475
15937TIP3    H269303   1.311   4.083  16.278  0.5996 -0.7378  0.0509
15938TIP3   OH269304   5.750   6.754  15.374 -0.2319  0.0273 -0.3498
15938TIP3    H169305   5.681   6.759  15.309  0.3916 -1.2554 -1.1485
15938TIP3    H269306   5.798   6.836  15.364 -0.8555  0.3584 -0.6741
15939TIP3   OH269307   5.824   2.993  15.137  0.2232 -0.3902  0.4190
15939TIP3    H169308   5.801   3.003  15.229 -0.2567 -0.5778  0.3263
15939TIP3    H269309   5.888   3.062  15.120 -0.7889  0.5953  0.5197
15940TIP3   OH269310   0.409   5.525   0.823 -1.0234 -0.4033  0.0899
15940TIP3    H169311   0.412   5.612   0.864 -0.4802  0.0135 -0.7989
15940TIP3    H269312   0.410   5.464   0.897  0.9994  0.3081  0.7184
15941TIP3   OH269313   0.202   4.192   2.157 -0.2235  0.0178  0.3165
15941TIP3    H169314   0.267   4.131   2.192 -0.3747  0.5109  1.5131
15941TIP3    H269315   0.225   4.202   2.065  2.5193  1.5877  1.0827
15942TIP3   OH269316   6.616   2.062  11.534 -0.0543  0.0521 -0.0468
15942TIP3    H169317   6.576   1.992  11.586 -1.7214  1.2524  0.3782
15942TIP3    H269318   6.694   2.088  11.584 -0.4628 -0.2421  0.7585
15943TIP3   OH269319   5.550   6.284  11.658  0.5500 -0.1168 -0.5869
15943TIP3    H169320   5.466   6.316  11.692  0.4399 -1.6571  0.7665
15943TIP3    H269321   5.539   6.280  11.563 -1.0063 -0.5113 -0.4086
15944TIP3   OH269322   0.070   0.731   0.668 -0.2230 -0.2122  1.0537
15944TIP3    H169323   0.062   0.754   0.761  1.2293  4.3180  0.3227
15944TIP3    H269324   0.160   0.756   0.645 -1.0427  0.4015 -1.8826
15945TIP3   OH269325   2.783   2.391   2.943  0.0605 -0.3076 -0.1670
15945TIP3    H169326   2.797   2.304   2.907 -0.9377 -1.2305  1.5653
15945TIP3    H269327   2.716   2.380   3.010 -0.1091  1.8032  0.1035
15946TIP3   OH269328   3.367   6.180   5.733  0.0782  0.0854 -0.2033
15946TIP3    H169329   3.425   6.130   5.675 -1.8465  0.2045 -2.3891
15946TIP3    H269330   3.285   6.131   5.731 -0.4903  0.9349  1.2723
15947TIP3   OH269331   0.211   1.726  16.175 -0.3165 -0.1474  0.0046
15947TIP3    H169332   0.196   1.633  16.196 -0.9099 -0.3995 -1.3954
15947TIP3    H269333   0.124   1.766  16.184 -0.1032  0.2244  0.3902
15948TIP3   OH269334   4.400   0.067   4.013 -0.2340  0.4375 -0.0527
15948TIP3    H169335   4.305   0.057   4.018 -0.3807  1.2418 -0.9076
15948TIP3    H269336   4.413   0.161   4.003  0.6497  0.3219 -0.0302
15949TIP3   OH269337   3.358   3.660  10.858 -0.2405 -0.3331  0.4945
15949TIP3    H169338   3.355   3.703  10.773 -0.7450 -2.0493 -0.4048
15949TIP3    H269339   3.270   3.671  10.894 -1.0887 -2.4434 -0.7459
15950TIP3   OH269340   6.525   0.001   4.771  0.3950 -0.7724  0.3302
15950TIP3    H169341   6.621   0.006   4.772  0.5165 -1.9195 -1.5893
15950TIP3    H269342   6.499   0.038   4.687 -0.8842 -0.4317  0.8414
15951TIP3   OH269343   3.706   2.907   4.701  0.3011 -0.1912 -0.3593
15951TIP3    H169344   3.710   2.816   4.728  3.2629  0.1755  0.8144
15951TIP3    H269345   3.648   2.949   4.765  2.2028 -0.5407  1.6788
15952TIP3   OH269346   1.009   4.577  16.385  0.2928  0.4364 -0.5532
15952TIP3    H169347   1.007   4.664  16.426 -0.7804  0.0924  0.1494
15952TIP3    H269348   0.954   4.587  16.307 -0.1673  0.2950 -0.2539
15953TIP3   OH269349   4.056   0.649   2.991  0.1038 -0.4797  0.1393
15953TIP3    H169350   4.043   0.571   2.938 -1.1356 -1.2021  1.4412
15953TIP3    H269351   4.058   0.618   3.082 -1.4698  1.0784  0.7683
15954TIP3   OH269352   0.636   5.288   2.428 -0.8208  0.7510 -0.1522
15954TIP3    H169353   0.580   5.347   2.377 -0.3603  0.7938 -0.6224
15954TIP3    H269354   0.682   5.236   2.361 -0.3948  0.6299  0.2300
15955TIP3   OH269355   1.082   2.732   4.958  0.1371 -0.2785 -0.2869
15955TIP3    H169356   0.997   2.741   5.000 -0.6262 -1.2193 -1.5340
15955TIP3    H269357   1.139   2.792   5.005 -1.4049  0.9821  0.0728
15956TIP3   OH269358   2.193   5.267  12.023 -0.2667 -0.3845  0.2076
15956TIP3    H169359   2.245   5.238  11.948 -0.5132 -1.3666  0.4018
15956TIP3    H269360   2.137   5.192  12.044 -2.6031  1.0096 -0.7013
15957TIP3   OH269361   1.796   3.447   5.109  0.3815  0.2165 -0.4139
15957TIP3    H169362   1.783   3.540   5.131 -0.3717 -0.1236  0.6772
15957TIP3    H269363   1.785   3.402   5.193  0.8133 -0.8585 -0.9249
15958TIP3   OH269364   4.009   5.066   4.128 -0.3441 -0.7715  0.7559
15958TIP3    H169365   4.099   5.054   4.159 -0.6570 -0.6701  1.7502
15958TIP3    H269366   4.009   5.034   4.038  1.0767  0.7199  0.1824
15959TIP3   OH269367   6.566   5.505  13.536 -0.0555 -0.0776 -0.3210
15959TIP3    H169368   6.549   5.413  13.513  1.7312 -0.8167  1.1293
15959TIP3    H269369   6.659   5.508  13.558  0.0505  2.2107 -0.7944
15960TIP3   OH269370   0.887   3.950   6.807 -0.1635  0.5070 -0.8708
15960TIP3    H169371   0.824   4.019   6.784 -1.3058 -0.0670  0.3961
15960TIP3    H269372   0.898   3.899   6.727  0.2707  1.7925 -1.6753
15961TIP3   OH269373   5.352   3.919   5.149 -0.1553  0.0314 -0.4929
15961TIP3    H169374   5.386   3.832   5.129  0.6969  0.8099 -2.8087
15961TIP3    H269375   5.266   3.921   5.108 -0.4992  0.0542  0.2124
15962TIP3   OH269376   0.773   3.584  12.628  0.1379  0.4386 -0.2332
15962TIP3    H169377   0.802   3.552  12.713 -1.6851 -0.8815 -0.0527
15962TIP3    H269378   0.837   3.548  12.566  0.4386 -0.1382  0.4022
15963TIP3   OH269379   6.525   3.862   4.084 -0.6008  0.1926  0.1457
15963TIP3    H169380   6.566   3.819   4.159 -0.8711 -0.1922  0.0765
15963TIP3    H269381   6.595   3.871   4.020 -0.7759 -1.1612 -0.2784
15964TIP3   OH269382   5.196   2.153   5.225 -1.1173 -0.5281 -0.2174
15964TIP3    H169383   5.261   2.192   5.167 -1.2297  0.9700  0.6089
15964TIP3    H269384   5.143   2.098   5.168  0.3068 -1.0692 -1.0691
15965TIP3   OH269385   2.559   4.081   0.978  0.3170 -0.6763 -0.3598
15965TIP3    H169386   2.538   4.166   1.016  2.1013 -0.3801  0.0507
15965TIP3    H269387   2.654   4.083   0.966  0.2575 -2.2145 -1.3333
15966TIP3   OH269388   5.394   0.588  13.224 -0.1529  0.0882  0.5601
15966TIP3    H169389   5.393   0.501  13.183  2.0678 -1.0720  2.7075
15966TIP3    H269390   5.331   0.639  13.173  0.6123 -1.8934 -2.6901
15967TIP3   OH269391   1.827   2.651  10.913 -0.0769 -0.0301 -0.6735
15967TIP3    H169392   1.903   2.594  10.899  0.6182  0.8586 -0.6272
15967TIP3    H269393   1.863   2.740  10.907 -1.0032  0.3983 -0.0432
15968TIP3   OH269394   3.323   0.720   1.846 -0.0141 -0.1009  0.0497
15968TIP3    H169395   3.279   0.760   1.921 -2.2055  1.1953 -1.7860
15968TIP3    H269396   3.287   0.766   1.770  2.4147 -1.0466 -1.8077
15969TIP3   OH269397   5.772   6.722  14.801  0.3239  0.3856  0.2197
15969TIP3    H169398   5.793   6.651  14.741 -0.1016 -0.3834  0.9557
15969TIP3    H269399   5.742   6.794  14.745 -1.7162 -0.8879 -0.4178
15970TIP3   OH269400   3.675   1.338  10.852  0.5487  0.2619  0.2446
15970TIP3    H169401   3.751   1.389  10.881  0.4787  0.1714  0.5848
15970TIP3    H269402   3.711   1.254  10.825  0.7523  0.7149 -0.9453
15971TIP3   OH269403   4.644   6.266   4.802 -0.0511  0.3633 -0.2092
15971TIP3    H169404   4.682   6.234   4.884 -0.8436 -0.8487 -0.2785
15971TIP3    H269405   4.554   6.288   4.825 -0.4956 -0.6695 -0.8812
15972TIP3   OH269406   6.097   4.520  14.654 -0.3842 -0.3121  0.5733
15972TIP3    H169407   6.116   4.517  14.748 -1.0001 -2.0732  0.6813
15972TIP3    H269408   6.043   4.599  14.644  0.3527  0.3545  1.5398
15973TIP3   OH269409   0.990   5.861   3.615  0.3534  0.4427  0.3171
15973TIP3    H169410   0.904   5.902   3.618  0.8982  1.6007  0.7359
15973TIP3    H269411   0.972   5.767   3.606 -0.9349  0.6906  0.1592
15974TIP3   OH269412   0.285   5.608  10.979  0.2819 -0.4078  0.0185
15974TIP3    H169413   0.282   5.512  10.982  0.8548 -0.4018  1.4263
15974TIP3    H269414   0.203   5.633  10.937  1.2830 -1.5764 -2.8786
15975TIP3   OH269415   4.804   2.084  13.099 -0.1426 -0.0982  0.4072
15975TIP3    H169416   4.715   2.111  13.122 -0.0979  1.6844 -1.2896
15975TIP3    H269417   4.855   2.165  13.101  1.7496 -1.2171  2.3530
15976TIP3   OH269418   0.321   0.786   0.177  0.4212  0.2757  0.2539
15976TIP3    H169419   0.382   0.821   0.243  0.3916 -0.4781  0.6950
15976TIP3    H269420   0.378   0.739   0.116  0.3368  0.0046  0.3824
15977TIP3   OH269421   3.503   1.656   1.488  0.1122  0.7686 -0.3182
15977TIP3    H169422   3.595   1.680   1.499 -0.0268  0.8393  0.9004
15977TIP3    H269423   3.503   1.590   1.419  1.2500 -0.1315  0.4922
15978TIP3   OH269424   0.181   0.037   3.450 -0.0567  0.3519 -0.3906
15978TIP3    H169425   0.216  -0.030   3.509  1.2789  0.7876 -0.6656
15978TIP3    H269426   0.087   0.035   3.466 -0.1702 -2.1698 -0.9895
15979TIP3   OH269427   3.137   2.710  15.142  0.1173  0.3386  0.1487
15979TIP3    H169428   3.199   2.780  15.160 -1.1300  1.4012  0.4458
15979TIP3    H269429   3.106   2.728  15.053 -0.6517  0.5224  0.4472
15980TIP3   OH269430   0.551   6.602  15.941  0.1394  0.8224 -0.1359
15980TIP3    H169431   0.514   6.652  16.014 -0.0898  0.7948 -0.2337
15980TIP3    H269432   0.477   6.587  15.882  0.5509  1.7956 -0.9214
15981TIP3   OH269433   6.537   1.168   4.693 -0.4009 -0.3491 -0.7401
15981TIP3    H169434   6.555   1.177   4.600  0.3580 -1.2511 -0.6951
15981TIP3    H269435   6.461   1.111   4.698 -1.4292  0.9579 -0.8333
15982TIP3   OH269436   1.108   5.490   1.363 -0.3633 -0.0965 -0.7583
15982TIP3    H169437   1.134   5.401   1.386 -0.1726 -0.0502 -0.7903
15982TIP3    H269438   1.025   5.504   1.410 -1.1262 -0.7885 -1.8559
15983TIP3   OH269439   0.965   0.916  14.757  0.7810 -0.5145  0.3214
15983TIP3    H169440   1.013   0.915  14.839  2.0485  2.0732 -0.2842
15983TIP3    H269441   1.027   0.883  14.692  1.3237  1.4106 -0.2133
15984TIP3   OH269442   4.686   3.445   1.724 -0.1473 -0.1318  0.0159
15984TIP3    H169443   4.728   3.506   1.664  2.3208 -0.6278  1.1230
15984TIP3    H269444   4.733   3.363   1.712 -1.1839 -0.9032  0.9555
15985TIP3   OH269445   4.824   3.600   4.077  0.4283  0.5266  0.0797
15985TIP3    H169446   4.916   3.603   4.051  0.0694  1.0644 -1.1608
15985TIP3    H269447   4.826   3.614   4.172  1.6068  0.6937  0.0472
15986TIP3   OH269448   5.844   6.305   1.768  0.1857  0.5111 -0.0632
15986TIP3    H169449   5.891   6.276   1.690  0.7875 -0.7218  0.7204
15986TIP3    H269450   5.860   6.399   1.772  2.6996  0.1518  0.2062
15987TIP3   OH269451   3.229   4.278  14.292 -0.3544 -0.0753 -0.0398
15987TIP3    H169452   3.213   4.185  14.307 -0.6728 -0.1033 -0.5550
15987TIP3    H269453   3.294   4.280  14.222 -0.0887  0.0858  0.2104
15988TIP3   OH269454   4.827   5.337  11.976 -0.1749 -0.5553  0.1539
15988TIP3    H169455   4.769   5.266  12.004  0.3663  0.0229  3.0340
15988TIP3    H269456   4.770   5.395  11.925 -2.0048 -0.4194  2.2042
15989TIP3   OH269457   6.248   1.636  13.250 -0.0468 -0.3165 -0.0528
15989TIP3    H169458   6.302   1.703  13.208 -0.2320 -0.5690 -0.7026
15989TIP3    H269459   6.238   1.666  13.340  2.3885 -0.9569  0.5313
15990TIP3   OH269460   5.603   1.681  11.160  0.7846  0.0195 -0.1623
15990TIP3    H169461   5.596   1.711  11.069 -0.4185 -0.1850 -0.1548
15990TIP3    H269462   5.614   1.586  11.154 -0.3964 -0.1374 -0.0892
15991TIP3   OH269463   3.574   4.181   5.959 -0.0693 -0.4481 -0.1430
15991TIP3    H169464   3.543   4.198   5.870 -0.3998 -2.7003 -0.5213
15991TIP3    H269465   3.500   4.139   6.003 -0.0620  1.0191  1.3850
15992TIP3   OH269466   2.410   4.886   4.242  0.2497 -0.4814 -0.4244
15992TIP3    H169467   2.349   4.932   4.184  0.3231  0.6592  0.3767
15992TIP3    H269468   2.429   4.804   4.196  0.4700  0.4763 -2.1109
15993TIP3   OH269469   2.879   3.988  14.340  0.4171  0.4621  0.2170
15993TIP3    H169470   2.831   3.956  14.416 -0.7221  2.4982  0.4208
15993TIP3    H269471   2.881   4.084  14.351  0.3308  0.8108 -2.2333
15994TIP3   OH269472   6.347   6.078   3.799  0.1582  0.1303 -0.7767
15994TIP3    H169473   6.291   6.001   3.799 -0.1643  0.3430  0.1346
15994TIP3    H269474   6.289   6.150   3.822  0.7370  0.3969 -0.0698
15995TIP3   OH269475   3.757   2.021  10.747  0.0521  0.1780  0.1342
15995TIP3    H169476   3.672   1.980  10.734 -0.5493  1.2949  0.4303
15995TIP3    H269477   3.742   2.115  10.731  1.1719  0.4243  0.4015
15996TIP3   OH269478   2.956   5.925  12.162  0.1310  1.1729  0.7504
15996TIP3    H169479   2.979   5.940  12.254 -0.7255 -0.7991  1.3326
15996TIP3    H269480   3.022   5.863  12.130 -0.6930  0.3482  0.6151
15997TIP3   OH269481   2.626   6.278   0.740 -0.1317  0.2170 -0.0867
15997TIP3    H169482   2.538   6.276   0.777 -0.2157  0.3280 -0.2801
15997TIP3    H269483   2.683   6.291   0.816 -0.3387  0.8947 -0.0376
15998TIP3   OH269484   5.195   5.153   0.753  0.1722  0.2353 -0.1523
15998TIP3    H169485   5.141   5.115   0.683  0.6665  0.3481 -0.6097
15998TIP3    H269486   5.180   5.247   0.747  0.1354  0.2356 -0.0433
15999TIP3   OH269487   4.477   1.069  12.876 -0.2217 -0.1012 -0.2619
15999TIP3    H169488   4.562   1.097  12.840 -1.1001  0.6753 -1.8544
15999TIP3    H269489   4.461   0.983  12.837 -0.3520 -0.0571 -0.3072
16000TIP3   OH269490   3.847   3.647   1.261 -0.2493  0.1893 -0.2250
16000TIP3    H169491   3.892   3.589   1.200 -0.2517  0.1857 -0.2234
16000TIP3    H269492   3.872   3.735   1.231 -2.9597  0.3617 -2.3915
16001TIP3   OH269493   0.837   1.250   0.209 -0.2577  0.5122  0.0124
16001TIP3    H169494   0.856   1.195   0.133 -2.3913 -1.3288  0.6858
16001TIP3    H269495   0.780   1.319   0.175 -0.7720 -0.0053 -0.2116
16002TIP3   OH269496   0.877   0.868   0.402  0.3970  0.2378  0.3145
16002TIP3    H169497   0.870   0.818   0.483 -0.8341 -0.7391 -0.3491
16002TIP3    H269498   0.885   0.801   0.334  2.1377  1.0484 -0.3393
16003TIP3   OH269499   5.394   6.269  17.036  0.1458 -0.3530  0.4850
16003TIP3    H169500   5.408   6.363  17.022 -0.1543 -0.2600  0.7951
16003TIP3    H269501   5.305   6.253  17.005  0.2623 -0.5709  0.2626
16004TIP3   OH269502   2.558   5.462   0.835 -0.3652  0.1823  0.7138
16004TIP3    H169503   2.523   5.378   0.804 -0.7396  0.5527  0.1248
16004TIP3    H269504   2.571   5.448   0.929  1.2669 -1.1240  0.3534
16005TIP3   OH269505   3.326   0.970  15.883 -0.1641  0.3185 -0.4280
16005TIP3    H169506   3.254   0.923  15.926 -0.4122  0.2114 -0.9534
16005TIP3    H269507   3.320   1.059  15.917 -0.2037  0.1784 -0.0557
16006TIP3   OH269508   0.957   1.343   3.460 -0.2037  0.5464  0.0064
16006TIP3    H169509   0.910   1.347   3.544  0.0420  1.7261  0.0978
16006TIP3    H269510   1.046   1.317   3.485  0.1431  1.8887  0.2468
16007TIP3   OH269511   3.844   4.068  13.987  0.4607 -0.4152 -0.4642
16007TIP3    H169512   3.933   4.074  13.952  0.4148  0.9189 -0.3791
16007TIP3    H269513   3.789   4.114  13.924  0.0391 -0.0004  0.1927
16008TIP3   OH269514   3.837   4.338   5.656  0.1021  0.3963  0.9768
16008TIP3    H169515   3.750   4.305   5.631 -0.4140  0.5932  2.4196
16008TIP3    H269516   3.890   4.259   5.667 -0.1627  0.2170  0.9840
16009TIP3   OH269517   0.416   1.147   4.194  0.4324  0.7127 -0.4349
16009TIP3    H169518   0.451   1.189   4.272 -1.1707  0.7190  0.3367
16009TIP3    H269519   0.349   1.207   4.162 -0.8211 -0.4904 -0.2011
16010TIP3   OH269520   0.399   0.865  12.680 -0.2499 -0.3170  0.0659
16010TIP3    H169521   0.464   0.835  12.617 -0.5727  0.6433 -0.7524
16010TIP3    H269522   0.327   0.803  12.671 -0.7354  0.4060 -1.2925
16011TIP3   OH269523   1.416   2.181  14.238  0.0565  0.3129 -0.0550
16011TIP3    H169524   1.426   2.146  14.326  0.5601 -0.5870 -0.4575
16011TIP3    H269525   1.368   2.263  14.250  1.0276  0.7290  1.1453
16012TIP3   OH269526   2.115   6.793  14.532 -0.2854  0.2164  0.3331
16012TIP3    H169527   2.157   6.874  14.563  0.1033  0.6176 -1.1494
16012TIP3    H269528   2.031   6.821  14.497 -0.8673 -0.2785  1.3058
16013TIP3   OH269529   0.098   4.998  10.648 -0.2515  0.1253  0.5873
16013TIP3    H169530   0.052   5.039  10.574 -0.4054 -1.6806 -0.3874
16013TIP3    H269531   0.030   4.950  10.694  0.2580 -0.6882  0.4998
16014TIP3   OH269532   0.585   3.509   0.802  0.0327  0.5342 -0.4820
16014TIP3    H169533   0.655   3.552   0.851  1.3929 -0.0867 -1.7901
16014TIP3    H269534   0.534   3.462   0.868  0.2913  1.7063  0.5992
16015TIP3   OH269535   1.655   2.274   4.936 -0.2949 -0.4942  0.5561
16015TIP3    H169536   1.733   2.229   4.967  0.1847  1.0765  1.7813
16015TIP3    H269537   1.582   2.227   4.977  0.0035 -1.7470 -0.3078
16016TIP3   OH269538   5.758   5.269  14.601 -0.0264  1.1878 -0.5712
16016TIP3    H169539   5.671   5.231  14.614 -0.4405  2.3776  0.3328
16016TIP3    H269540   5.778   5.311  14.685  2.1259 -0.4242 -0.1883
16017TIP3   OH269541   6.719   3.532  11.233  1.0222 -0.3696 -0.0537
16017TIP3    H169542   6.747   3.612  11.187  2.3431 -0.8734 -0.1832
16017TIP3    H269543   6.691   3.473  11.163 -0.1801  0.0405  0.0584
16018TIP3   OH269544   1.725   6.563  14.323  0.1292 -0.2852  0.3385
16018TIP3    H169545   1.657   6.560  14.390  0.1654 -1.7150  0.3368
16018TIP3    H269546   1.726   6.654  14.294 -3.2645 -0.6126 -1.1818
16019TIP3   OH269547   3.796   3.784  16.137 -0.0995  0.1465 -0.6237
16019TIP3    H169548   3.721   3.825  16.180  0.0792  0.0496 -0.2084
16019TIP3    H269549   3.872   3.827  16.177  0.1184 -1.1121  0.3938
16020TIP3   OH269550   0.919   4.176   4.341  0.0710  0.3642  0.4854
16020TIP3    H169551   0.859   4.153   4.413 -0.2815 -0.5570 -0.0963
16020TIP3    H269552   1.006   4.164   4.378 -0.0950 -1.5669  0.3278
16021TIP3   OH269553   2.816   6.847  15.589 -0.5852 -0.1734  0.5764
16021TIP3    H169554   2.801   6.897  15.509  0.6368  0.9556  1.0161
16021TIP3    H269555   2.879   6.780  15.564  0.1624  0.4757  0.6715
16022TIP3   OH269556   1.929   2.577  12.673  0.2358  0.3842 -0.4924
16022TIP3    H169557   1.981   2.500  12.650 -0.0516 -0.0788  0.3468
16022TIP3    H269558   1.979   2.621  12.742  0.5789  1.1659 -1.2257
16023TIP3   OH269559   6.491   2.938  16.954  0.0630  0.0512  0.0474
16023TIP3    H169560   6.448   2.985  17.026 -0.2370  0.6109 -0.4902
16023TIP3    H269561   6.447   2.969  16.875  0.9010  0.0097 -0.4500
16024TIP3   OH269562   4.671   4.991  16.815  0.8836 -0.6487 -0.0056
16024TIP3    H169563   4.647   4.971  16.724  1.5362 -0.3161 -0.2567
16024TIP3    H269564   4.589   4.983  16.864  0.4445 -0.4199 -0.6932
16025TIP3   OH269565   1.097   1.842   4.378 -0.6562 -0.3972  0.3036
16025TIP3    H169566   1.192   1.845   4.388 -0.4041 -1.5769 -1.2549
16025TIP3    H269567   1.064   1.819   4.465  0.3504  1.3138  1.1883
16026TIP3   OH269568   3.434   2.196  11.476  0.0287  0.6613 -0.1002
16026TIP3    H169569   3.471   2.151  11.400 -0.4710 -0.9101  0.5440
16026TIP3    H269570   3.431   2.129  11.544  1.6742  2.3346  1.7539
16027TIP3   OH269571   1.773   1.626  15.323 -0.3623  0.4624  0.2205
16027TIP3    H169572   1.726   1.611  15.406 -0.7837  0.1449 -0.0722
16027TIP3    H269573   1.855   1.577  15.333 -0.1137  0.9731  0.7141
16028TIP3   OH269574   6.787   5.207  12.190 -1.0872 -0.5624  0.3928
16028TIP3    H169575   6.811   5.130  12.242 -0.9781 -0.9480 -0.2251
16028TIP3    H269576   6.816   5.186  12.102 -1.4695  0.0056  0.1298
16029TIP3   OH269577   2.110   0.755   4.798 -0.0882 -0.2571  0.3084
16029TIP3    H169578   2.067   0.776   4.880 -0.9471 -0.1790 -0.1525
16029TIP3    H269579   2.174   0.825   4.786 -0.2380 -0.0523  0.7064
16030TIP3   OH269580   4.762   4.719   3.757  0.1630  0.0738 -0.5039
16030TIP3    H169581   4.837   4.710   3.698 -0.1729 -0.5691 -0.8368
16030TIP3    H269582   4.784   4.795   3.811  1.3282 -0.4410 -0.2056
16031TIP3   OH269583   3.173   4.884  15.592  0.3879 -0.2243  0.3280
16031TIP3    H169584   3.145   4.814  15.651 -1.4062  0.4262  0.3273
16031TIP3    H269585   3.232   4.841  15.530  1.1483 -1.2228  1.6884
16032TIP3   OH269586   2.001   3.912  14.390  0.2683  0.0996  0.5928
16032TIP3    H169587   1.941   3.952  14.327 -0.4823 -1.1351  0.4832
16032TIP3    H269588   2.025   3.828  14.350  0.8216 -0.1196  1.3645
16033TIP3   OH269589   3.418   0.035  17.109 -0.1495 -0.0733  0.1964
16033TIP3    H169590   3.463  -0.048  17.123  1.1854  0.0803 -2.5247
16033TIP3    H269591   3.468   0.099  17.158  0.2369 -0.5283  0.3986
16034TIP3   OH269592   4.813   0.374  16.274  0.4413 -0.0294  0.6701
16034TIP3    H169593   4.879   0.305  16.276  0.1992 -0.2511  1.6092
16034TIP3    H269594   4.835   0.427  16.197  0.2514 -1.5202 -0.4697
16035TIP3   OH269595   4.181   2.631  15.116 -0.3558 -0.3515  0.4121
16035TIP3    H169596   4.138   2.557  15.073  1.1161 -0.6002 -0.7390
16035TIP3    H269597   4.199   2.600  15.204  1.1731 -1.8265 -0.3500
16036TIP3   OH269598   2.146   3.052   3.559 -0.2812  0.1853 -0.3396
16036TIP3    H169599   2.142   2.957   3.575  0.0674 -0.0614 -1.6273
16036TIP3    H269600   2.115   3.091   3.640  0.2615 -1.0184  0.4711
16037TIP3   OH269601   3.684   0.717  15.530 -0.0013 -0.2265 -0.1714
16037TIP3    H169602   3.776   0.740  15.519 -0.1530  0.3075 -0.3854
16037TIP3    H269603   3.648   0.788  15.584 -0.2587 -0.4876  0.0020
16038TIP3   OH269604   3.762   5.518   5.314  0.5146  0.2285 -0.4304
16038TIP3    H169605   3.724   5.510   5.401  0.9585  0.5064 -0.2066
16038TIP3    H269606   3.800   5.606   5.312  0.6926  0.1469 -0.8270
16039TIP3   OH269607   2.875   1.220   0.599  0.3043  0.9134  0.2340
16039TIP3    H169608   2.881   1.236   0.505 -0.7491 -0.9004 -0.1961
16039TIP3    H269609   2.788   1.181   0.611  0.9744 -0.2067  1.7335
16040TIP3   OH269610   6.347   4.882   3.389  0.4257  0.5939 -0.1558
16040TIP3    H169611   6.399   4.833   3.452  1.1521  0.8385 -0.5521
16040TIP3    H269612   6.281   4.820   3.358 -0.9721  0.8997  1.9805
16041TIP3   OH269613   1.430   4.010   0.170 -0.1835 -0.1889 -0.3616
16041TIP3    H169614   1.410   3.923   0.135 -0.0724 -0.3143 -0.1105
16041TIP3    H269615   1.413   4.003   0.264 -2.5913  0.7380 -0.6498
16042TIP3   OH269616   6.806   3.158  13.284 -0.5590  0.3171  0.6522
16042TIP3    H169617   6.734   3.193  13.336 -0.3149  0.9258  0.5858
16042TIP3    H269618   6.849   3.235  13.247  1.6607  0.1707  2.6913
16043TIP3   OH269619   6.157   4.568   0.073  0.2283 -0.2093 -0.0199
16043TIP3    H169620   6.157   4.509   0.148 -2.6238 -0.6603 -0.2795
16043TIP3    H269621   6.198   4.518   0.003 -1.7435 -1.8038 -0.1127
16044TIP3   OH269622   4.381   0.239   1.372 -0.0394  0.4302 -0.0165
16044TIP3    H169623   4.313   0.271   1.431 -0.6316 -0.2702 -0.3177
16044TIP3    H269624   4.400   0.314   1.314 -0.2897  0.7353  0.2940
16045TIP3   OH269625   1.683   3.370  15.875 -0.6545  0.1063  0.1163
16045TIP3    H169626   1.700   3.447  15.821  0.4528 -1.2087 -1.5356
16045TIP3    H269627   1.588   3.364  15.880 -0.7635  1.7380  0.5753
16046TIP3   OH269628   1.010   3.224   1.408 -0.0881  0.0023  0.5431
16046TIP3    H169629   1.047   3.213   1.321  1.2991  0.4232  1.0554
16046TIP3    H269630   0.980   3.136   1.433  1.1914 -0.4954  0.3727
16047TIP3   OH269631   1.819   4.490  10.158 -0.5926 -0.3548 -0.1243
16047TIP3    H169632   1.821   4.554  10.229 -0.9723 -0.7082  0.2099
16047TIP3    H269633   1.824   4.542  10.078  1.1196 -0.0101  0.1593
16048TIP3   OH269634   2.798   1.460   1.930 -0.1007 -0.1308 -0.3267
16048TIP3    H169635   2.786   1.433   2.021 -0.8203  0.2205 -0.3116
16048TIP3    H269636   2.770   1.384   1.878  0.5358 -0.4185 -0.2611
16049TIP3   OH269637   3.477   4.110  10.883  0.0307  0.0642  0.3186
16049TIP3    H169638   3.533   4.065  10.820 -1.4855 -3.1550  1.0260
16049TIP3    H269639   3.392   4.116  10.839 -0.8776 -1.6480  1.6923
16050TIP3   OH269640   0.753   4.174   3.171  0.2927  0.4157  0.7520
16050TIP3    H169641   0.670   4.126   3.175  0.6603 -0.2196  0.8803
16050TIP3    H269642   0.777   4.189   3.262 -0.8673  2.7291  0.7530
16051TIP3   OH269643   0.782   1.286   6.131 -0.1880  0.6919 -0.0808
16051TIP3    H169644   0.806   1.193   6.130 -3.1416 -0.1905 -0.9884
16051TIP3    H269645   0.818   1.319   6.214 -0.5879 -1.7659  1.1797
16052TIP3   OH269646   5.486   2.317   0.846 -0.3659  0.3204 -0.2137
16052TIP3    H169647   5.403   2.360   0.823 -0.7123 -1.6670 -3.3899
16052TIP3    H269648   5.546   2.343   0.776  0.4718 -1.3784 -0.1688
16053TIP3   OH269649   6.547   4.974   3.752 -0.8641 -0.1722 -0.1495
16053TIP3    H169650   6.476   5.032   3.778 -0.8241  0.3521 -1.1650
16053TIP3    H269651   6.600   5.027   3.692  0.9613 -0.2007  1.3572
16054TIP3   OH269652   3.807   1.958   4.803  0.0015 -0.3245  0.2916
16054TIP3    H169653   3.880   2.019   4.793  0.0518 -0.2557  1.0288
16054TIP3    H269654   3.766   1.955   4.717 -0.0026  0.7561  0.2476
16055TIP3   OH269655   4.879   2.172   3.239  0.4969  0.4102  0.0622
16055TIP3    H169656   4.965   2.175   3.197 -0.2694  1.3049 -1.5010
16055TIP3    H269657   4.831   2.246   3.202 -1.2702 -0.6108  0.2237
16056TIP3   OH269658   3.518   1.928   0.099 -0.1942 -0.0621 -0.6106
16056TIP3    H169659   3.438   1.901   0.144  0.9395 -0.6671  1.1364
16056TIP3    H269660   3.582   1.861   0.121  0.8834  0.5243 -1.7928
16057TIP3   OH269661   0.779   4.005  12.458  0.1814 -0.6129 -0.2314
16057TIP3    H169662   0.829   3.930  12.427  0.8552  0.4940 -2.0105
16057TIP3    H269663   0.737   4.040  12.380 -1.5486 -0.1510  0.8560
16058TIP3   OH269664   4.107   5.036   5.277  0.0189  0.2846 -0.6053
16058TIP3    H169665   4.162   5.078   5.211  1.3755  2.0144  1.4900
16058TIP3    H269666   4.064   5.108   5.322 -0.4559 -0.8078  0.7534
16059TIP3   OH269667   6.567   0.469   3.721 -0.7032 -0.2533  0.5307
16059TIP3    H169668   6.644   0.494   3.771 -1.8802  0.6279  1.9771
16059TIP3    H269669   6.516   0.550   3.713 -1.7467 -0.9300  0.1185
16060TIP3   OH269670   2.237   4.527  12.350 -0.2202 -0.5033 -0.1225
16060TIP3    H169671   2.160   4.573  12.381 -0.4377 -1.5659  0.9936
16060TIP3    H269672   2.204   4.467  12.283 -0.3659 -0.8908  0.2892
16061TIP3   OH269673   6.038   4.528  15.169  0.4245  0.6424 -0.4635
16061TIP3    H169674   5.968   4.592  15.182  0.3468  0.7227 -1.2463
16061TIP3    H269675   6.098   4.544  15.242  0.4175  1.6291 -0.6497
16062TIP3   OH269676   5.282   2.150  10.504 -0.2109 -0.4780 -0.1613
16062TIP3    H169677   5.297   2.063  10.467  1.0455 -0.1349 -0.5210
16062TIP3    H269678   5.301   2.211  10.431 -0.7588  0.1013  0.1720
16063TIP3   OH269679   0.762   5.776   4.739 -0.6961 -0.3460 -0.3024
16063TIP3    H169680   0.856   5.785   4.755 -1.1205  0.7625  1.9764
16063TIP3    H269681   0.753   5.690   4.698  1.2307 -0.7738  0.0559
16064TIP3   OH269682   0.331   0.795   1.089 -0.3191  0.6349  0.0756
16064TIP3    H169683   0.424   0.777   1.097 -0.2162  1.2668  0.3279
16064TIP3    H269684   0.290   0.744   1.159 -0.2848 -0.4839 -0.6918
16065TIP3   OH269685   2.721   0.630   3.781  0.0884  0.4184 -0.4481
16065TIP3    H169686   2.738   0.565   3.848 -0.9176  1.0073  0.4019
16065TIP3    H269687   2.772   0.706   3.808 -0.9963  0.9538  0.1440
16066TIP3   OH269688   4.834   0.882  14.910  0.2342  0.0492 -0.4898
16066TIP3    H169689   4.923   0.918  14.915  0.4688 -0.3088 -1.6197
16066TIP3    H269690   4.780   0.955  14.881 -0.1061  0.6181  1.4434
16067TIP3   OH269691   0.728   6.418  13.204 -0.2133 -0.0253  0.2716
16067TIP3    H169692   0.729   6.482  13.275 -1.1422 -0.6226  0.8455
16067TIP3    H269693   0.761   6.465  13.128 -2.4779  1.6876  0.2448
16068TIP3   OH269694   2.992   0.520   2.913 -0.4629 -0.0188  0.7841
16068TIP3    H169695   2.981   0.591   2.977 -0.4115  0.9679 -0.2659
16068TIP3    H269696   3.087   0.507   2.908 -0.4735 -0.1796  0.9904
16069TIP3   OH269697   5.586   6.379  15.157 -0.4020  0.6230  0.3649
16069TIP3    H169698   5.576   6.393  15.063  1.7884  1.2803  0.1704
16069TIP3    H269699   5.669   6.421  15.178  0.9216 -2.4591  1.9466
16070TIP3   OH269700   2.430   6.685   4.001  0.0786  0.3597 -0.3871
16070TIP3    H169701   2.426   6.780   3.988 -0.4612  0.1990 -1.5395
16070TIP3    H269702   2.382   6.649   3.927  2.7735 -0.9293 -1.6555
16071TIP3   OH269703   4.103   3.826  15.715  0.2855  0.6336  0.6576
16071TIP3    H169704   4.051   3.798  15.790  0.4386 -0.2640  0.4326
16071TIP3    H269705   4.039   3.838  15.645 -0.0181  2.6034  1.2117
16072TIP3   OH269706   2.275   4.092  11.748  0.0216  0.2201 -0.2383
16072TIP3    H169707   2.196   4.085  11.695 -0.7535  1.7348  0.6411
16072TIP3    H269708   2.336   4.030  11.708 -1.3958 -0.5826 -1.2846
16073TIP3   OH269709   0.267   5.204  10.700 -0.4386  0.5318 -0.1979
16073TIP3    H169710   0.207   5.133  10.677  0.6738 -1.1517  1.7994
16073TIP3    H269711   0.339   5.195  10.638 -1.1955  1.2286 -1.2267
16074TIP3   OH269712   5.399   3.025   0.956  0.2983  0.8450 -0.1421
16074TIP3    H169713   5.347   3.089   1.004  0.1512  0.8610 -0.3264
16074TIP3    H269714   5.467   2.999   1.019  0.2368  1.0278  0.0023
16075TIP3   OH269715   2.042   0.276   0.620  0.2941 -0.4333 -0.8115
16075TIP3    H169716   2.104   0.317   0.681 -1.2322  1.3445 -0.3391
16075TIP3    H269717   2.088   0.274   0.537  1.8921 -1.5557  0.0619
16076TIP3   OH269718   1.719   3.613  14.081 -0.0324 -0.2164  0.0425
16076TIP3    H169719   1.786   3.675  14.051  0.0870 -1.1490 -1.7251
16076TIP3    H269720   1.761   3.528  14.078 -1.2623 -0.8302 -1.1351
16077TIP3   OH269721   4.650   4.868  11.009  0.7686  0.0495  0.3393
16077TIP3    H169722   4.579   4.807  10.989  1.0488 -0.3691  0.6109
16077TIP3    H269723   4.671   4.908  10.925 -0.0160  0.4256  0.3160
16078TIP3   OH269724   1.690   5.574   4.248  0.1685  0.1092  0.0738
16078TIP3    H169725   1.734   5.641   4.300  0.5533 -0.8170  0.9536
16078TIP3    H269726   1.611   5.553   4.297 -0.4562  0.5956 -0.6910
16079TIP3   OH269727   2.983   1.732  10.268 -0.0075  1.0132 -0.1458
16079TIP3    H169728   2.892   1.713  10.244  0.0052  0.6548  0.0861
16079TIP3    H269729   2.978   1.765  10.357  0.0261  1.6211 -0.3636
16080TIP3   OH269730   1.387   6.567   0.251 -0.1457 -0.6566  0.0320
16080TIP3    H169731   1.368   6.495   0.312 -0.9704  0.9175  1.7566
16080TIP3    H269732   1.303   6.585   0.208 -0.1149 -0.2959  0.1177
16081TIP3   OH269733   3.126   0.953   0.458 -0.3745 -0.5187 -0.3117
16081TIP3    H169734   3.148   0.864   0.432  2.5445 -1.0242  3.0824
16081TIP3    H269735   3.176   1.008   0.398  0.4090 -1.2909 -0.3873
16082TIP3   OH269736   3.812   3.982   3.936  0.3150  0.5095 -0.0789
16082TIP3    H169737   3.739   3.921   3.945  0.7504  0.0177  0.2027
16082TIP3    H269738   3.772   4.063   3.904 -0.6691  0.8969  1.9425
16083TIP3   OH269739   2.896   1.704   3.380  0.1797 -0.7732 -0.1216
16083TIP3    H169740   2.890   1.782   3.436 -0.6767  0.1301 -1.4292
16083TIP3    H269741   2.934   1.637   3.437 -2.3725 -0.4511  2.1725
16084TIP3   OH269742   1.205   1.587   4.691  0.2510 -0.0974  0.3335
16084TIP3    H169743   1.110   1.598   4.699  0.0478 -0.4940 -1.3285
16084TIP3    H269744   1.232   1.557   4.778 -1.3957 -1.7190  0.3435
16085TIP3   OH269745   6.333   0.762   2.666 -0.1336  0.1504  0.1291
16085TIP3    H169746   6.263   0.773   2.601  0.3990  1.8996 -0.2072
16085TIP3    H269747   6.412   0.793   2.622  0.3376  0.8453  1.3982
16086TIP3   OH269748   6.132   4.612   3.739  0.0132 -0.0438 -0.2353
16086TIP3    H169749   6.213   4.658   3.719  0.8948 -1.3658  0.0961
16086TIP3    H269750   6.067   4.650   3.681  0.7127  1.5133 -0.0311
16087TIP3   OH269751   0.737   5.537  14.737  0.2220 -0.6281  0.6275
16087TIP3    H169752   0.784   5.503  14.661  1.5952  1.1179  0.6254
16087TIP3    H269753   0.791   5.512  14.812 -0.0453 -0.5822  0.8368
16088TIP3   OH269754   2.376   5.468   0.341 -0.4105  0.2606  0.1473
16088TIP3    H169755   2.413   5.505   0.261 -1.1899 -0.9363 -0.7936
16088TIP3    H269756   2.428   5.507   0.412  1.3557  0.1232 -1.0094
16089TIP3   OH269757   5.873   5.383  13.279 -0.2161  0.0154 -0.2444
16089TIP3    H169758   5.965   5.409  13.289 -0.0518 -0.8282  0.6211
16089TIP3    H269759   5.874   5.319  13.209 -0.3904  1.1305 -1.2966
16090TIP3   OH269760   1.842   2.864  11.466  0.1793  0.5065  0.1490
16090TIP3    H169761   1.834   2.918  11.387 -0.4920 -2.7040 -2.1802
16090TIP3    H269762   1.926   2.819  11.457 -0.7075 -1.2652  0.2779
16091TIP3   OH269763   2.088   6.144   4.175  0.4865 -0.2192 -0.0825
16091TIP3    H169764   2.146   6.092   4.120 -1.0440 -0.6458 -1.3791
16091TIP3    H269765   2.087   6.099   4.260  0.1871 -1.5967 -0.7854
16092TIP3   OH269766   6.324   1.970   3.879 -0.4210 -0.5270 -0.1278
16092TIP3    H169767   6.384   1.994   3.808 -0.8274  0.1768 -0.2514
16092TIP3    H269768   6.380   1.934   3.948  0.1606  0.2188 -0.2006
16093TIP3   OH269769   3.958   6.621  11.536 -0.5235 -0.4702 -0.5476
16093TIP3    H169770   3.954   6.596  11.628 -0.7719  0.9765 -0.1410
16093TIP3    H269771   4.051   6.622  11.514 -0.4361 -0.3537 -0.1727
16094TIP3   OH269772   4.706   1.508  13.104 -0.1446  0.0204  0.1771
16094TIP3    H169773   4.717   1.416  13.128 -0.5923 -0.4331 -1.2962
16094TIP3    H269774   4.785   1.530  13.054 -0.1105  0.3938  0.3885
16095TIP3   OH269775   3.412   6.363   3.050  0.0576  0.1442 -0.0656
16095TIP3    H169776   3.392   6.432   3.113  0.2005 -0.4837  0.6828
16095TIP3    H269777   3.327   6.322   3.032 -0.2152  1.2148 -1.3797
16096TIP3   OH269778   0.802   2.309  14.066 -0.1331  0.1639  0.8721
16096TIP3    H169779   0.804   2.359  14.149  0.8100 -0.3843  1.1950
16096TIP3    H269780   0.884   2.260  14.066 -0.3101 -0.1537 -0.2140
16097TIP3   OH269781   2.519   5.708   2.130 -0.5128 -0.2750  0.0090
16097TIP3    H169782   2.520   5.620   2.169  2.0735 -0.1179  0.4833
16097TIP3    H269783   2.447   5.753   2.175 -0.6718 -1.5786  1.1310
16098TIP3   OH269784   1.794   2.427   4.733 -0.1121  0.0796  0.5909
16098TIP3    H169785   1.877   2.379   4.733  0.1756  0.5209  2.5601
16098TIP3    H269786   1.748   2.396   4.811 -2.5304 -1.2815 -1.2257
16099TIP3   OH269787   0.673   3.491   4.988  0.0022 -0.0669 -0.0322
16099TIP3    H169788   0.736   3.532   4.927 -0.0743  0.7813  0.4463
16099TIP3    H269789   0.697   3.399   4.987  0.0310 -0.0683 -1.3231
16100TIP3   OH269790   1.584   0.501   5.016  0.3951  0.1207  0.3400
16100TIP3    H169791   1.647   0.429   5.020 -0.2915 -0.5859 -0.8464
16100TIP3    H269792   1.500   0.458   4.998  0.3179  1.3307 -2.7616
16101TIP3   OH269793   2.036   2.654  15.578 -0.0838 -0.0043 -0.7200
16101TIP3    H169794   2.027   2.696  15.663  0.5056 -1.3514  0.0453
16101TIP3    H269795   2.086   2.574  15.596  1.4342  0.4554 -2.5773
16102TIP3   OH269796   1.380   3.531   0.333  0.5478 -0.0220 -0.1377
16102TIP3    H169797   1.424   3.509   0.251  1.2747  0.2502  0.1737
16102TIP3    H269798   1.438   3.594   0.376 -1.1202  1.9881 -0.6665
16103TIP3   OH269799   1.189   2.368  13.030  0.3568  0.0535 -0.5280
16103TIP3    H169800   1.275   2.390  12.993  0.1202  0.5250 -0.8141
16103TIP3    H269801   1.127   2.416  12.975 -0.0014  0.7782  0.4842
16104TIP3   OH269802   4.248   4.045   3.555  0.5073 -0.3177  0.2746
16104TIP3    H169803   4.244   4.077   3.645  0.4976 -0.2993  0.2676
16104TIP3    H269804   4.335   4.070   3.524 -0.6686  2.8491 -0.9058
16105TIP3   OH269805   5.261   5.312   1.471  0.7285 -0.7070 -0.0439
16105TIP3    H169806   5.342   5.324   1.422  1.3126 -1.7627  0.6203
16105TIP3    H269807   5.195   5.293   1.405  0.8268  0.9610 -0.6617
16106TIP3   OH269808   0.174   4.400   2.915  0.4410 -0.1032  0.7235
16106TIP3    H169809   0.263   4.430   2.931  0.0703  2.0362 -0.8237
16106TIP3    H269810   0.185   4.316   2.871  1.6576 -0.1872  1.1499
16107TIP3   OH269811   0.841   6.779   5.655  0.3471  0.3412  0.2488
16107TIP3    H169812   0.760   6.804   5.611 -0.5863  1.1218  2.2810
16107TIP3    H269813   0.911   6.816   5.600 -0.7831  1.6909 -0.3345
16108TIP3   OH269814   6.622   1.023  13.987  0.4349 -0.4090  0.4761
16108TIP3    H169815   6.601   1.011  13.895  2.4074 -0.0010 -0.0774
16108TIP3    H269816   6.597   1.114  14.006  2.8217  0.5553 -0.5722
16109TIP3   OH269817   1.316   4.024  16.771 -0.1381 -0.1195  0.0046
16109TIP3    H169818   1.367   3.970  16.710  0.1929 -0.1472  0.3043
16109TIP3    H269819   1.372   4.032  16.849  0.0057  1.0315 -0.2020
16110TIP3   OH269820   0.129   4.169   4.101 -0.6996 -0.3390 -0.1829
16110TIP3    H169821   0.102   4.092   4.152 -0.6102 -0.5503 -0.4476
16110TIP3    H269822   0.130   4.138   4.010 -0.8485  0.0283 -0.3126
16111TIP3   OH269823   0.054   3.843   1.999  0.2291 -0.1223  0.3135
16111TIP3    H169824   0.034   3.791   1.921  0.5160 -0.0563  0.1946
16111TIP3    H269825   0.149   3.857   1.995  0.4524 -1.1625  1.3292
16112TIP3   OH269826   2.097   5.893   3.709 -0.0718 -0.2896  0.0870
16112TIP3    H169827   2.085   5.800   3.729  3.4141 -0.7933  0.5333
16112TIP3    H269828   2.092   5.898   3.613  3.8354 -1.8665 -0.3706
16113TIP3   OH269829   0.948   3.880   2.516 -0.2409 -0.4341  0.2364
16113TIP3    H169830   0.885   3.807   2.513 -0.5478 -0.1429 -0.6159
16113TIP3    H269831   1.005   3.866   2.440 -0.6870  0.5510 -0.2964
16114TIP3   OH269832   3.604   3.323   5.489  0.1160 -0.2185  0.2105
16114TIP3    H169833   3.513   3.318   5.519 -0.6305  0.6519 -1.7567
16114TIP3    H269834   3.642   3.394   5.541 -0.1158 -0.9803  1.4704
16115TIP3   OH269835   3.781   0.916  15.726 -0.2719  0.0448 -0.2389
16115TIP3    H169836   3.830   0.948  15.650  0.6553 -0.5510  0.0944
16115TIP3    H269837   3.845   0.865  15.775 -0.9379  0.2013  0.8046
16116TIP3   OH269838   6.426   6.451  16.327  0.1894  0.3612 -0.0416
16116TIP3    H169839   6.442   6.486  16.415 -0.6894 -1.2259  0.7848
16116TIP3    H269840   6.332   6.438  16.323  0.4969 -2.6505  0.0555
16117TIP3   OH269841   3.423   3.063   0.165  0.1520  0.7820 -0.1132
16117TIP3    H169842   3.368   2.999   0.209 -0.8975 -0.0184 -2.4361
16117TIP3    H269843   3.504   3.016   0.144  0.2116  0.8504 -0.0427
16118TIP3   OH269844   1.099   0.518   5.023 -0.0409 -0.1040  0.4548
16118TIP3    H169845   1.058   0.536   5.107 -0.6728  0.8407 -0.0293
16118TIP3    H269846   1.050   0.443   4.988  0.7345 -0.9991  1.2516
16119TIP3   OH269847   5.295   0.142  13.922  0.3893 -0.2272  1.0937
16119TIP3    H169848   5.324   0.051  13.911  0.0824 -0.1412 -0.7436
16119TIP3    H269849   5.350   0.192  13.861 -0.1338  0.6865  1.3479
16120TIP3   OH269850   1.606   0.761   3.163  0.9633 -0.4370 -0.3927
16120TIP3    H169851   1.530   0.740   3.217  1.8488  1.6086  1.8212
16120TIP3    H269852   1.587   0.721   3.078 -2.5265 -0.1233  0.0865
16121TIP3   OH269853   0.433   5.772  11.832 -0.5289 -0.2476 -0.1247
16121TIP3    H169854   0.480   5.697  11.867  0.1153 -0.6895 -1.8524
16121TIP3    H269855   0.472   5.847  11.876  1.2291 -0.6743 -0.8649
16122TIP3   OH269856   2.096   3.869   1.977  0.1121  0.3490 -0.1202
16122TIP3    H169857   2.131   3.860   1.888  0.2270 -0.6323  0.0142
16122TIP3    H269858   2.065   3.959   1.981 -2.3625 -0.3133 -2.0424
16123TIP3   OH269859   4.415   2.232   4.081 -0.4851  0.1978 -0.0640
16123TIP3    H169860   4.393   2.157   4.136  0.7372 -1.0478 -1.1864
16123TIP3    H269861   4.337   2.287   4.083 -1.2112 -0.8182  1.2372
16124TIP3   OH269862   0.645   5.999   0.054 -0.0160  0.1614 -0.3738
16124TIP3    H169863   0.676   6.030  -0.031 -0.9825  0.1616 -0.7351
16124TIP3    H269864   0.595   5.921   0.034 -0.7122  0.4712  0.1349
16125TIP3   OH269865   1.481   3.522  13.933 -0.1533 -0.2343 -0.1442
16125TIP3    H169866   1.563   3.569  13.949  0.0872 -0.7747  0.2121
16125TIP3    H269867   1.432   3.529  14.015 -0.2639 -0.3267 -0.2021
16126TIP3   OH269868   1.296   5.136   2.858 -0.1611 -0.3648  0.3334
16126TIP3    H169869   1.371   5.109   2.912  0.6567  0.2063 -0.4830
16126TIP3    H269870   1.220   5.126   2.915  0.7656  1.0268  1.9085
16127TIP3   OH269871   6.265   3.225   3.834  0.0893 -0.3443 -0.1088
16127TIP3    H169872   6.328   3.296   3.834 -0.7010  0.3730 -0.5445
16127TIP3    H269873   6.306   3.156   3.782  0.8010 -0.1703  0.2096
16128TIP3   OH269874   1.234   0.316   0.220  0.2339 -0.4136  0.1523
16128TIP3    H169875   1.265   0.300   0.131  1.9786  0.1682  0.6319
16128TIP3    H269876   1.194   0.233   0.246 -1.2104 -0.3056 -1.4863
16129TIP3   OH269877   6.131   0.233  15.382 -0.5093 -0.1559 -0.1025
16129TIP3    H169878   6.169   0.194  15.461 -2.7704 -0.4036  0.9292
16129TIP3    H269879   6.188   0.204  15.311  1.1092 -0.6180  1.3233
16130TIP3   OH269880   0.276   3.436   1.869  0.2384 -0.1224 -0.4065
16130TIP3    H169881   0.265   3.349   1.907  0.0370  0.8883  2.0746
16130TIP3    H269882   0.203   3.446   1.809 -0.5291 -1.1514  0.3197
16131TIP3   OH269883   2.500   1.559  16.104  0.4172  0.9748  0.4848
16131TIP3    H169884   2.583   1.605  16.119  1.1483 -0.5038  1.1194
16131TIP3    H269885   2.505   1.481  16.158  0.0966 -0.9378 -2.0744
16132TIP3   OH269886   2.291   5.352  13.017  0.3235 -0.4907  0.0667
16132TIP3    H169887   2.282   5.271  13.068 -0.4437 -1.1975 -1.1350
16132TIP3    H269888   2.220   5.408  13.049 -0.4937 -1.1379 -0.5699
16133TIP3   OH269889   3.868   2.946  14.067 -0.4078 -0.1542 -0.6910
16133TIP3    H169890   3.962   2.963  14.065 -0.5434  0.8143  0.2486
16133TIP3    H269891   3.857   2.866  14.015  1.1417 -1.2610  0.5708
16134TIP3   OH269892   0.414   0.803  10.789 -0.5997  0.5545  0.1537
16134TIP3    H169893   0.470   0.784  10.713  1.4599  1.3902  1.3850
16134TIP3    H269894   0.452   0.752  10.860 -1.5106  1.0190  0.9898
16135TIP3   OH269895   5.224   0.423  16.617  0.0789  0.1549  0.1661
16135TIP3    H169896   5.137   0.464  16.623 -0.1175 -0.3689  1.1961
16135TIP3    H269897   5.222   0.375  16.535 -0.6287  0.1273  0.1865
16136TIP3   OH269898   5.875   0.609   5.974  0.1497 -0.1202 -0.3227
16136TIP3    H169899   5.821   0.533   5.954 -0.4381  0.4699 -1.0361
16136TIP3    H269900   5.831   0.651   6.048  0.7161 -0.6933  0.3627
16137TIP3   OH269901   2.782   0.353  15.645  0.1581  0.1268  0.2340
16137TIP3    H169902   2.795   0.333  15.552 -0.7914 -0.0362  0.1183
16137TIP3    H269903   2.869   0.348  15.683  0.4768 -0.4433 -0.5319
16138TIP3   OH269904   3.333   3.166  10.334 -0.5422 -0.5131  0.2921
16138TIP3    H169905   3.374   3.124  10.410 -1.9522 -2.1147  0.2170
16138TIP3    H269906   3.246   3.191  10.364 -1.3031 -1.6248 -0.9328
16139TIP3   OH269907   4.536   4.517   0.619  0.5537  0.1182  0.2473
16139TIP3    H169908   4.537   4.426   0.590 -1.8684  0.2693 -0.5439
16139TIP3    H269909   4.625   4.548   0.604  0.9157 -1.5542 -1.3850
16140TIP3   OH269910   2.417   6.537   3.317  0.7392  0.6309 -0.1131
16140TIP3    H169911   2.465   6.474   3.371 -0.0803  0.0272 -0.0724
16140TIP3    H269912   2.355   6.483   3.268  0.0943  1.4044 -0.1486
16141TIP3   OH269913   2.927   2.428   1.409  0.0982 -0.1158  0.2013
16141TIP3    H169914   2.857   2.366   1.428 -0.5601  0.6255  0.1994
16141TIP3    H269915   2.885   2.500   1.363  0.8457  0.3738  0.2615
16142TIP3   OH269916   3.044   2.690   1.014  0.4495 -0.3013  0.2881
16142TIP3    H169917   3.001   2.774   0.999  0.4828 -0.4568 -0.8273
16142TIP3    H269918   3.072   2.693   1.105  1.1671  1.2336  0.0603
16143TIP3   OH269919   0.015   5.678  13.266 -0.1743 -0.3911 -0.3600
16143TIP3    H169920   0.001   5.723  13.183  0.1220  0.2893 -0.0481
16143TIP3    H269921  -0.073   5.649  13.292 -0.4052  0.1938 -0.4655
16144TIP3   OH269922   3.341   4.779  13.135  0.0499  0.4994 -0.0967
16144TIP3    H169923   3.264   4.822  13.098  0.3205  1.2237  0.1663
16144TIP3    H269924   3.395   4.755  13.059 -0.1221  0.5785 -0.2435
16145TIP3   OH269925   6.273   6.118   5.136  0.7242 -0.0907  0.1073
16145TIP3    H169926   6.283   6.193   5.078 -0.6946 -0.1025 -0.1800
16145TIP3    H269927   6.194   6.137   5.187 -1.3339 -2.5452 -1.8725
16146TIP3   OH269928   1.370   4.218   3.839 -0.5696  0.3447 -0.5763
16146TIP3    H169929   1.449   4.269   3.822  0.7407 -0.7760  1.6875
16146TIP3    H269930   1.398   4.127   3.837 -1.9714 -0.1218 -0.4219
16147TIP3   OH269931   5.275   0.455  11.775 -0.1768  0.0440 -0.9803
16147TIP3    H169932   5.370   0.449  11.768 -0.0988 -0.2840  0.2354
16147TIP3    H269933   5.260   0.502  11.857 -1.0712 -0.5075 -0.8253
16148TIP3   OH269934   0.403   0.942  14.461  0.0031 -0.0198  0.1146
16148TIP3    H169935   0.391   0.850  14.437  1.3071 -0.1140 -0.2418
16148TIP3    H269936   0.432   0.984  14.380 -2.6139  1.1776 -0.3001
16149TIP3   OH269937   4.912   3.119   0.735 -0.0440  0.7902 -0.2635
16149TIP3    H169938   4.931   3.056   0.804  1.4101 -0.2724 -1.5847
16149TIP3    H269939   4.886   3.199   0.782  0.2245 -0.1021  1.4741
16150TIP3   OH269940   3.130   3.013   3.735  0.5064 -0.3196  0.0363
16150TIP3    H169941   3.145   3.030   3.828  0.2424  1.9183 -0.2569
16150TIP3    H269942   3.213   2.978   3.704  0.0367 -2.8612  1.4174
16151TIP3   OH269943   0.627   1.443   1.939 -0.3686 -0.1498  0.4932
16151TIP3    H169944   0.627   1.533   1.908  1.9256 -0.4133 -0.5417
16151TIP3    H269945   0.671   1.446   2.024  1.4895 -0.4593 -0.4060
16152TIP3   OH269946   2.350   0.509   3.926 -0.5123  0.0338  0.5212
16152TIP3    H169947   2.421   0.445   3.932  0.1996  0.7153 -0.3701
16152TIP3    H269948   2.387   0.582   3.876 -1.1008  1.4258  2.0027
16153TIP3   OH269949   5.015   5.341   5.758  0.1898  0.2952 -0.2839
16153TIP3    H169950   5.054   5.260   5.791 -2.6629 -0.6552  1.1356
16153TIP3    H269951   5.021   5.403   5.831 -0.1778  0.3927 -0.3315
16154TIP3   OH269952   4.372   4.727  10.424  0.1783 -0.5236 -0.2540
16154TIP3    H169953   4.438   4.724  10.354 -1.2907 -0.5659 -1.6902
16154TIP3    H269954   4.343   4.818  10.426 -1.2322 -0.9229 -1.1400
16155TIP3   OH269955   2.424   2.146  16.269  0.5889 -0.0178 -0.0094
16155TIP3    H169956   2.456   2.234  16.249  1.0404 -0.5094 -1.6011
16155TIP3    H269957   2.428   2.100  16.186 -2.0761 -0.8253  0.2299
16156TIP3   OH269958   6.722   5.390   4.303 -0.4932 -0.0856  0.4017
16156TIP3    H169959   6.688   5.471   4.343  0.3242 -0.5122  2.0583
16156TIP3    H269960   6.768   5.346   4.374 -0.5119 -1.8016 -0.5932
16157TIP3   OH269961   5.897   5.155  13.683  0.4491 -0.0829 -0.8522
16157TIP3    H169962   5.910   5.063  13.662 -1.3683  0.0600 -3.0119
16157TIP3    H269963   5.837   5.187  13.616 -3.2123  1.4244  2.7219
16158TIP3   OH269964   0.041   5.373   2.507  0.0949 -0.4223  0.4030
16158TIP3    H169965   0.076   5.417   2.430  1.6877 -0.6882  0.9389
16158TIP3    H269966  -0.031   5.429   2.536 -0.9552 -0.6413 -1.6082
16159TIP3   OH269967   3.694   5.082  15.318 -0.2172  0.5838 -0.0656
16159TIP3    H169968   3.711   5.167  15.277  0.1836 -0.3837 -2.0316
16159TIP3    H269969   3.740   5.086  15.402  2.1188  1.3696 -1.2910
16160TIP3   OH269970   2.317   0.212   4.984 -0.2877 -0.0778  0.1412
16160TIP3    H169971   2.319   0.290   5.038 -0.3015  0.6625 -0.9009
16160TIP3    H269972   2.319   0.244   4.894 -0.2744 -1.2730 -0.3133
16161TIP3   OH269973   4.053   5.534   6.452 -0.4151  0.5703 -0.4790
16161TIP3    H169974   4.119   5.537   6.382  0.2593  0.4772  0.1389
16161TIP3    H269975   4.095   5.579   6.526 -1.0881  0.5956 -0.1062
16162TIP3   OH269976   1.378   6.700   5.410 -0.4541  0.2497 -0.0235
16162TIP3    H169977   1.369   6.768   5.477 -0.6003  1.9948 -1.6998
16162TIP3    H269978   1.373   6.618   5.458 -2.2425  1.3726  1.8961
16163TIP3   OH269979   4.697   5.692   1.750  0.0613  0.3113  0.0847
16163TIP3    H169980   4.616   5.646   1.774  0.3204 -0.2054 -0.0306
16163TIP3    H269981   4.767   5.636   1.783  0.4186 -0.2570 -1.5413
16164TIP3   OH269982   5.167   1.723   3.851  0.1116  0.2583  0.5163
16164TIP3    H169983   5.125   1.805   3.878  1.0434  0.8672  0.1661
16164TIP3    H269984   5.198   1.684   3.933 -1.8479 -0.6246  0.8764
16165TIP3   OH269985   2.076   5.401   3.949  0.1439  0.2034  0.6985
16165TIP3    H169986   1.994   5.449   3.964  1.6301  2.1100  3.6799
16165TIP3    H269987   2.098   5.363   4.034  2.0035 -0.8931 -0.2062
16166TIP3   OH269988   1.142   0.254  13.611  0.5605 -0.4776  0.1811
16166TIP3    H169989   1.182   0.194  13.548 -0.1685 -1.2866  0.4768
16166TIP3    H269990   1.160   0.215  13.696  0.5999  0.0455  0.4182
16167TIP3   OH269991   6.188   2.474  16.109  0.7088 -0.0751 -0.0469
16167TIP3    H169992   6.138   2.523  16.174  0.9060  0.7589 -0.5141
16167TIP3    H269993   6.156   2.384  16.117 -0.1123  0.2471  0.3841
16168TIP3   OH269994   0.539   5.332   1.506 -0.0042  0.2585 -0.3443
16168TIP3    H169995   0.447   5.337   1.534 -0.7360  0.8060 -2.6240
16168TIP3    H269996   0.548   5.244   1.470  1.0277 -0.5667  1.7207
16169TIP3   OH269997   2.772   2.853  16.158 -0.8146  0.1862 -0.3690
16169TIP3    H169998   2.713   2.853  16.232  0.0146 -0.6172  0.3256
16169TIP3    H269999   2.859   2.840  16.196 -0.4070 -0.6080 -1.4856
16170TIP3   OH270000   1.446   0.221  13.946 -0.1633 -0.0145  0.1323
16170TIP3    H170001   1.497   0.141  13.933  0.2228  0.3782 -0.8800
16170TIP3    H270002   1.508   0.292  13.928 -0.6099  0.5109  0.6107
16171TIP3   OH270003   6.765   4.007  16.920 -0.2314 -0.3762 -0.1604
16171TIP3    H170004   6.852   3.967  16.926  0.8595  1.7916 -0.1535
16171TIP3    H270005   6.752   4.022  16.826  0.4492  1.2907 -0.0288
16172TIP3   OH270006   1.670   1.479   3.914 -0.2351 -0.4805 -0.1625
16172TIP3    H170007   1.594   1.457   3.967 -0.2103 -2.2801 -0.7864
16172TIP3    H270008   1.634   1.516   3.834 -0.6251 -2.7898 -1.1424
16173TIP3   OH270009   4.850   2.422   3.124  0.3743 -0.2923  0.0850
16173TIP3    H170010   4.863   2.468   3.041 -0.2413 -0.2090  0.0290
16173TIP3    H270011   4.881   2.484   3.191 -0.8779  0.4183  0.0454
16174TIP3   OH270012   6.217   1.268   0.529  0.7328 -0.3914 -0.2587
16174TIP3    H170013   6.283   1.285   0.461 -0.0041  0.1228 -0.8617
16174TIP3    H270014   6.219   1.346   0.585 -0.0626  0.0977 -0.8792
16175TIP3   OH270015   6.093   3.725  15.194 -0.1892 -0.3032  0.0641
16175TIP3    H170016   6.125   3.763  15.276 -1.4465 -1.4742  1.1531
16175TIP3    H270017   5.998   3.729  15.202 -0.3571 -2.3058 -0.3988
16176TIP3   OH270018   2.272   6.083   0.442  0.5775  0.2688 -0.1913
16176TIP3    H170019   2.344   6.144   0.434 -0.2902  1.5562  1.2279
16176TIP3    H270020   2.205   6.131   0.491 -1.3515 -0.7708 -1.6511
16177TIP3   OH270021   0.603   1.810  11.794  0.2224  0.2440 -0.1525
16177TIP3    H170022   0.628   1.852  11.712 -0.0516  0.9785  0.1404
16177TIP3    H270023   0.515   1.776  11.778  0.1396  0.4521 -0.1386
16178TIP3   OH270024   5.314   2.625  13.129 -0.1170  0.5442  0.1404
16178TIP3    H170025   5.249   2.623  13.059 -0.8898 -0.5413  0.8587
16178TIP3    H270026   5.309   2.714  13.163 -1.6753  0.3230  0.5666
16179TIP3   OH270027   6.325   2.178   4.379 -0.2365 -0.4268  0.1746
16179TIP3    H170028   6.297   2.155   4.291  0.5259  0.8670 -0.4418
16179TIP3    H270029   6.249   2.220   4.419 -0.1097  0.4049 -0.4357
16180TIP3   OH270030   4.213   2.991  16.442 -0.6334  0.1028 -0.2193
16180TIP3    H170031   4.172   3.070  16.406 -1.1609  0.5594  1.2646
16180TIP3    H270032   4.274   2.962  16.375  0.2595  2.3084 -0.4566
16181TIP3   OH270033   6.539   3.747   5.937  0.1867 -0.1485  0.0699
16181TIP3    H170034   6.454   3.709   5.959 -0.4367  0.7762 -0.6645
16181TIP3    H270035   6.553   3.814   6.004  0.8205 -0.9643  0.7776
16182TIP3   OH270036   4.470   2.523  16.973  0.6354  0.2154  0.6506
16182TIP3    H170037   4.466   2.433  16.943  1.7771  0.3242  0.1054
16182TIP3    H270038   4.426   2.574  16.905  1.3310  0.2260  0.1997
16183TIP3   OH270039   2.640   1.862   2.998  0.1932 -0.0521 -0.3392
16183TIP3    H170040   2.647   1.955   3.019 -1.0811  0.8278 -3.3408
16183TIP3    H270041   2.577   1.828   3.061 -0.6394  1.5213 -0.2753
16184TIP3   OH270042   5.172   3.237   3.237 -0.4963  0.0967 -1.0613
16184TIP3    H170043   5.098   3.297   3.227  0.0208  0.6876 -1.3198
16184TIP3    H270044   5.158   3.171   3.169 -1.0937 -0.1190 -0.7421
16185TIP3   OH270045   6.401   0.312   3.922 -0.2858 -0.2135  0.3413
16185TIP3    H170046   6.466   0.346   3.859 -0.5722  0.6129  0.4728
16185TIP3    H270047   6.454   0.274   3.992  0.1135 -3.9315 -1.6985
16186TIP3   OH270048   2.901   1.963  11.110 -0.0368  0.0067 -0.4334
16186TIP3    H170049   2.815   1.921  11.107  0.5906 -1.5733  1.5439
16186TIP3    H270050   2.933   1.959  11.019 -1.8737  0.3483 -1.1431
16187TIP3   OH270051   4.889   4.919   3.923 -0.1247 -0.5464  0.2674
16187TIP3    H170052   4.917   4.874   4.003 -0.3482  0.2890  0.8434
16187TIP3    H270053   4.964   4.974   3.899 -1.0001  1.3631  1.5664
16188TIP3   OH270054   5.827   5.683   3.412  0.8139 -0.8573 -0.2687
16188TIP3    H170055   5.893   5.635   3.462  0.3976 -0.3594  0.7908
16188TIP3    H270056   5.787   5.742   3.476 -1.3831 -1.8729 -0.6446
16189TIP3   OH270057   1.543   5.899   3.230 -0.0283  0.8547  0.1082
16189TIP3    H170058   1.634   5.894   3.201  0.0006  0.3662  0.2682
16189TIP3    H270059   1.528   5.817   3.277 -1.7695 -1.1693 -3.5057
16190TIP3   OH270060   2.391   1.482  13.045  0.0039 -0.4980 -0.2482
16190TIP3    H170061   2.415   1.396  13.081  0.8509  0.1041  0.6799
16190TIP3    H270062   2.462   1.502  12.983 -0.4004 -0.6276 -0.7645
16191TIP3   OH270063   1.488   6.530   4.912 -0.3181 -0.0058 -0.6367
16191TIP3    H170064   1.500   6.543   5.006 -0.3563  0.3647 -0.6832
16191TIP3    H270065   1.577   6.516   4.878 -0.1063  1.5407 -0.7962
16192TIP3   OH270066   4.152   0.273   4.263  0.3610  0.0217  0.0392
16192TIP3    H170067   4.078   0.316   4.219  0.3533 -0.1557 -0.1220
16192TIP3    H270068   4.222   0.338   4.261 -0.1401  0.6429  1.2324
16193TIP3   OH270069   0.764   6.307   0.193 -0.0412 -0.2325 -0.6456
16193TIP3    H170070   0.716   6.299   0.110 -1.2026  0.2935 -0.0499
16193TIP3    H270071   0.835   6.244   0.185  2.4506  2.5629 -3.7137
16194TIP3   OH270072   6.405   2.508   3.636  0.4310  0.8189 -0.4103
16194TIP3    H170073   6.497   2.500   3.663  0.0928 -1.0272  0.3251
16194TIP3    H270074   6.409   2.536   3.545  1.6995  1.8244 -0.0723
16195TIP3   OH270075   6.185   2.362   1.345 -0.1438  0.0103  0.0070
16195TIP3    H170076   6.106   2.416   1.350 -0.4177 -0.2573 -1.0623
16195TIP3    H270077   6.219   2.377   1.256  0.1421 -1.0620 -0.0823
16196TIP3   OH270078   3.765   5.654   4.440  0.1032 -0.3528  0.1839
16196TIP3    H170079   3.803   5.645   4.352 -0.4176  2.3956 -0.4014
16196TIP3    H270080   3.670   5.649   4.425 -0.1686  2.9995  0.0307
16197TIP3   OH270081   2.110   0.473   4.050  0.5407 -0.5397  0.4938
16197TIP3    H170082   2.114   0.466   4.146  1.9845  1.5017  0.6676
16197TIP3    H270083   2.202   0.470   4.023  0.2133  0.0012 -0.7086
16198TIP3   OH270084   0.410   0.305   4.757  0.0759 -0.2680  0.3585
16198TIP3    H170085   0.345   0.333   4.822  1.3984  1.2218  1.1239
16198TIP3    H270086   0.421   0.211   4.773 -1.3107 -0.3876  0.7228
16199TIP3   OH270087   5.525   3.645  13.758  0.9249 -0.1431  0.2575
16199TIP3    H170088   5.567   3.731  13.768 -1.1576  0.7553  2.1299
16199TIP3    H270089   5.563   3.592  13.828  0.0952  0.1971  0.9803
16200TIP3   OH270090   2.413   2.107  10.252  0.0633  0.8860  0.2718
16200TIP3    H170091   2.346   2.136  10.313 -2.5047 -1.5341 -1.1782
16200TIP3    H270092   2.420   2.013  10.267  0.2227  0.4180 -2.2559
16201TIP3   OH270093   5.198   1.206  13.372 -0.7672 -0.1139  0.7416
16201TIP3    H170094   5.124   1.146  13.381 -0.7731 -0.2992 -0.4333
16201TIP3    H270095   5.159   1.287  13.340 -0.4026 -0.4371 -0.5996
16202TIP3   OH270096   5.965   6.169   4.384 -0.3095 -0.2362 -0.2564
16202TIP3    H170097   5.984   6.201   4.472 -1.0128 -0.0066 -0.1804
16202TIP3    H270098   5.874   6.193   4.369  0.0744  0.6117 -1.4238
16203TIP3   OH270099   2.061   5.163  10.376  0.0697  0.5882 -0.3519
16203TIP3    H170100   1.995   5.126  10.316  0.1558 -0.5314  0.2282
16203TIP3    H270101   2.121   5.090  10.393  0.7392  1.2492  0.1320
16204TIP3   OH270102   4.588   0.174  17.031  0.6276 -0.0647 -0.2041
16204TIP3    H170103   4.645   0.125  17.090  2.1272  2.3437  0.4975
16204TIP3    H270104   4.561   0.110  16.965  2.8598 -1.7007  0.3396
16205TIP3   OH270105   0.265   0.974   3.377  1.0558 -0.3153 -0.0171
16205TIP3    H170106   0.204   1.016   3.316  0.3419 -1.9773 -0.5194
16205TIP3    H270107   0.347   0.966   3.328  0.2657 -2.3437 -1.1228
16206TIP3   OH270108   4.154   2.806  11.561  0.3926  0.0658 -0.4346
16206TIP3    H170109   4.118   2.723  11.529 -3.2085  1.6339 -1.0011
16206TIP3    H270110   4.210   2.837  11.489  1.0188 -1.3819 -0.6031
16207TIP3   OH270111   2.789   2.377  12.002 -0.4201  0.3104  0.2378
16207TIP3    H170112   2.780   2.337  11.916 -0.1810  0.5012  0.1198
16207TIP3    H270113   2.850   2.319  12.048 -0.2622  0.4050  0.1509
16208TIP3   OH270114   6.060   5.405  13.638  0.0585  0.0420 -0.3668
16208TIP3    H170115   6.062   5.413  13.542  1.4941  0.8395 -0.2914
16208TIP3    H270116   5.998   5.334  13.654  1.0698 -1.2896 -1.9838
16209TIP3   OH270117   6.519   2.090   0.013 -0.0077  0.4659  0.3240
16209TIP3    H170118   6.596   2.076   0.069  0.1528 -0.5946 -0.1373
16209TIP3    H270119   6.447   2.051   0.061 -0.4172  2.0813  1.0809
16210TIP3   OH270120   0.942   6.559   3.897  0.4470  0.3128 -0.1336
16210TIP3    H170121   1.027   6.583   3.935  0.3610  0.2977  0.0720
16210TIP3    H270122   0.961   6.482   3.844  0.4929  0.0710  0.2293
16211TIP3   OH270123   3.622   1.155   3.667  1.0108  0.2793 -0.3796
16211TIP3    H170124   3.602   1.063   3.680 -2.3438  0.9366 -0.1721
16211TIP3    H270125   3.629   1.191   3.756  1.9249  0.3433 -0.4624
16212TIP3   OH270126   3.051   5.546  10.918 -0.3382  0.2840  0.3329
16212TIP3    H170127   3.021   5.636  10.935 -0.6683  0.0955  0.7567
16212TIP3    H270128   3.135   5.558  10.873 -0.7425  0.8080 -0.3048
16213TIP3   OH270129   5.651   2.417   0.093  0.1768  0.3075 -0.0916
16213TIP3    H170130   5.569   2.451   0.128 -0.9700 -2.9119  0.7855
16213TIP3    H270131   5.715   2.430   0.164 -0.6950 -0.8806  0.9747
16214TIP3   OH270132   6.093   3.016  14.801 -0.3089  0.3318  0.2616
16214TIP3    H170133   6.131   3.088  14.852 -0.1084  1.6729 -1.6676
16214TIP3    H270134   6.145   2.940  14.825  2.7300  1.7788 -1.0693
16215TIP3   OH270135   2.341   6.120   2.847 -0.1084 -0.3383  0.0800
16215TIP3    H170136   2.342   6.194   2.909 -0.3966  0.7928 -1.2025
16215TIP3    H270137   2.305   6.158   2.766  1.6060 -1.3826 -1.2398
16216TIP3   OH270138   1.481   4.884  13.072  0.6426 -0.0530 -0.1856
16216TIP3    H170139   1.492   4.809  13.129 -0.1185  0.0005  0.0404
16216TIP3    H270140   1.389   4.882  13.046  0.1382  1.7831  1.2389
16217TIP3   OH270141   2.404   4.391  12.762  0.5179 -0.0733 -0.6316
16217TIP3    H170142   2.492   4.430  12.759 -0.2905  2.0008  0.6250
16217TIP3    H270143   2.354   4.443  12.699 -0.5378  0.8769  0.9267
16218TIP3   OH270144   1.096   0.864  14.380 -0.0501  0.1035  0.3502
16218TIP3    H170145   1.041   0.806  14.327 -1.0562 -0.2924  1.7796
16218TIP3    H270146   1.064   0.952  14.361  1.2650  0.2384 -1.5768
16219TIP3   OH270147   1.859   1.246   6.443 -0.0609  0.1380  0.7056
16219TIP3    H170148   1.785   1.286   6.399 -0.7141 -0.4875  1.2100
16219TIP3    H270149   1.910   1.320   6.475 -0.0865  0.5815 -0.2462
16220TIP3   OH270150   4.307   0.320  16.965 -0.0979 -0.4904  0.0659
16220TIP3    H170151   4.388   0.287  17.003 -1.5676 -2.1536  1.9268
16220TIP3    H270152   4.274   0.383  17.029  1.6365  3.4990 -2.5152
16221TIP3   OH270153   2.297   6.199  15.004 -0.3116 -0.2088  0.5081
16221TIP3    H170154   2.384   6.237  14.993 -0.9683  1.1925 -0.2570
16221TIP3    H270155   2.300   6.117  14.955  0.9700 -0.8631  1.6491
16222TIP3   OH270156   2.688   0.516   3.335  0.3460  0.6910  0.7287
16222TIP3    H170157   2.601   0.485   3.314  0.7482  0.4505 -0.6463
16222TIP3    H270158   2.718   0.458   3.405  0.7907 -1.6150 -1.2500
16223TIP3   OH270159   4.934   0.047   1.861  0.2220  0.2750 -0.0467
16223TIP3    H170160   5.025   0.051   1.832  0.5370 -1.7410  0.4766
16223TIP3    H270161   4.926   0.117   1.926  1.2355  0.8278 -0.4998
16224TIP3   OH270162   0.372   0.150  13.974  0.4972 -0.0412 -0.2240
16224TIP3    H170163   0.399   0.215  13.910 -1.1006  0.5197 -0.3847
16224TIP3    H270164   0.305   0.098  13.929 -0.3699  0.1167  0.8212
16225TIP3   OH270165   4.302   4.825  13.709 -0.3653 -0.7572 -0.3816
16225TIP3    H170166   4.221   4.803  13.662 -1.2811  1.7744 -0.1474
16225TIP3    H270167   4.368   4.834  13.640 -0.4028 -2.1283 -0.6363
16226TIP3   OH270168   0.971   1.248  14.569  0.1629 -0.3256  0.2968
16226TIP3    H170169   0.954   1.183  14.638  1.5395  1.2353  2.2271
16226TIP3    H270170   1.066   1.252  14.562  0.0907  0.8900 -0.3632
16227TIP3   OH270171   3.938   2.503   4.826  0.4562 -0.2528 -0.0514
16227TIP3    H170172   3.896   2.586   4.847 -0.0475 -0.5893  0.2972
16227TIP3    H270173   4.006   2.525   4.762 -0.3931  0.2719 -0.7992
16228TIP3   OH270174   0.365   1.863   5.797  0.5089  0.0298  0.2028
16228TIP3    H170175   0.293   1.826   5.847  1.0561 -1.3744 -0.0261
16228TIP3    H270176   0.444   1.831   5.841  0.9981  0.2932 -0.4648
16229TIP3   OH270177   6.253   2.097   1.307  0.9659  0.0278 -0.7087
16229TIP3    H170178   6.240   2.101   1.213 -1.6562 -1.3059 -0.5026
16229TIP3    H270179   6.208   2.175   1.341 -1.1286 -1.2170 -0.4209
16230TIP3   OH270180   3.037   4.945  17.097 -0.0626  0.4116  0.0025
16230TIP3    H170181   3.084   4.992  17.027  0.4862  0.3972  0.3529
16230TIP3    H270182   3.088   4.964  17.176  1.0083 -1.9289 -0.0674
16231TIP3   OH270183   4.252   1.674  12.249  0.1970 -0.1324  0.0018
16231TIP3    H170184   4.308   1.706  12.179 -1.0775 -0.0718 -1.0353
16231TIP3    H270185   4.169   1.721  12.236 -0.6437 -1.4555  0.4358
16232TIP3   OH270186   4.623   6.503  12.443  0.0954 -0.0793  0.1837
16232TIP3    H170187   4.566   6.568  12.483  1.0027  0.2311  1.0157
16232TIP3    H270188   4.580   6.481  12.360 -0.0637  1.8111 -0.2698
16233TIP3   OH270189   5.599   1.653   2.066  0.5810  0.5566 -0.3723
16233TIP3    H170190   5.531   1.632   2.002  1.6209  1.2036 -1.7464
16233TIP3    H270191   5.652   1.573   2.072 -0.1040  0.1536  0.4722
16234TIP3   OH270192   3.561   6.519  16.073  0.3538 -0.1616  0.0586
16234TIP3    H170193   3.566   6.600  16.125  0.8884  1.1330 -1.8800
16234TIP3    H270194   3.650   6.485  16.073  0.4941  0.1838 -0.4738
16235TIP3   OH270195   5.435   0.130  15.921  0.2832 -0.1850 -0.0732
16235TIP3    H170196   5.494   0.182  15.867  0.0524  0.0995 -0.0515
16235TIP3    H270197   5.373   0.193  15.958  0.4296 -0.3732  0.5182
16236TIP3   OH270198   3.854   5.256   1.927 -0.0661  0.6134 -0.0376
16236TIP3    H170199   3.831   5.310   1.852 -2.3445 -0.6483 -0.3663
16236TIP3    H270200   3.845   5.314   2.002 -0.4244  1.2149 -0.5366
16237TIP3   OH270201   2.212   0.416   2.899 -0.4189  0.2350 -0.0265
16237TIP3    H170202   2.221   0.418   2.804 -2.3018 -0.7363 -0.2621
16237TIP3    H270203   2.237   0.327   2.924 -2.0716 -0.2300  0.0899
16238TIP3   OH270204   6.508   5.263  11.137 -0.6062 -0.1487  0.6224
16238TIP3    H170205   6.536   5.199  11.202  1.2370 -0.9124 -0.8520
16238TIP3    H270206   6.426   5.227  11.102 -0.1424 -1.1889  0.5606
16239TIP3   OH270207   3.563   2.646   3.169 -0.0435  0.3108 -0.6332
16239TIP3    H170208   3.480   2.625   3.127 -0.4033  0.0579  0.1797
16239TIP3    H270209   3.539   2.685   3.253  0.6301 -0.8722  0.1544
16240TIP3   OH270210   5.355   0.061   3.841  0.0311  0.2220  0.1774
16240TIP3    H170211   5.421   0.017   3.788 -0.8251 -0.8446 -0.0359
16240TIP3    H270212   5.402   0.134   3.882  0.8375  0.7363 -1.5909
16241TIP3   OH270213   4.219   1.068   2.964  0.1846 -0.0018  0.9800
16241TIP3    H170214   4.186   1.101   3.048 -0.0465  1.4013  0.3795
16241TIP3    H270215   4.237   1.148   2.914  0.2811 -0.8170 -0.3114
16242TIP3   OH270216   5.886   1.521   3.769  0.1054 -0.1406 -0.3111
16242TIP3    H170217   5.917   1.611   3.770  0.1793 -0.1724  0.3110
16242TIP3    H270218   5.856   1.504   3.858  0.3803 -0.8339 -0.3409
16243TIP3   OH270219   6.330   4.616   1.606 -0.6970  0.3492 -0.2488
16243TIP3    H170220   6.353   4.688   1.665 -1.7928  0.2546  0.3230
16243TIP3    H270221   6.409   4.562   1.602  0.5343  2.1472 -1.5719
16244TIP3   OH270222   5.112   6.150  15.412  0.1263  0.6050 -0.5744
16244TIP3    H170223   5.025   6.189  15.419  0.4695  1.1059  1.6246
16244TIP3    H270224   5.122   6.099  15.492  0.3081 -2.8738 -2.6361
16245TIP3   OH270225   2.604   3.114  13.156  0.1545 -0.0286  0.5945
16245TIP3    H170226   2.678   3.112  13.095 -0.2307  2.0844 -0.0306
16245TIP3    H270227   2.540   3.053  13.118  1.5259 -1.9405  1.1835
16246TIP3   OH270228   3.051   5.410  14.003 -0.2184 -0.1458  0.3054
16246TIP3    H170229   2.984   5.427  14.070  0.8504  0.8244  1.1750
16246TIP3    H270230   3.090   5.326  14.028 -0.4041 -0.2044  0.4000
16247TIP3   OH270231   2.639   1.785   3.595 -0.8714 -0.3503 -0.2174
16247TIP3    H170232   2.690   1.750   3.668  0.8047 -1.8209 -1.9795
16247TIP3    H270233   2.612   1.707   3.546  0.8561  0.6396 -2.9428
16248TIP3   OH270234   4.153   5.535  11.747  0.8585 -0.1688 -0.0565
16248TIP3    H170235   4.188   5.524  11.835  1.2273  0.6979 -0.0867
16248TIP3    H270236   4.067   5.492  11.750 -0.6711  2.6697  1.7433
16249TIP3   OH270237   0.490   3.699  14.803  0.0327  0.3404  0.3436
16249TIP3    H170238   0.447   3.718  14.887  0.1360 -0.3028  0.5452
16249TIP3    H270239   0.475   3.606  14.789  0.8056  0.2411  0.1035
16250TIP3   OH270240   4.685   5.185  13.822  0.0139  0.3242  0.1048
16250TIP3    H170241   4.723   5.143  13.745 -0.2804  1.1021 -0.4851
16250TIP3    H270242   4.757   5.188  13.885 -0.1153 -1.5283  0.3838
16251TIP3   OH270243   3.329   2.584  12.165 -0.0972  0.0300 -0.7479
16251TIP3    H170244   3.346   2.657  12.106  1.6725  1.4125  1.3187
16251TIP3    H270245   3.416   2.548  12.185 -0.3470  0.7975  2.3432
16252TIP3   OH270246   5.282   6.819  10.741 -0.4832  0.2244 -0.4577
16252TIP3    H170247   5.269   6.783  10.829 -2.9455  1.7853 -0.0840
16252TIP3    H270248   5.301   6.743  10.686 -3.1983 -1.4030  0.6723
16253TIP3   OH270249   4.269   4.830   0.891  0.2606 -0.4700  0.2295
16253TIP3    H170250   4.274   4.917   0.851  1.9047 -0.3539  0.5888
16253TIP3    H270251   4.296   4.771   0.821  2.1918 -0.3591  0.8243
16254TIP3   OH270252   0.907   2.091  13.882 -0.3985 -0.0953 -0.0429
16254TIP3    H170253   0.987   2.090  13.934 -0.1845  0.3109 -0.3569
16254TIP3    H270254   0.900   2.181  13.851 -0.4908 -0.3408 -0.7527
16255TIP3   OH270255   5.183   0.552   5.424  0.1521  0.2843 -0.5102
16255TIP3    H170256   5.224   0.540   5.338  0.7483  1.6467 -0.4267
16255TIP3    H270257   5.162   0.463   5.453 -0.0480 -0.2011 -2.0532
16256TIP3   OH270258   6.361   0.938   4.630  0.1916 -0.0666  0.6984
16256TIP3    H170259   6.267   0.927   4.647  0.1444  0.6694  0.9637
16256TIP3    H270260   6.404   0.898   4.706  0.0435  0.9680  1.3471
16257TIP3   OH270261   6.106   6.073  16.654  0.1166 -0.2545 -0.5656
16257TIP3    H170262   6.195   6.047  16.630  0.2149  0.1742 -0.6582
16257TIP3    H270263   6.112   6.166  16.674 -0.2525 -0.2891 -0.2802
16258TIP3   OH270264   0.168   0.391  16.030 -0.4531 -0.6052 -0.4817
16258TIP3    H170265   0.083   0.435  16.022 -0.1075  0.6294  1.7747
16258TIP3    H270266   0.145   0.302  16.057 -1.1484  0.4933  3.1616
16259TIP3   OH270267   2.026   4.786  13.473 -0.1513 -0.6952  0.2834
16259TIP3    H170268   2.037   4.722  13.543 -0.4007  0.6360  1.5899
16259TIP3    H270269   2.086   4.756  13.404  0.3150 -1.8898  1.1685
16260TIP3   OH270270   1.832   4.336  15.881  0.3898 -0.4742  0.5169
16260TIP3    H170271   1.881   4.301  15.807 -1.4932 -0.4019 -0.8178
16260TIP3    H270272   1.898   4.380  15.934  1.5160  1.3595 -2.2081
16261TIP3   OH270273   1.699   1.513   3.445  0.1098  0.4911 -0.1301
16261TIP3    H170274   1.717   1.421   3.425  2.8362  0.8938  0.0862
16261TIP3    H270275   1.732   1.560   3.369  0.2607  1.3896  0.4812
16262TIP3   OH270276   0.267   4.718   1.609  0.1264  0.2704 -0.1035
16262TIP3    H170277   0.257   4.663   1.687 -0.9624  1.2964  0.5295
16262TIP3    H270278   0.193   4.695   1.553  1.6185 -1.4080 -1.5102
16263TIP3   OH270279   5.916   1.502  16.771 -0.7144 -0.3750  0.2659
16263TIP3    H170280   5.899   1.551  16.691  0.1147 -0.8354 -0.1994
16263TIP3    H270281   6.008   1.519  16.791 -1.3023  1.0281  2.0269
16264TIP3   OH270282   6.570   3.807  13.025 -0.0183 -0.2276  0.2770
16264TIP3    H170283   6.644   3.797  13.086 -0.1772  0.0265  0.5155
16264TIP3    H270284   6.610   3.822  12.940  0.2110  0.6659  0.5313
16265TIP3   OH270285   3.932   3.455   5.869 -0.0983 -0.7904  0.2455
16265TIP3    H170286   3.897   3.521   5.929 -0.7347 -0.1454 -0.8211
16265TIP3    H270287   3.957   3.382   5.927  0.5312  0.3196  1.4245
16266TIP3   OH270288   3.292   1.138   2.160 -0.2198 -0.3827 -0.4637
16266TIP3    H170289   3.329   1.072   2.218 -1.9649  1.2754  2.8492
16266TIP3    H270290   3.292   1.219   2.212 -0.1652  1.7854 -3.5195
16267TIP3   OH270291   1.189   6.101  13.466 -0.0129 -0.0501  0.8129
16267TIP3    H170292   1.222   6.047  13.394 -0.0970  0.4008  0.4292
16267TIP3    H270293   1.098   6.072  13.477 -0.7887  1.5242 -0.9061
16268TIP3   OH270294   2.172   0.873  13.252  0.2601 -0.7052  0.2500
16268TIP3    H170295   2.220   0.816  13.192  2.5746  2.1973 -0.9345
16268TIP3    H270296   2.094   0.899  13.204 -0.3156 -2.0707  0.4250
16269TIP3   OH270297   6.209   6.524  12.864  0.4576 -1.1030  0.1558
16269TIP3    H170298   6.124   6.506  12.905  0.1682 -1.5353 -0.6023
16269TIP3    H270299   6.259   6.570  12.931 -1.0235  0.8587  0.0239
16270TIP3   OH270300   1.505   5.230   5.076 -0.6318  0.2373 -0.6379
16270TIP3    H170301   1.426   5.184   5.047 -1.2511  1.1102 -0.3586
16270TIP3    H270302   1.574   5.196   5.019 -1.3705  0.1069 -1.4851
16271TIP3   OH270303   4.500   1.415   1.967  0.3832 -0.1858  0.1581
16271TIP3    H170304   4.431   1.400   2.031 -0.2846  0.4425 -0.3964
16271TIP3    H270305   4.581   1.388   2.012 -0.1833 -0.6930  0.8990
16272TIP3   OH270306   2.615   6.265   5.742  0.2804  0.7059 -0.1250
16272TIP3    H170307   2.565   6.184   5.743 -0.9723  1.3725 -2.0858
16272TIP3    H270308   2.602   6.302   5.829  0.2083 -0.8003  0.5281
16273TIP3   OH270309   2.109   3.905   3.791 -0.2391  0.1051 -0.1340
16273TIP3    H170310   2.102   3.821   3.836 -0.3016  1.0501  1.6751
16273TIP3    H270311   2.021   3.942   3.795  0.1143  0.9013  0.3730
16274TIP3   OH270312   4.673   1.518  12.752  0.0203  0.0779  0.2064
16274TIP3    H170313   4.735   1.588  12.730 -0.1435  0.1856  0.0827
16274TIP3    H270314   4.618   1.555  12.821  0.5281 -0.2586  0.8029
16275TIP3   OH270315   0.197   0.675  11.379  0.0005 -0.8064  0.0665
16275TIP3    H170316   0.289   0.679  11.405 -0.0851 -1.4186  0.4933
16275TIP3    H270317   0.150   0.722  11.448  0.0337 -0.0692 -0.4026
16276TIP3   OH270318   6.702   3.083  15.120  0.1477 -0.4987 -0.7311
16276TIP3    H170319   6.653   3.102  15.200 -0.4475 -0.7847 -1.0234
16276TIP3    H270320   6.746   3.166  15.099  0.2866 -0.4096 -0.1358
16277TIP3   OH270321   2.737   6.357  15.987  0.1021  0.3940  0.3771
16277TIP3    H170322   2.718   6.450  16.003  0.2847  0.1541  2.1792
16277TIP3    H270323   2.751   6.320  16.074  0.9392 -1.1470 -0.3718
16278TIP3   OH270324   5.404   2.349   6.497  0.1791 -0.2849 -0.7397
16278TIP3    H170325   5.374   2.339   6.406  0.2163 -0.8308 -0.6945
16278TIP3    H270326   5.469   2.420   6.492 -2.0757  1.9555 -0.6095
16279TIP3   OH270327   3.605   5.668   6.394 -0.4321 -0.1214  0.5391
16279TIP3    H170328   3.539   5.600   6.394  0.2846 -0.8319  0.3187
16279TIP3    H270329   3.600   5.706   6.306  2.2104 -2.9720 -1.0453
16280TIP3   OH270330   2.271   2.146  14.017  0.3699  0.0130 -0.3741
16280TIP3    H170331   2.198   2.150  14.079 -1.1130 -2.1599 -1.8523
16280TIP3    H270332   2.276   2.054  13.991  1.4033  0.6992 -2.9145
16281TIP3   OH270333   2.647   3.133   1.657 -0.2750  0.0951 -0.0042
16281TIP3    H170334   2.579   3.163   1.597  0.6698  1.7686 -0.2839
16281TIP3    H270335   2.708   3.085   1.601  0.6206  1.6785 -0.4356
16282TIP3   OH270336   5.544   4.670   5.762 -0.3026  0.4370 -0.1150
16282TIP3    H170337   5.520   4.635   5.848 -1.5850  0.7690 -0.3204
16282TIP3    H270338   5.469   4.649   5.706  0.8606 -0.5237 -1.3829
16283TIP3   OH270339   6.146   5.477   5.112 -0.0225  0.2898 -0.6559
16283TIP3    H170340   6.118   5.558   5.070 -0.2432 -0.2221 -1.5428
16283TIP3    H270341   6.151   5.414   5.039 -0.3777 -0.6196  0.0872
16284TIP3   OH270342   3.820   3.826  10.958  0.4243 -0.1516 -0.4531
16284TIP3    H170343   3.900   3.877  10.969  0.2702  0.3911 -1.7362
16284TIP3    H270344   3.832   3.780  10.875 -0.0694 -1.0651 -0.0329
16285TIP3   OH270345   5.065   5.558  15.045 -0.2161  0.1876 -0.3021
16285TIP3    H170346   5.122   5.627  15.011 -0.1752 -0.1258 -0.8819
16285TIP3    H270347   4.997   5.547  14.977 -0.3312 -0.2066 -0.1272
16286TIP3   OH270348   5.977   0.485   5.174  0.2680  0.6328  0.1068
16286TIP3    H170349   5.904   0.535   5.138  0.6004  1.3864  0.4401
16286TIP3    H270350   6.020   0.447   5.098 -0.9263 -0.5011 -0.0471
16287TIP3   OH270351   6.238   5.445  15.456  0.3723 -0.3712 -0.0217
16287TIP3    H170352   6.280   5.392  15.523  0.3461 -1.0452 -0.5285
16287TIP3    H270353   6.176   5.500  15.504  1.2427  0.0559  0.6417
16288TIP3   OH270354   4.715   2.668  15.663  0.2058 -0.2572  0.1815
16288TIP3    H170355   4.696   2.714  15.581  0.8065 -0.2406  0.0475
16288TIP3    H270356   4.807   2.644  15.656  0.0611 -0.9320  0.5223
16289TIP3   OH270357   6.756   0.835   0.311 -0.3857 -0.0757  0.9293
16289TIP3    H170358   6.764   0.741   0.291 -1.7785 -0.4303  1.9202
16289TIP3    H270359   6.814   0.848   0.386 -0.2662 -0.1564  0.8515
16290TIP3   OH270360   5.853   4.122  15.400 -0.0682  0.6061  0.5761
16290TIP3    H170361   5.907   4.091  15.473  0.2954 -1.8571 -0.6215
16290TIP3    H270362   5.764   4.122  15.435  0.1756  0.1494  1.2227
16291TIP3   OH270363   4.427   0.510   4.601  0.0221  0.3299 -0.1480
16291TIP3    H170364   4.382   0.457   4.535  0.8546  2.0715 -2.2485
16291TIP3    H270365   4.497   0.454   4.634 -0.6060 -0.6969 -0.5190
16292TIP3   OH270366   5.520   0.228  15.327 -0.0299 -0.7156 -0.2125
16292TIP3    H170367   5.583   0.188  15.266 -0.3796 -0.1702 -0.9486
16292TIP3    H270368   5.574   0.276  15.389  0.2718  1.2798 -1.9144
16293TIP3   OH270369   2.015   5.373   3.488  0.1362 -1.0103 -0.2151
16293TIP3    H170370   2.074   5.433   3.533  0.3928 -1.0775 -0.4616
16293TIP3    H270371   1.930   5.387   3.531  0.2634 -0.7013 -0.0591
16294TIP3   OH270372   4.548   2.725   4.637  0.4767  0.1601 -0.1027
16294TIP3    H170373   4.625   2.760   4.682 -0.0007  0.7109  0.3085
16294TIP3    H270374   4.533   2.785   4.564 -1.2748  1.8046  1.5123
16295TIP3   OH270375   5.413   5.819   1.423 -0.1898  0.0131  0.3891
16295TIP3    H170376   5.440   5.843   1.334  1.1155  0.8411  0.9743
16295TIP3    H270377   5.343   5.881   1.444 -0.7222 -0.3886 -0.1670
16296TIP3   OH270378   0.380   4.378  15.265  0.5313 -0.2188  0.1426
16296TIP3    H170379   0.436   4.446  15.303 -1.0553  0.5220  1.2734
16296TIP3    H270380   0.351   4.326  15.340  0.0564 -0.8570 -0.4663
16297TIP3   OH270381   2.221   1.220   2.711  0.0585  0.3479  0.0222
16297TIP3    H170382   2.266   1.164   2.774 -1.2954  0.3882  1.0727
16297TIP3    H270383   2.291   1.270   2.669  1.0755 -0.3716  0.8067
16298TIP3   OH270384   2.464   1.942   1.856 -0.5326  0.3520  0.3540
16298TIP3    H170385   2.401   1.916   1.923  0.3976  0.5019  1.3146
16298TIP3    H270386   2.535   1.985   1.904 -0.6447  2.0496 -0.8949
16299TIP3   OH270387   3.671   0.734   3.309  1.6281 -0.0341  0.0331
16299TIP3    H170388   3.686   0.774   3.394  4.1071 -0.3390 -0.1701
16299TIP3    H270389   3.692   0.641   3.322 -1.2040 -0.7799 -0.1833
16300TIP3   OH270390   0.499   4.538   1.531 -0.0038 -0.1684 -0.1764
16300TIP3    H170391   0.458   4.614   1.490  0.8289 -0.0193 -0.7651
16300TIP3    H270392   0.589   4.540   1.500  0.9547  0.4605  2.3671
16301TIP3   OH270393   5.836   1.133  12.378 -0.2016 -0.6961  0.5065
16301TIP3    H170394   5.911   1.111  12.323  0.4103  1.2176  0.4945
16301TIP3    H270395   5.852   1.087  12.460  1.5664  0.5009  0.8836
16302TIP3   OH270396   5.551   3.950  11.150  0.3121 -0.9096 -0.1791
16302TIP3    H170397   5.615   3.939  11.080  1.4323 -2.6047  1.0281
16302TIP3    H270398   5.603   3.961  11.229 -0.9236  0.3030  0.5167
16303TIP3   OH270399   5.464   2.704  16.276  0.5198 -0.3215  0.1797
16303TIP3    H170400   5.370   2.707  16.292  0.3161  0.0478 -1.0042
16303TIP3    H270401   5.487   2.611  16.288 -0.1169 -0.5283 -0.1441
16304TIP3   OH270402   6.784   4.920  14.252 -0.6172 -0.2878  0.0460
16304TIP3    H170403   6.863   4.889  14.296 -1.4299 -1.5763  0.6615
16304TIP3    H270404   6.764   4.853  14.187 -1.0965  0.1227 -0.2392
16305TIP3   OH270405   3.415   5.755  15.869 -0.7003  0.0711  0.1100
16305TIP3    H170406   3.409   5.820  15.939  0.1864 -0.0207  0.2798
16305TIP3    H270407   3.383   5.673  15.909  0.0437 -0.0404  0.4952
16306TIP3   OH270408   6.189   4.670   6.139  0.4827 -0.2348 -0.2979
16306TIP3    H170409   6.186   4.763   6.163  2.4616  0.4240 -2.2561
16306TIP3    H270410   6.218   4.626   6.219 -0.2593  0.8354  0.6013
16307TIP3   OH270411   3.263   0.484  14.479  0.1585 -0.0740  0.2796
16307TIP3    H170412   3.178   0.455  14.512  0.0428 -1.4107 -1.0837
16307TIP3    H270413   3.327   0.429  14.524  0.1504 -0.4197 -0.1242
16308TIP3   OH270414   6.539   2.157   1.343 -0.1149 -0.1559 -0.1995
16308TIP3    H170415   6.548   2.218   1.416  1.1997 -0.8510  0.2509
16308TIP3    H270416   6.445   2.138   1.339 -0.5008  1.5467 -0.0915
16309TIP3   OH270417   5.615   0.871   0.042 -0.2279  0.3478 -0.5835
16309TIP3    H170418   5.710   0.869   0.051 -0.1223  0.6758 -1.4932
16309TIP3    H270419   5.600   0.880  -0.053 -1.1673 -0.2959 -0.5093
16310TIP3   OH270420   6.500   4.278  12.437 -0.2671 -0.1405  0.1618
16310TIP3    H170421   6.539   4.362  12.462 -1.6677  0.1841  1.3865
16310TIP3    H270422   6.512   4.273  12.342  1.3368  0.6436  0.2949
16311TIP3   OH270423   5.869   2.137   5.318 -0.2440 -0.3013 -0.5588
16311TIP3    H170424   5.941   2.101   5.266 -0.3825 -0.8282 -0.3918
16311TIP3    H270425   5.797   2.076   5.305  0.1531 -1.2668  1.4032
16312TIP3   OH270426   1.140   3.604  12.847 -0.4593  0.0801  0.0966
16312TIP3    H170427   1.228   3.597  12.884 -0.3290 -0.2860 -0.2819
16312TIP3    H270428   1.153   3.648  12.763 -0.7130  0.5678  0.3044
16313TIP3   OH270429   3.861   4.538   3.478 -0.5820 -0.4610 -0.6366
16313TIP3    H170430   3.895   4.610   3.425 -0.6259  0.7746  0.9318
16313TIP3    H270431   3.928   4.524   3.546 -1.5586 -0.4183  0.3618
16314TIP3   OH270432   6.485   6.105   0.721 -0.2137 -0.2384 -0.5907
16314TIP3    H170433   6.476   6.010   0.708 -0.7124 -0.3462  0.4143
16314TIP3    H270434   6.443   6.144   0.644 -1.8440 -0.8358 -0.0603
16315TIP3   OH270435   0.952   2.911  15.578 -0.0226  0.1021 -0.0287
16315TIP3    H170436   0.869   2.909  15.531 -0.3332 -0.5132  0.5344
16315TIP3    H270437   1.008   2.850  15.530 -0.6244 -1.2286  0.8796
16316TIP3   OH270438   5.974   5.285   1.960  0.1708 -0.1655 -0.5024
16316TIP3    H170439   6.066   5.287   1.986  0.9750 -0.4025 -3.0551
16316TIP3    H270440   5.932   5.231   2.026  1.5649  1.0028  1.4621
16317TIP3   OH270441   4.844   3.948  11.414 -0.2265  0.1203 -0.0245
16317TIP3    H170442   4.763   3.960  11.365 -1.4027  0.0255  1.8214
16317TIP3    H270443   4.834   3.863  11.457  1.7101 -0.8034 -1.2465
16318TIP3   OH270444   4.961   2.890   1.699 -0.0093 -0.0835 -0.1970
16318TIP3    H170445   4.967   2.960   1.634  1.3584  0.6200  0.6457
16318TIP3    H270446   4.884   2.912   1.751  0.2794  0.6778 -0.0782
16319TIP3   OH270447   1.393   3.796   6.354 -0.0265 -0.5578 -0.4597
16319TIP3    H170448   1.346   3.817   6.435 -0.3481 -0.4656 -0.6686
16319TIP3    H270449   1.364   3.863   6.292  0.1364 -0.6950 -0.6826
16320TIP3   OH270450   2.724   0.129   0.676 -0.0494 -0.4975  0.5774
16320TIP3    H170451   2.688   0.164   0.594  0.7679  1.5360  1.0164
16320TIP3    H270452   2.669   0.167   0.744  0.3842 -0.7191  1.0558
16321TIP3   OH270453   3.630   4.491  13.760 -0.1997  0.0366  0.6666
16321TIP3    H170454   3.538   4.514  13.756 -0.5213 -1.2530  0.3600
16321TIP3    H270455   3.661   4.497  13.670 -0.3178 -0.8180  0.5622
16322TIP3   OH270456   5.150   1.270   1.931  0.7271 -0.1367 -0.6828
16322TIP3    H170457   5.165   1.189   1.882 -0.9054 -0.8441 -0.0943
16322TIP3    H270458   5.172   1.340   1.869  1.8309 -1.0115 -1.3172
16323TIP3   OH270459   0.831   5.929  11.699 -0.0189 -0.0411 -0.2618
16323TIP3    H170460   0.845   5.973  11.615 -2.2134 -1.6739 -1.5998
16323TIP3    H270461   0.919   5.917  11.735  0.9866  0.8288 -2.2548
16324TIP3   OH270462   6.465   3.422   2.147 -0.0909  0.5737 -0.7098
16324TIP3    H170463   6.476   3.337   2.103 -1.2205  0.4466 -0.7789
16324TIP3    H270464   6.462   3.401   2.240 -1.1786  0.4276 -0.7657
16325TIP3   OH270465   0.091   5.239   4.076 -0.3329  0.2972 -0.0740
16325TIP3    H170466  -0.002   5.217   4.073 -0.2704 -0.1812  1.1552
16325TIP3    H270467   0.123   5.197   4.156  1.2824 -0.8806 -1.2689
16326TIP3   OH270468   5.906   3.768  13.167  0.3778 -0.4333 -0.1753
16326TIP3    H170469   5.961   3.838  13.202  1.7143 -1.2134 -0.6527
16326TIP3    H270470   5.958   3.689  13.177 -1.1677 -1.4143  0.4960
16327TIP3   OH270471   6.302   4.763  11.826  0.3330 -0.0749  0.0891
16327TIP3    H170472   6.368   4.694  11.830 -0.3465 -0.6933  2.0458
16327TIP3    H270473   6.353   4.845  11.828  1.0850 -0.5396  0.2575
16328TIP3   OH270474   2.036   0.043   1.553  0.3414 -0.5787  0.5642
16328TIP3    H170475   1.952   0.083   1.533  0.3298 -0.6100  0.5506
16328TIP3    H270476   2.044   0.050   1.648  0.4512 -0.3215  0.5379
16329TIP3   OH270477   3.419   0.825   2.917  0.0528  0.0862  0.2565
16329TIP3    H170478   3.366   0.891   2.961  0.6429 -0.7239  2.2933
16329TIP3    H270479   3.418   0.851   2.825  1.2281  3.5969  1.0846
16330TIP3   OH270480   1.038   4.223   4.984  0.3996 -0.5727  0.6478
16330TIP3    H170481   0.989   4.212   5.066 -0.6902 -2.4276 -0.1801
16330TIP3    H270482   1.025   4.315   4.960 -0.4464 -0.3628  1.8303
16331TIP3   OH270483   0.519   5.387  12.936  0.4588 -0.2065  0.1022
16331TIP3    H170484   0.443   5.330  12.945 -0.2988  0.6560 -0.5568
16331TIP3    H270485   0.580   5.358  13.004 -0.7838 -0.4356  1.1571
16332TIP3   OH270486   0.892   2.319  16.423  0.2330  0.2180  0.3139
16332TIP3    H170487   0.801   2.346  16.433  0.2836  1.1897 -1.4473
16332TIP3    H270488   0.941   2.378  16.480 -0.1476  0.2963  0.5666
16333TIP3   OH270489   1.280   5.872   4.934  0.6693 -0.2252 -0.1134
16333TIP3    H170490   1.349   5.868   5.000 -0.1619 -2.4609  0.7027
16333TIP3    H270491   1.310   5.814   4.864  1.0519  1.3011 -1.2688
16334TIP3   OH270492   0.644   4.123  12.256 -0.1075 -0.0515 -0.2393
16334TIP3    H170493   0.634   4.087  12.168 -0.1060  1.4642 -0.9043
16334TIP3    H270494   0.680   4.211  12.241  2.5865 -0.7416  1.4080
16335TIP3   OH270495   4.868   6.528   1.931 -0.3941  0.4174  0.0088
16335TIP3    H170496   4.792   6.525   1.872 -1.4402  0.2759  1.3191
16335TIP3    H270497   4.864   6.445   1.979 -0.4393  1.1770  1.3424
16336TIP3   OH270498   4.702   3.158   1.121 -0.4130  0.6349  0.0829
16336TIP3    H170499   4.654   3.203   1.052  1.1182 -0.9561 -2.1646
16336TIP3    H270500   4.686   3.065   1.105  1.4281  0.1525  0.7297
16337TIP3   OH270501   1.354   3.484   5.391  0.1401 -0.0377  0.0407
16337TIP3    H170502   1.290   3.431   5.438 -0.3890 -0.3650 -1.0311
16337TIP3    H270503   1.303   3.532   5.326  0.2704  3.2347  2.0999
16338TIP3   OH270504   6.563   5.664   3.158 -0.0723 -0.0481 -0.1197
16338TIP3    H170505   6.654   5.650   3.134  1.1478  4.5478  0.7642
16338TIP3    H270506   6.563   5.667   3.254 -1.5853 -1.6753 -0.0142
16339TIP3   OH270507   2.297   2.950   4.816  0.3168 -0.5817 -0.1210
16339TIP3    H170508   2.276   2.923   4.726  0.7907  1.1943 -0.8187
16339TIP3    H270509   2.355   2.881   4.849  1.4409 -0.5024 -1.7803
16340TIP3   OH270510   0.439   3.956  13.276  0.0373 -0.2073 -0.0377
16340TIP3    H170511   0.509   4.018  13.255 -0.0562  0.0006  0.2506
16340TIP3    H270512   0.485   3.877  13.304  0.2041  0.5964  2.1547
16341TIP3   OH270513   3.963   1.615  16.654  0.3829  0.1638  1.0869
16341TIP3    H170514   3.978   1.653  16.567 -1.1608 -0.2937  0.5815
16341TIP3    H270515   3.925   1.687  16.705  1.9307  0.6346  1.6304
16342TIP3   OH270516   3.960   0.359  14.890  0.1366 -0.7862 -0.1410
16342TIP3    H170517   3.943   0.374  14.983 -0.4201 -0.5014 -0.2875
16342TIP3    H270518   4.048   0.320  14.888  0.1216 -0.8618  0.5067
16343TIP3   OH270519   5.190   2.716  16.361 -0.6036 -0.3398  0.2566
16343TIP3    H170520   5.110   2.685  16.319 -2.0732  0.3497  2.3523
16343TIP3    H270521   5.225   2.640  16.407 -1.1734 -0.1930  0.9449
16344TIP3   OH270522   0.197   6.242   3.021  0.9589 -0.0211 -0.2502
16344TIP3    H170523   0.153   6.254   3.105 -1.1884 -2.1814 -0.9454
16344TIP3    H270524   0.145   6.295   2.959  1.1921 -0.1819 -0.5868
16345TIP3   OH270525   5.622   4.513   0.951  0.1036  0.0374 -0.2477
16345TIP3    H170526   5.645   4.561   0.871 -1.1295  1.8539  0.4423
16345TIP3    H270527   5.610   4.581   1.017 -0.1851 -1.3531  1.1776
16346TIP3   OH270528   6.649   6.053   3.061  0.5493 -0.0549 -0.0751
16346TIP3    H170529   6.717   5.990   3.035 -0.1235 -1.0020  0.3907
16346TIP3    H270530   6.645   6.045   3.156  0.5608  0.8311  0.0096
16347TIP3   OH270531   6.604   6.860   0.116  0.1718  0.4988  0.1031
16347TIP3    H170532   6.664   6.794   0.080  0.0291  0.4857 -0.1127
16347TIP3    H270533   6.531   6.861   0.054 -0.5772 -0.2712  0.9485
16348TIP3   OH270534   1.629   5.401   6.113  0.4387 -0.7837  0.2064
16348TIP3    H170535   1.724   5.394   6.102  0.2269 -0.3897 -2.8366
16348TIP3    H270536   1.616   5.413   6.207  3.2564 -2.5225  0.9316
16349TIP3   OH270537   4.086   6.538   1.988  0.0423 -0.3488  0.4514
16349TIP3    H170538   4.126   6.512   2.071 -0.0775 -1.9190  0.0304
16349TIP3    H270539   4.158   6.577   1.938 -0.0778  1.4941  1.6055
16350TIP3   OH270540   2.008   6.633  11.482 -0.5620 -0.0290 -0.3817
16350TIP3    H170541   2.072   6.705  11.472 -0.7934  0.1020 -0.9234
16350TIP3    H270542   2.029   6.595  11.567 -0.2760  0.5295 -0.1965
16351TIP3   OH270543   0.693   4.329   4.212  0.5552  0.2317 -0.2156
16351TIP3    H170544   0.773   4.366   4.249  1.6971 -0.3097 -2.0165
16351TIP3    H270545   0.723   4.252   4.162 -1.4231 -1.6658  1.3082
16352TIP3   OH270546   3.246   4.280   1.149 -0.7371 -0.1739 -0.0290
16352TIP3    H170547   3.258   4.355   1.091  1.6773 -1.0135 -0.7281
16352TIP3    H270548   3.201   4.316   1.225 -1.0438  1.6364 -1.0089
16353TIP3   OH270549   2.089   2.362  15.913 -0.4246  0.0177  0.1549
16353TIP3    H170550   2.003   2.399  15.894 -0.1204  0.7937  0.2581
16353TIP3    H270551   2.099   2.370  16.008 -1.5194 -2.9341  0.6154
16354TIP3   OH270552   3.703   5.229  12.656 -0.0058 -0.2627 -0.2896
16354TIP3    H170553   3.614   5.211  12.625 -0.0932 -0.7379  0.2211
16354TIP3    H270554   3.693   5.234  12.751 -0.0908  2.9274 -0.3605
16355TIP3   OH270555   2.831   3.056   6.152  0.0693  0.9687 -0.7547
16355TIP3    H170556   2.736   3.061   6.163  0.0762  1.8382 -1.0357
16355TIP3    H270557   2.855   2.974   6.195 -0.9189  0.2601 -1.4865
16356TIP3   OH270558   1.192   5.635   5.983 -0.2005  0.2091  0.2194
16356TIP3    H170559   1.218   5.572   6.049 -2.0128 -1.0376 -0.1736
16356TIP3    H270560   1.268   5.645   5.926  1.3083  1.1244  2.2867
16357TIP3   OH270561   3.620   5.503   1.032 -0.6984  0.5061  0.2907
16357TIP3    H170562   3.684   5.433   1.036  0.1452  1.2461  0.1124
16357TIP3    H270563   3.540   5.466   1.071 -0.1241 -0.3768  0.6413
16358TIP3   OH270564   5.636   4.531  16.068  0.4547  0.3134 -0.5139
16358TIP3    H170565   5.686   4.480  16.132  0.3388  0.4853 -0.2844
16358TIP3    H270566   5.687   4.525  15.987  0.7308  0.3032 -0.3411
16359TIP3   OH270567   4.023   1.794   3.302 -0.3913  0.9841 -0.4215
16359TIP3    H170568   3.931   1.773   3.286 -0.3478  0.5853 -0.1612
16359TIP3    H270569   4.067   1.709   3.300 -0.3005  0.9547  1.2465
16360TIP3   OH270570   4.430   5.730  16.705  0.1857 -0.2178 -0.6109
16360TIP3    H170571   4.423   5.635  16.697  0.7524 -0.2752 -0.4376
16360TIP3    H270572   4.524   5.747  16.711  0.1412  0.4375 -1.6125
16361TIP3   OH270573   4.896   5.430   2.685 -0.4722  0.1168 -0.1696
16361TIP3    H170574   4.957   5.435   2.611 -1.7076  1.5004 -1.1736
16361TIP3    H270575   4.951   5.419   2.762  0.8826 -1.0032 -1.2557
16362TIP3   OH270576   5.279   1.451   1.001 -0.3614 -0.0156  0.1204
16362TIP3    H170577   5.206   1.464   1.062 -0.9892 -0.3843 -0.5229
16362TIP3    H270578   5.239   1.405   0.927  0.4095  0.2861 -0.4981
16363TIP3   OH270579   3.106   4.895  15.320  0.4121  0.7740 -0.0879
16363TIP3    H170580   3.101   4.891  15.415 -1.4032  0.3690 -0.1510
16363TIP3    H270581   3.175   4.833  15.296  0.3660  0.3173  0.9301
16364TIP3   OH270582   1.118   3.187  15.543 -0.3977  0.7588 -0.0385
16364TIP3    H170583   1.101   3.268  15.590  0.8791  0.0107  1.8776
16364TIP3    H270584   1.063   3.122  15.586  0.1940  0.2080 -0.0888
16365TIP3   OH270585   3.235   2.132  16.460 -0.5443 -0.1877  0.8257
16365TIP3    H170586   3.281   2.117  16.377  0.4962  0.7963  1.2065
16365TIP3    H270587   3.244   2.050  16.507 -2.0408 -1.1287 -0.4233
16366TIP3   OH270588   6.147   2.459   2.597  0.3579  0.0649 -0.0177
16366TIP3    H170589   6.095   2.538   2.608  0.1532  0.2427 -1.9404
16366TIP3    H270590   6.086   2.394   2.563  1.1362 -0.0193 -1.3268
16367TIP3   OH270591   0.123   0.528  11.023  0.2811  0.2092  0.2941
16367TIP3    H170592   0.166   0.530  10.937 -1.9993 -0.2421 -0.9337
16367TIP3    H270593   0.133   0.437  11.052 -0.7260 -0.1738 -0.4972
16368TIP3   OH270594   5.058   1.616   4.311 -0.1461 -0.1593 -0.3088
16368TIP3    H170595   5.133   1.604   4.254 -0.9278  1.3164 -1.7499
16368TIP3    H270596   4.995   1.665   4.258 -1.3748  0.2890  1.4501
16369TIP3   OH270597   4.864   0.076  16.185 -0.5312  0.0256 -0.1068
16369TIP3    H170598   4.910  -0.004  16.159  2.0228  0.9724  1.1808
16369TIP3    H270599   4.797   0.046  16.246 -0.3972 -1.2299 -0.5433
16370TIP3   OH270600   4.725   3.937   3.967 -0.8418 -0.4413 -0.3038
16370TIP3    H170601   4.792   4.001   3.945 -0.1356 -0.9939  0.1904
16370TIP3    H270602   4.770   3.853   3.964 -1.4920 -0.8180  0.1135
16371TIP3   OH270603   6.465   1.782  12.295 -0.0880  0.5807 -0.6004
16371TIP3    H170604   6.451   1.847  12.226  1.9588  0.9297 -0.7546
16371TIP3    H270605   6.555   1.798  12.325  0.2010 -1.6719 -0.0875
16372TIP3   OH270606   1.394   2.186  12.850  0.0486  0.0305 -0.1685
16372TIP3    H170607   1.477   2.164  12.808 -0.6153 -2.4590 -0.3033
16372TIP3    H270608   1.407   2.163  12.942  0.3256  2.1541  0.3812
16373TIP3   OH270609   3.748   4.818   2.196  0.3104  0.5662  0.3455
16373TIP3    H170610   3.762   4.724   2.188  1.4520  0.7791 -0.4515
16373TIP3    H270611   3.661   4.833   2.159  0.2886 -0.1203  0.1046
16374TIP3   OH270612   3.407   5.530  12.993 -0.2756  0.1616  0.1305
16374TIP3    H170613   3.313   5.548  12.989 -0.0161  1.5663 -0.1728
16374TIP3    H270614   3.414   5.436  12.981 -1.8034 -0.4064  2.8278
16375TIP3   OH270615   2.697   3.048   1.902 -0.3581 -1.0445 -0.0192
16375TIP3    H170616   2.689   3.085   1.814  0.5263  0.8140  0.6453
16375TIP3    H270617   2.765   2.981   1.893  1.8097  1.0373 -0.2648
16376TIP3   OH270618   2.523   1.257   0.109 -0.4998  0.3577  0.2599
16376TIP3    H170619   2.465   1.327   0.078  1.9192  1.8743 -1.2090
16376TIP3    H270620   2.537   1.202   0.033  1.3605  1.0824  0.0234
16377TIP3   OH270621   2.058   1.040  16.242 -0.1050 -0.0348  0.5469
16377TIP3    H170622   2.008   1.044  16.323 -1.6444 -1.6564 -0.2432
16377TIP3    H270623   2.091   0.950  16.239 -0.3417 -0.0920 -0.7648
16378TIP3   OH270624   2.003   2.346  12.357  0.2666  0.6868  0.3797
16378TIP3    H170625   1.941   2.274  12.345  0.3264  0.5629  0.7749
16378TIP3    H270626   2.088   2.308  12.336  0.1704  0.9526 -0.5009
16379TIP3   OH270627   4.888   0.368   5.668 -0.4533 -0.0290  0.1229
16379TIP3    H170628   4.968   0.374   5.721  0.0287  0.3727 -0.6366
16379TIP3    H270629   4.918   0.338   5.582 -1.0336  0.7458 -0.3609
16380TIP3   OH270630   1.138   3.540  16.756 -0.2640  0.4047 -0.4032
16380TIP3    H170631   1.080   3.568  16.685 -3.2502 -0.8270  1.3787
16380TIP3    H270632   1.195   3.615  16.771 -2.9326  2.6758 -0.7954
16381TIP3   OH270633   4.096   0.549   3.259 -0.0436  0.8069  0.4316
16381TIP3    H170634   4.017   0.497   3.249  0.6333 -0.1768 -0.0153
16381TIP3    H270635   4.116   0.546   3.353  0.4081 -0.4323  0.3248
16382TIP3   OH270636   0.910   5.329  14.008 -0.2467 -0.1568  0.3491
16382TIP3    H170637   0.977   5.396  14.023 -0.5291 -0.1464  1.6972
16382TIP3    H270638   0.907   5.280  14.090  0.3774 -2.2189 -0.8015
16383TIP3   OH270639   0.946   6.208  12.697  0.1934  0.3594 -0.0931
16383TIP3    H170640   0.878   6.166  12.646  0.1364  0.1854  0.1254
16383TIP3    H270641   0.908   6.292  12.723 -0.4687 -0.3166  1.2063
16384TIP3   OH270642   3.170   3.233   3.309  0.1444 -0.2648  0.2755
16384TIP3    H170643   3.110   3.273   3.246  1.0586  0.1522 -0.3462
16384TIP3    H270644   3.139   3.262   3.394 -0.1255  0.5058 -0.0810
16385TIP3   OH270645   6.247   4.761  13.100 -0.0788 -0.6248 -0.6036
16385TIP3    H170646   6.212   4.848  13.081  0.4718 -0.6476 -1.8093
16385TIP3    H270647   6.200   4.703  13.041  2.1014 -0.6218 -2.4696
16386TIP3   OH270648   0.923   3.786   6.519 -0.2363 -0.4883 -0.1160
16386TIP3    H170649   0.975   3.707   6.506  0.8523  0.5680 -2.7948
16386TIP3    H270650   0.849   3.776   6.459 -0.7133  0.0043  0.3834
16387TIP3   OH270651   3.454   2.436   5.949  0.1553  0.0963 -0.3653
16387TIP3    H170652   3.451   2.374   6.023  0.4581 -0.7440 -1.0409
16387TIP3    H270653   3.505   2.510   5.983  1.5908 -0.9268 -0.1788
16388TIP3   OH270654   3.233   4.897  11.559 -0.7048  0.2959 -0.0663
16388TIP3    H170655   3.205   4.827  11.500  0.5543  0.7601 -1.2780
16388TIP3    H270656   3.324   4.914  11.533  1.0862 -1.5775  4.0155
16389TIP3   OH270657   3.174   3.449   1.923 -0.2373 -1.0448  0.3384
16389TIP3    H170658   3.261   3.463   1.885 -0.0867 -0.8497  0.7529
16389TIP3    H270659   3.115   3.501   1.868  0.5555  3.3104  3.1395
16390TIP3   OH270660   2.005   3.645  11.041  0.1755 -0.7584  0.0244
16390TIP3    H170661   2.056   3.659  11.121  0.4311  0.0486 -0.2725
16390TIP3    H270662   2.062   3.592  10.986 -0.1473 -1.6411  0.5039
16391TIP3   OH270663   0.819   5.810   5.866 -0.0138  0.1792 -0.2147
16391TIP3    H170664   0.780   5.898   5.861  1.3927  1.0007  1.7666
16391TIP3    H270665   0.912   5.826   5.882 -0.2469 -1.4780  4.3142
16392TIP3   OH270666   1.733   0.064  16.519 -0.0727 -0.5203 -0.5024
16392TIP3    H170667   1.758   0.016  16.440 -0.3847  0.8771 -1.4874
16392TIP3    H270668   1.646   0.100  16.499  0.7622  1.6676 -0.3923
16393TIP3   OH270669   1.134   3.282   0.654 -0.1346  0.1847  0.8124
16393TIP3    H170670   1.127   3.237   0.570  0.2020  1.4265  0.0801
16393TIP3    H270671   1.044   3.305   0.676 -0.2788 -0.5963  1.0597
16394TIP3   OH270672   6.519   5.884  10.246 -0.0166 -0.3770 -0.6831
16394TIP3    H170673   6.428   5.893  10.218 -0.8576  1.4497  2.2354
16394TIP3    H270674   6.516   5.819  10.316  1.1853 -1.2673 -1.4207
16395TIP3   OH270675   0.641   3.444  14.177 -0.4331  0.3626  0.5540
16395TIP3    H170676   0.622   3.517  14.236  0.4129  1.4854 -0.5153
16395TIP3    H270677   0.555   3.411  14.152 -0.8469  1.2312  0.7764
16396TIP3   OH270678   0.773   5.318   4.233  0.0615  0.6043 -0.4151
16396TIP3    H170679   0.819   5.320   4.149  2.6031  0.5335  0.8699
16396TIP3    H270680   0.760   5.225   4.250 -5.1499  0.5169 -2.9176
16397TIP3   OH270681   4.705   0.355   5.368 -0.5339  0.2506  0.2392
16397TIP3    H170682   4.749   0.280   5.327  1.0700  1.3824 -0.1826
16397TIP3    H270683   4.675   0.321   5.453  1.9569 -0.3675  0.9492
16398TIP3   OH270684   2.187   2.532  17.099 -0.3665 -0.7920  0.4885
16398TIP3    H170685   2.174   2.530  17.004 -0.1925  0.7172  0.4108
16398TIP3    H270686   2.104   2.563  17.134  0.1622  0.4642  0.6692
16399TIP3   OH270687   3.476   3.989  12.839  0.1997  0.5034  0.1841
16399TIP3    H170688   3.569   3.970  12.829  0.0227 -0.4897  0.2909
16399TIP3    H270689   3.472   4.082  12.861  1.1044  0.7813 -0.7573
16400TIP3   OH270690   0.478   6.345   2.746 -0.0804 -0.1346 -0.2843
16400TIP3    H170691   0.389   6.314   2.728 -0.7587  0.1305  2.1662
16400TIP3    H270692   0.528   6.265   2.758  0.1385 -0.2924 -2.0293
16401TIP3   OH270693   3.297   1.708  11.767  0.0410 -0.2664 -0.1788
16401TIP3    H170694   3.333   1.691  11.680  1.1844  1.6370 -0.1378
16401TIP3    H270695   3.370   1.693  11.827 -0.0979  0.5858  0.2190
16402TIP3   OH270696   0.628   6.094  14.429  0.2765 -0.1582  0.6954
16402TIP3    H170697   0.645   6.056  14.515  4.0090  2.6122  1.4174
16402TIP3    H270698   0.645   6.188  14.440 -2.3963  0.9029 -2.3596
16403TIP3   OH270699   5.684   0.035   4.323 -0.2023 -0.0131 -0.8922
16403TIP3    H170700   5.765   0.040   4.272 -0.8141  3.0964 -1.7892
16403TIP3    H270701   5.614   0.044   4.258 -1.0846  1.8161  0.2308
16404TIP3   OH270702   5.027   4.400  16.169  0.4858  0.3354 -0.3764
16404TIP3    H170703   4.966   4.383  16.241 -0.2861  1.5951 -0.7001
16404TIP3    H270704   5.051   4.492  16.180  0.2104  0.5997 -1.8272
16405TIP3   OH270705   6.242   0.104   6.027  0.2681  0.2459  0.1833
16405TIP3    H170706   6.184   0.067   6.093 -0.0949  1.0052  0.2976
16405TIP3    H270707   6.209   0.192   6.012  1.0297  0.4778 -0.1947
16406TIP3   OH270708   3.643   3.933  11.286 -0.6053  0.3562  0.4443
16406TIP3    H170709   3.628   3.918  11.192  1.7861  4.0354 -0.7790
16406TIP3    H270710   3.738   3.941  11.294 -0.8646  3.2329  2.4699
16407TIP3   OH270711   0.730   2.536  13.659 -0.5502 -0.1330  0.3645
16407TIP3    H170712   0.734   2.606  13.724 -0.8258 -2.3167  2.9393
16407TIP3    H270713   0.729   2.581  13.575 -1.3545  2.9354  1.8672
16408TIP3   OH270714   6.414   0.068  12.662  0.2856  0.4777 -0.5942
16408TIP3    H170715   6.367  -0.011  12.690 -1.9360  1.9270 -0.0234
16408TIP3    H270716   6.405   0.069  12.567 -0.6685  0.6117 -0.5091
16409TIP3   OH270717   3.261   5.061   2.401 -0.3140  0.1599 -0.8492
16409TIP3    H170718   3.309   5.010   2.466 -1.9530 -0.4642 -0.0607
16409TIP3    H270719   3.181   5.089   2.447 -0.6991  1.1783 -2.0770
16410TIP3   OH270720   0.977   2.903  12.947  0.7464  0.2553 -0.5585
16410TIP3    H170721   0.986   2.829  13.007 -0.6418 -0.5171 -1.2313
16410TIP3    H270722   1.055   2.900  12.893  0.4548 -1.1184 -0.9569
16411TIP3   OH270723   6.522   2.952   4.390  0.0793 -0.2447  0.4967
16411TIP3    H170724   6.604   2.913   4.419  0.2665 -0.1736  0.0701
16411TIP3    H270725   6.455   2.913   4.446  0.3028 -0.9302  0.2971
16412TIP3   OH270726   2.698   2.133  13.287 -0.0675 -0.2380  0.1738
16412TIP3    H170727   2.612   2.158  13.320 -1.0671 -1.4018 -1.4252
16412TIP3    H270728   2.717   2.198  13.219 -0.4216 -0.8781 -0.5547
16413TIP3   OH270729   4.868   4.495   1.728 -0.2185  0.3030 -0.2696
16413TIP3    H170730   4.944   4.477   1.672 -1.6621 -0.1490 -2.2329
16413TIP3    H270731   4.814   4.416   1.720 -1.1061  0.7827  0.7216
16414TIP3   OH270732   4.407   2.501  14.358  0.0008 -0.4571 -0.5848
16414TIP3    H170733   4.403   2.407  14.340  2.2585 -0.5437 -0.8449
16414TIP3    H270734   4.468   2.536  14.294 -0.5020  1.1504 -0.2350
16415TIP3   OH270735   0.480   6.071  13.034 -0.2924  0.0455  0.2476
16415TIP3    H170736   0.419   6.088  13.105 -1.3517  1.9620 -1.0328
16415TIP3    H270737   0.460   6.138  12.968  2.7769  0.3814 -0.5021
16416TIP3   OH270738   5.897   1.619  13.465 -0.2427 -0.4450 -0.2126
16416TIP3    H170739   5.950   1.541  13.482 -1.0225 -1.2528 -1.3679
16416TIP3    H270740   5.809   1.595  13.493 -0.3789  0.2607  0.0015
16417TIP3   OH270741   1.933   2.594   3.490  0.1170 -0.2189 -0.1792
16417TIP3    H170742   1.868   2.529   3.464 -0.9588  0.1480  1.5018
16417TIP3    H270743   1.986   2.550   3.556  0.5399  0.0289 -0.3470
16418TIP3   OH270744   4.482   6.313   5.105  0.4864 -0.2222 -0.0909
16418TIP3    H170745   4.525   6.230   5.123  0.4823 -0.3629 -0.7186
16418TIP3    H270746   4.427   6.296   5.029 -0.4233  0.0507  0.4844
16419TIP3   OH270747   2.312   3.461  12.285  0.0638  0.5765 -0.0879
16419TIP3    H170748   2.227   3.418  12.297 -0.3044  1.1567 -0.5499
16419TIP3    H270749   2.311   3.533  12.347  1.4404 -1.1105  2.0291
16420TIP3   OH270750   3.863   6.574   5.150 -0.5222  0.1619  0.3143
16420TIP3    H170751   3.888   6.514   5.221  1.1937  0.4242 -0.0211
16420TIP3    H270752   3.945   6.618   5.126 -1.1798  0.5060 -1.4440
16421TIP3   OH270753   4.316   2.404   4.919  0.4737  0.3750 -0.3976
16421TIP3    H170754   4.399   2.365   4.891  0.7388  0.6432 -0.0031
16421TIP3    H270755   4.257   2.330   4.929  0.3225  0.2751 -1.7878
16422TIP3   OH270756   4.654   3.822  12.011  0.1671  0.2634  0.1271
16422TIP3    H170757   4.593   3.834  11.938  1.9138 -0.9847 -1.6250
16422TIP3    H270758   4.654   3.727  12.027  1.4009  0.2712  0.2792
16423TIP3   OH270759   1.394   6.108  13.629 -0.2300 -0.3904 -0.6726
16423TIP3    H170760   1.453   6.075  13.562 -1.3380 -1.5246 -1.1264
16423TIP3    H270761   1.307   6.099  13.591 -0.8379 -0.4737  0.6704
16424TIP3   OH270762   4.448   4.653  17.113 -0.0757  0.5847  0.5856
16424TIP3    H170763   4.361   4.640  17.074  0.8372  0.9552 -1.7354
16424TIP3    H270764   4.438   4.729  17.170 -1.5203 -0.0582  1.2284
16425TIP3   OH270765   6.527   3.612   3.250  0.5506  0.0135 -0.6357
16425TIP3    H170766   6.607   3.635   3.203  0.6852  2.3199  0.5652
16425TIP3    H270767   6.491   3.538   3.201  2.0527  0.5687 -2.7429
16426TIP3   OH270768   0.116   6.575  15.942  0.4134 -0.4550  0.0075
16426TIP3    H170769   0.075   6.662  15.939 -0.6864 -0.9809 -0.8052
16426TIP3    H270770   0.081   6.535  16.022  1.8071  0.2284  1.0221
16427TIP3   OH270771   5.009   1.755   0.448 -0.3709  0.3014 -0.5187
16427TIP3    H170772   4.983   1.686   0.510 -0.6126  0.4573 -0.4477
16427TIP3    H270773   4.931   1.810   0.439 -0.6980 -0.3222 -1.7799
16428TIP3   OH270774   0.829   6.631  11.441 -0.0185 -0.2971 -0.0432
16428TIP3    H170775   0.840   6.724  11.421 -0.6651 -0.3057 -0.4669
16428TIP3    H270776   0.820   6.628  11.537  1.4635 -0.0838  0.1194
16429TIP3   OH270777   6.014   1.594   3.035  0.2332 -0.0095 -0.3348
16429TIP3    H170778   6.054   1.601   2.948  1.3023 -0.6706  0.0784
16429TIP3    H270779   5.991   1.683   3.058 -0.1665  0.1600 -1.3445
16430TIP3   OH270780   4.877   5.910   2.133 -0.2577 -0.2301 -0.1193
16430TIP3    H170781   4.821   5.936   2.206 -1.2847  0.2699 -1.0471
16430TIP3    H270782   4.837   5.830   2.099  0.1034 -0.3533 -0.2579
16431TIP3   OH270783   2.688   2.475  13.499 -0.1214  0.3392  0.3669
16431TIP3    H170784   2.650   2.424  13.570  3.7123 -0.9906  1.7214
16431TIP3    H270785   2.700   2.412  13.428 -0.2418  0.6838  0.0365
16432TIP3   OH270786   4.689   1.223  13.180  0.1847  0.4235  0.4063
16432TIP3    H170787   4.594   1.224  13.167  0.5489 -0.1710 -3.2991
16432TIP3    H270788   4.708   1.135  13.211 -0.2793 -0.4437 -1.6270
16433TIP3   OH270789   5.111   4.250   5.262 -0.4936 -0.3646  0.0567
16433TIP3    H170790   5.043   4.251   5.195  0.2557  0.6669 -0.7220
16433TIP3    H270791   5.148   4.338   5.260 -1.1687  0.0782  2.6065
16434TIP3   OH270792   2.485   3.877  16.953 -0.0375  0.4018 -0.0725
16434TIP3    H170793   2.453   3.824  17.026 -0.6698 -1.8374 -1.8636
16434TIP3    H270794   2.569   3.838  16.929  0.0935  1.0092 -0.6476
16435TIP3   OH270795   6.602   0.988   5.496  0.1444 -0.0238 -0.3773
16435TIP3    H170796   6.517   0.997   5.541  0.7512 -0.0794  0.8297
16435TIP3    H270797   6.615   1.073   5.455 -0.1485  0.2553  0.0841
16436TIP3   OH270798   0.946   3.551   2.689  0.3136 -0.1869  0.5552
16436TIP3    H170799   0.956   3.591   2.775 -0.2832  1.1343  0.0529
16436TIP3    H270800   1.035   3.531   2.661  0.5087 -0.6399  1.4717
16437TIP3   OH270801   0.042   5.772  12.266 -0.1609 -0.1448 -0.1746
16437TIP3    H170802   0.058   5.743  12.356 -1.0675 -0.8776 -0.2398
16437TIP3    H270803   0.128   5.764  12.223  0.1058 -0.5478  0.4160
16438TIP3   OH270804   1.176   5.145   0.517 -0.4948  0.0921 -0.2400
16438TIP3    H170805   1.262   5.108   0.533  0.2452  1.0579 -1.6971
16438TIP3    H270806   1.116   5.094   0.572  1.0610 -0.2516  1.1760
16439TIP3   OH270807   2.699   6.750   0.323 -0.1551  0.0707  0.8875
16439TIP3    H170808   2.669   6.797   0.401 -2.0988 -1.5361  1.1694
16439TIP3    H270809   2.703   6.818   0.255 -0.7339  1.0553  1.7947
16440TIP3   OH270810   5.811   4.045   5.501  0.3716 -0.0688  0.0805
16440TIP3    H170811   5.840   3.959   5.471 -1.5189 -0.4130 -0.9110
16440TIP3    H270812   5.892   4.092   5.521  1.4414 -2.2448  1.2193
16441TIP3   OH270813   0.266   1.060   0.468  0.3433  0.0053 -0.4253
16441TIP3    H170814   0.175   1.049   0.497  0.1935  1.5946 -0.2115
16441TIP3    H270815   0.263   1.045   0.374  0.1606 -1.4977 -0.2056
16442TIP3   OH270816   1.970   1.057  14.759  0.3153  0.1636  0.1820
16442TIP3    H170817   1.947   1.007  14.837  0.2372 -0.4652 -0.2357
16442TIP3    H270818   1.941   1.003  14.686  1.0264  0.4166 -0.3030
16443TIP3   OH270819   3.485   5.475  11.720  0.5591  0.0316 -0.5139
16443TIP3    H170820   3.509   5.383  11.703  3.2580  0.2720  1.4197
16443TIP3    H270821   3.451   5.475  11.809  2.0318  1.0970  0.0743
16444TIP3   OH270822   4.296   6.483  13.360  0.0104  0.8298  0.2796
16444TIP3    H170823   4.213   6.507  13.319  0.1919 -0.1401 -0.6918
16444TIP3    H270824   4.332   6.414  13.305 -0.2818 -1.3962  2.6736
16445TIP3   OH270825   0.661   1.711  15.616 -0.5333 -0.6920  0.9777
16445TIP3    H170826   0.732   1.757  15.572 -1.3521  0.2803  0.6340
16445TIP3    H270827   0.681   1.618  15.604 -0.9080 -0.4952 -1.7826
16446TIP3   OH270828   5.502   3.548  16.272  0.3238  0.6135 -0.0159
16446TIP3    H170829   5.444   3.622  16.291 -0.1240  0.2834 -0.0808
16446TIP3    H270830   5.494   3.491  16.349  0.9042  0.7763  0.1743
16447TIP3   OH270831   2.658   1.984  17.032  0.6462 -0.0928  0.1680
16447TIP3    H170832   2.673   2.068  17.076  0.0267 -0.2989  0.7873
16447TIP3    H270833   2.743   1.940  17.035  1.5922  1.3688 -2.0865
16448TIP3   OH270834   4.196   0.229   3.033 -0.3856  0.2123  0.0100
16448TIP3    H170835   4.234   0.263   2.952 -0.0452 -2.3503 -1.0213
16448TIP3    H270836   4.108   0.201   3.008  0.3219 -2.2237 -0.0468
16449TIP3   OH270837   2.135   6.493   2.466  0.0691 -0.2768  0.2109
16449TIP3    H170838   2.143   6.403   2.497  1.6316 -0.1650  0.2013
16449TIP3    H270839   2.190   6.544   2.524 -1.1729  0.7838  0.5208
16450TIP3   OH270840   3.485   2.740  16.024 -0.4174  0.5398 -0.4863
16450TIP3    H170841   3.461   2.728  16.116 -0.9118 -1.9874 -0.8712
16450TIP3    H270842   3.402   2.751  15.979 -0.3053  0.0133 -0.8308
16451TIP3   OH270843   2.195   0.868   6.191  0.0478 -0.1584  0.0346
16451TIP3    H170844   2.145   0.937   6.234 -1.1708 -1.2370  0.4296
16451TIP3    H270845   2.287   0.895   6.200 -0.3498  0.9886  0.8902
16452TIP3   OH270846   5.447   0.991  13.549  0.1843 -0.3893  0.1232
16452TIP3    H170847   5.379   1.045  13.509  1.7628  1.5838 -0.0961
16452TIP3    H270848   5.498   0.957  13.474  0.2505 -0.7299  0.3201
16453TIP3   OH270849   5.969   4.475   0.517 -0.2839  0.0179  0.1694
16453TIP3    H170850   5.911   4.494   0.443  0.7208  1.4500 -0.2895
16453TIP3    H270851   5.946   4.541   0.583 -0.4076 -0.5570  0.7145
16454TIP3   OH270852   1.691   1.053  13.226 -0.3024 -0.2294 -0.4992
16454TIP3    H170853   1.646   1.040  13.143 -3.0252  2.2909  0.3796
16454TIP3    H270854   1.626   1.029  13.292  2.0734 -3.0408  1.0450
16455TIP3   OH270855   2.066   1.162  11.910 -0.0427  0.2510 -0.2583
16455TIP3    H170856   2.049   1.243  11.956  1.2232  0.7394 -0.6069
16455TIP3    H270857   2.102   1.103  11.976 -0.4366  0.1679 -0.1210
16456TIP3   OH270858   4.828   1.105   1.238 -0.0791 -0.0249 -0.1142
16456TIP3    H170859   4.752   1.048   1.229  0.3857 -0.9767  1.6263
16456TIP3    H270860   4.793   1.194   1.228 -1.3109 -0.4744  0.0659
16457TIP3   OH270861   3.472   3.456   2.523 -0.3540 -0.4989  0.0846
16457TIP3    H170862   3.564   3.429   2.527 -0.5549 -1.8206 -2.3496
16457TIP3    H270863   3.474   3.544   2.486 -0.0648 -0.1000  1.0018
16458TIP3   OH270864   4.843   1.109  17.070  0.4931  0.4773  0.1903
16458TIP3    H170865   4.781   1.146  17.132  0.0148 -0.0841  0.0511
16458TIP3    H270866   4.872   1.184  17.018  0.6146  0.8906  0.8325
16459TIP3   OH270867   2.261   3.309   4.562 -0.1114  0.0459  0.2181
16459TIP3    H170868   2.246   3.382   4.502  1.6027 -0.2935 -0.6824
16459TIP3    H270869   2.296   3.239   4.507 -0.1645 -0.8930  1.3347
16460TIP3   OH270870   2.264   1.424  14.395 -0.0762  0.8469  0.2565
16460TIP3    H170871   2.284   1.429  14.302 -2.0076 -2.6970 -0.4937
16460TIP3    H270872   2.315   1.350  14.427 -0.4281  1.2134  1.7560
16461TIP3   OH270873   3.558   1.571   2.863 -0.4458 -0.5726 -0.7209
16461TIP3    H170874   3.530   1.651   2.908  0.0027 -1.4017  1.1317
16461TIP3    H270875   3.477   1.536   2.825 -1.2551 -0.8324  1.1250
16462TIP3   OH270876   1.357   1.309   2.986 -0.3065  0.0877 -0.5814
16462TIP3    H170877   1.373   1.217   3.010  0.4464  0.8431  2.0772
16462TIP3    H270878   1.438   1.354   3.011 -1.3960  1.7928  0.0023
16463TIP3   OH270879   1.804   2.809   0.130 -0.3347 -0.4025  0.2893
16463TIP3    H170880   1.731   2.756   0.097 -0.5716  0.2419 -0.2333
16463TIP3    H270881   1.870   2.744   0.156 -1.3824 -1.0219  1.5201
16464TIP3   OH270882   2.139   2.988   0.815 -0.0020  0.0160  0.6919
16464TIP3    H170883   2.062   3.031   0.779  0.5008 -0.8403 -1.5935
16464TIP3    H270884   2.196   3.059   0.842 -0.4294  0.7121 -0.2129
16465TIP3   OH270885   3.358   0.995  14.559 -0.1457 -0.2809 -0.1269
16465TIP3    H170886   3.398   1.082  14.562  0.0207 -0.3735  0.6881
16465TIP3    H270887   3.281   1.003  14.615 -1.2979 -0.1002 -1.6826
16466TIP3   OH270888   6.000   0.562  10.189 -0.1487 -0.2507  0.0888
16466TIP3    H170889   5.987   0.470  10.213  0.2176 -0.3716 -0.1676
16466TIP3    H270890   5.912   0.594  10.171 -0.4717 -0.0879  1.8055
16467TIP3   OH270891   5.312   5.047  11.850  0.9127 -0.3061  0.8552
16467TIP3    H170892   5.241   5.093  11.894  0.8849 -0.0269  0.5229
16467TIP3    H270893   5.375   5.028  11.919  1.6315  1.5613  0.7650
16468TIP3   OH270894   4.551   0.112  11.963 -0.3191 -0.2060 -0.1629
16468TIP3    H170895   4.548   0.199  12.004  0.2913 -0.1029 -0.3276
16468TIP3    H270896   4.520   0.053  12.031  1.7138 -0.1696  0.8400
16469TIP3   OH270897   1.819   0.455   1.794  0.4602 -0.1466  0.0722
16469TIP3    H170898   1.857   0.379   1.839  1.3819  0.8966  1.1107
16469TIP3    H270899   1.859   0.452   1.706  1.2451 -0.3193  0.4246
16470TIP3   OH270900   2.214   6.057   3.253  0.3182  0.0370  0.2350
16470TIP3    H170901   2.191   6.009   3.174  0.5012 -1.2905  0.9648
16470TIP3    H270902   2.159   6.019   3.321  2.1023 -0.7779  1.2888
16471TIP3   OH270903   0.908   0.123   4.647  0.1680 -0.0354  0.2361
16471TIP3    H170904   0.997   0.087   4.640  0.5919  0.7204  1.4633
16471TIP3    H270905   0.919   0.217   4.635 -0.4962  0.0444  0.2338
16472TIP3   OH270906   3.944   6.471   0.651 -0.4047  0.1560  0.3512
16472TIP3    H170907   3.890   6.523   0.590 -1.7228 -1.7794 -0.2269
16472TIP3    H270908   3.890   6.463   0.729  0.3021  0.6219  0.9029
16473TIP3   OH270909   6.166   6.373  13.739 -0.2565 -0.4887 -0.3781
16473TIP3    H170910   6.257   6.346  13.747 -0.8844 -2.7483  0.1221
16473TIP3    H270911   6.116   6.295  13.765 -2.3292  0.6254 -0.7810
16474TIP3   OH270912   1.513   6.281  15.537 -0.2540  0.0679  0.0380
16474TIP3    H170913   1.518   6.284  15.441  0.8163 -0.1433  0.0726
16474TIP3    H270914   1.537   6.370  15.565  1.3350 -0.3480  0.1400
16475TIP3   OH270915   4.427   0.639  16.271  0.1351  0.2237 -0.0705
16475TIP3    H170916   4.522   0.637  16.280  0.1665 -0.0230 -0.4253
16475TIP3    H270917   4.411   0.710  16.208  0.1367 -0.2307 -0.5904
16476TIP3   OH270918   4.689   0.646  16.319 -0.1818  0.1890 -0.3520
16476TIP3    H170919   4.762   0.587  16.342  0.1440  1.5331  2.4853
16476TIP3    H270920   4.732   0.722  16.281 -0.2139  0.3281 -0.1146
16477TIP3   OH270921   0.252   6.086  11.633 -0.1234  0.2445 -0.2367
16477TIP3    H170922   0.185   6.019  11.621  1.1240 -1.3109  1.0344
16477TIP3    H270923   0.333   6.044  11.604  0.8839  0.7278  1.7048
16478TIP3   OH270924   5.218   0.393   2.269 -0.7114 -0.2253 -0.0732
16478TIP3    H170925   5.131   0.407   2.307 -0.9320 -1.2341 -0.1762
16478TIP3    H270926   5.278   0.425   2.336 -1.1580  0.0804  0.1856
16479TIP3   OH270927   2.983   1.377  14.506  0.1728  0.1833  0.2499
16479TIP3    H170928   3.078   1.374  14.498  0.2752 -1.5855  1.5344
16479TIP3    H270929   2.952   1.305  14.452 -0.2995 -0.2645  1.0861
16480TIP3   OH270930   4.933   1.712  15.337 -0.2375  0.4386  0.0414
16480TIP3    H170931   4.841   1.704  15.361 -0.5990  2.2144 -0.5889
16480TIP3    H270932   4.976   1.743  15.416 -0.6272  1.8774 -0.2801
16481TIP3   OH270933   5.255   6.850  11.838 -0.1103  0.4123 -0.4558
16481TIP3    H170934   5.337   6.899  11.847 -0.5582  1.0301  0.5267
16481TIP3    H270935   5.187   6.917  11.845 -0.7022 -0.1319 -0.9725
16482TIP3   OH270936   3.895   4.812  14.907  0.2073 -0.6534 -0.2139
16482TIP3    H170937   3.858   4.898  14.889  2.3731  0.5202  0.5016
16482TIP3    H270938   3.905   4.810  15.002  4.4887  0.3995 -0.4261
16483TIP3   OH270939   1.393   3.224   3.684 -0.1551  0.4069 -0.3779
16483TIP3    H170940   1.313   3.274   3.702  0.5818  1.5169 -0.0435
16483TIP3    H270941   1.463   3.286   3.700  0.7799 -0.5269 -0.7565
16484TIP3   OH270942   4.038   1.264  11.772  0.4577  0.6716 -0.5956
16484TIP3    H170943   4.060   1.270  11.679  1.0151 -0.4755 -0.5616
16484TIP3    H270944   4.116   1.225  11.812  0.2322  1.1834  0.3566
16485TIP3   OH270945   0.667   3.388  10.897 -0.3493  0.6768 -0.4598
16485TIP3    H170946   0.575   3.415  10.897 -0.4962  0.2444 -2.0002
16485TIP3    H270947   0.664   3.294  10.880  0.3566  0.4523  0.5315
16486TIP3   OH270948   4.893   3.159  10.814  0.3608  0.1913  0.1382
16486TIP3    H170949   4.945   3.120  10.884  0.2738  0.4447  0.3438
16486TIP3    H270950   4.929   3.120  10.734 -1.4079 -2.3091  0.4447
16487TIP3   OH270951   4.243   0.011  15.527  0.1298  0.4814 -0.5694
16487TIP3    H170952   4.296  -0.034  15.593  0.1264 -0.6131 -1.2844
16487TIP3    H270953   4.224   0.097  15.566  0.3687 -0.0256  0.7222
16488TIP3   OH270954   1.003   0.003   5.409 -0.3326 -0.6126  0.4500
16488TIP3    H170955   1.026   0.027   5.319  0.4347 -0.7927  0.5969
16488TIP3    H270956   0.959  -0.081   5.401  0.4696 -1.0211  0.3246
16489TIP3   OH270957   4.001   3.415   5.198 -0.0863  0.4781  0.2691
16489TIP3    H170958   4.073   3.378   5.248  0.6184  0.1162 -0.9843
16489TIP3    H270959   4.035   3.498   5.165 -0.3742  0.4961  0.0116
16490TIP3   OH270960   3.613   4.918  15.133 -0.1724 -0.0499  0.0940
16490TIP3    H170961   3.658   4.978  15.193  1.1628 -1.0259  0.1096
16490TIP3    H270962   3.593   4.841  15.186  2.9068 -1.8525 -1.0295
16491TIP3   OH270963   5.747   4.430   6.637 -0.6627  0.1925  0.1203
16491TIP3    H170964   5.721   4.455   6.549 -1.8780 -0.4649  0.2796
16491TIP3    H270965   5.840   4.456   6.643 -0.1481 -1.0591 -1.8259
16492TIP3   OH270966   2.506   4.768  14.845 -0.5492  0.2301 -0.1459
16492TIP3    H170967   2.600   4.749  14.851 -1.0876 -3.0642 -0.2639
16492TIP3    H270968   2.502   4.855  14.805  2.4464  0.3607 -0.3989
16493TIP3   OH270969   3.742   1.010   6.483  0.4073 -0.1870 -0.1836
16493TIP3    H170970   3.761   1.103   6.491 -0.3648 -0.0217 -0.1897
16493TIP3    H270971   3.826   0.970   6.462  0.8730  0.4157  0.5071
16494TIP3   OH270972   1.267   3.842  10.629  0.1907 -0.7624  0.7478
16494TIP3    H170973   1.254   3.929  10.665 -0.5215 -1.1146  1.3665
16494TIP3    H270974   1.194   3.830  10.568 -1.7991 -2.1985  3.1833
16495TIP3   OH270975   1.813   0.287  11.429 -0.4870  0.4570 -0.6075
16495TIP3    H170976   1.879   0.316  11.367 -0.4320 -0.7131 -1.1268
16495TIP3    H270977   1.742   0.253  11.375 -0.4428 -0.5780 -0.0598
16496TIP3   OH270978   2.983   0.827  12.393 -0.1703  0.0622  0.3714
16496TIP3    H170979   2.992   0.916  12.361  1.5468 -0.8702 -1.9876
16496TIP3    H270980   2.936   0.836  12.476 -0.0063  3.1288  0.2303
16497TIP3   OH270981   1.423   4.350  10.290 -0.7399 -0.0804  0.0037
16497TIP3    H170982   1.438   4.256  10.290  1.9383  0.2633 -0.5923
16497TIP3    H270983   1.509   4.388  10.272 -1.2375  2.5664  2.5258
16498TIP3   OH270984   2.924   3.119  11.228  0.0258 -0.1891  0.3401
16498TIP3    H170985   2.976   3.199  11.234  0.5813 -0.5110 -0.0506
16498TIP3    H270986   2.838   3.143  11.262  0.7599  0.0410  2.1307
16499TIP3   OH270987   3.181   5.918   3.818  0.2690  0.2741 -0.1440
16499TIP3    H170988   3.146   5.836   3.782 -0.4988 -0.8709  2.8580
16499TIP3    H270989   3.230   5.957   3.746 -0.6692 -2.0184 -2.1803
16500TIP3   OH270990   4.699   6.217   2.459  0.4785 -0.4970 -0.0259
16500TIP3    H170991   4.776   6.266   2.487  0.5070  0.5173 -1.7583
16500TIP3    H270992   4.635   6.231   2.529  0.8869  1.0600  0.0623
16501TIP3   OH270993   2.944   3.057  13.881  0.1026 -0.2639 -0.2405
16501TIP3    H170994   3.014   2.992  13.891  0.1468 -0.6085 -2.4167
16501TIP3    H270995   2.979   3.122  13.820 -1.7223 -0.9065 -2.0850
16502TIP3   OH270996   2.139   3.066  13.977 -0.2849  0.5042 -0.3153
16502TIP3    H170997   2.180   3.103  14.056  1.0232 -1.5677  0.0343
16502TIP3    H270998   2.212   3.043  13.920 -1.1394  0.1535 -1.3001
16503TIP3   OH270999   2.291   5.024   6.330  0.4095  0.2975  0.3149
16503TIP3    H171000   2.199   5.017   6.305  0.6881  0.0428 -0.6882
16503TIP3    H271001   2.326   5.094   6.275  0.3510  1.8908  2.1705
16504TIP3   OH271002   4.116   3.808   3.574 -0.4615  0.0616 -0.7378
16504TIP3    H171003   4.044   3.861   3.606 -0.2378  1.1303 -1.9117
16504TIP3    H271004   4.171   3.869   3.525  0.1882 -1.1108 -1.5329
16505TIP3   OH271005   0.026   4.262   2.643  0.2959  0.6852  0.2231
16505TIP3    H171006   0.081   4.339   2.648 -0.6224  1.3435  0.4353
16505TIP3    H271007   0.064   4.209   2.574  1.8992  0.5472  1.1661
16506TIP3   OH271008   3.088   6.544  14.225  0.0712 -0.4977  0.2236
16506TIP3    H171009   3.147   6.469  14.229  0.1093 -0.5216 -0.5366
16506TIP3    H271010   3.017   6.523  14.285  0.5811 -0.6969  0.7616
16507TIP3   OH271011   3.741   4.428  16.672  0.2120 -0.4142 -0.0938
16507TIP3    H171012   3.825   4.386  16.689 -0.2269 -1.3563 -0.1800
16507TIP3    H271013   3.745   4.456  16.581  0.6640  0.1336  0.0836
16508TIP3   OH271014   1.482   0.221   5.594 -0.1766  0.1722 -0.1399
16508TIP3    H171015   1.437   0.304   5.584 -1.5659 -0.4654  0.4428
16508TIP3    H271016   1.411   0.156   5.603  0.8574 -1.0127 -0.1813
16509TIP3   OH271017   5.474   4.767  11.671  0.7500 -0.1247  0.0990
16509TIP3    H171018   5.431   4.822  11.605  1.7029  0.8653  0.2630
16509TIP3    H271019   5.563   4.803  11.677  1.3103 -1.5059  0.4390
16510TIP3   OH271020   2.044   4.715   6.142 -0.2299 -0.8108  0.4863
16510TIP3    H171021   1.954   4.684   6.138  0.7816 -3.9837 -0.8530
16510TIP3    H271022   2.086   4.657   6.206  0.7349  1.2078  1.7886
16511TIP3   OH271023   3.766   2.658   6.589  0.4720 -0.4640 -0.8258
16511TIP3    H171024   3.714   2.653   6.669 -0.8549 -1.8918 -1.7284
16511TIP3    H271025   3.708   2.697   6.524  0.6325 -1.6377 -1.7217
16512TIP3   OH271026   6.328   1.247  16.563 -0.5300 -0.2348 -0.5918
16512TIP3    H171027   6.374   1.313  16.511 -1.5502  0.3852 -0.7417
16512TIP3    H271028   6.397   1.192  16.599  0.4825  1.7386  0.6603
16513TIP3   OH271029   4.012   0.440   2.829 -0.5309  0.8323 -0.5956
16513TIP3    H171030   3.971   0.426   2.744  1.3501 -2.2163 -1.1650
16513TIP3    H271031   4.104   0.415   2.815 -0.3007 -0.3803  2.4486
16514TIP3   OH271032   1.851   1.041   0.875  0.6055  0.6066 -0.3460
16514TIP3    H171033   1.821   0.984   0.946  1.3231 -0.0871 -0.5837
16514TIP3    H271034   1.794   1.118   0.880  0.5888  0.5255  0.9127
16515TIP3   OH271035   2.851   1.304   5.495 -0.2992 -0.2761  0.5881
16515TIP3    H171036   2.860   1.224   5.547  0.0920 -0.3535  0.4030
16515TIP3    H271037   2.822   1.274   5.409  1.8666 -0.4426 -0.1458
16516TIP3   OH271038   3.552   2.004  13.044 -0.2759 -0.0831 -0.1198
16516TIP3    H171039   3.466   1.971  13.017 -1.4212  2.1473  0.4932
16516TIP3    H271040   3.535   2.050  13.126  1.3359  1.1265 -0.4196
16517TIP3   OH271041   5.703   5.448   1.724  0.0769  0.1077 -0.3253
16517TIP3    H171042   5.705   5.543   1.736  0.1587 -0.1976  3.0992
16517TIP3    H271043   5.642   5.417   1.791 -0.3536 -2.2442 -1.7020
16518TIP3   OH271044   1.819   0.649  12.290  0.4835 -0.2887  0.4087
16518TIP3    H171045   1.914   0.650  12.298  0.4175 -1.0337  1.4397
16518TIP3    H271046   1.802   0.675  12.199  1.6568 -0.0054  0.2606
16519TIP3   OH271047   1.168   4.887  14.339  0.0934 -0.3527  0.0384
16519TIP3    H171048   1.217   4.883  14.421  2.1943 -1.4834 -1.2053
16519TIP3    H271049   1.177   4.978  14.310  0.9129 -0.3879  0.1571
16520TIP3   OH271050   3.906   4.584  12.687 -0.5461  0.1630  0.4686
16520TIP3    H171051   3.969   4.656  12.692 -0.4328  0.0997  0.0384
16520TIP3    H271052   3.947   4.520  12.628 -1.1710  0.2992 -0.1347
16521TIP3   OH271053   4.190   4.999   5.664  0.0493  0.0893 -0.5088
16521TIP3    H171054   4.194   5.090   5.634  0.4422 -0.1420 -1.1996
16521TIP3    H271055   4.268   4.958   5.626  0.0959 -0.4417  0.1310
16522TIP3   OH271056   0.995   5.516  14.930  0.3373 -0.1985  0.0628
16522TIP3    H171057   1.009   5.528  14.836 -0.0536 -1.6508 -0.2059
16522TIP3    H271058   1.067   5.460  14.958  0.9223  0.8975  0.8203
16523TIP3   OH271059   2.207   2.030   1.730 -0.4602 -0.0637  0.2695
16523TIP3    H171060   2.217   1.949   1.681  1.3669 -0.8970  1.8958
16523TIP3    H271061   2.225   2.006   1.821 -2.0345  1.7505  1.1442
16524TIP3   OH271062   0.837   1.856   4.534  0.0654 -0.4549 -0.0213
16524TIP3    H171063   0.882   1.777   4.565 -0.6092 -0.7370  0.2656
16524TIP3    H271064   0.907   1.920   4.522  0.5157 -0.7989  0.6834
16525TIP3   OH271065   5.072   2.173  10.682 -0.4350  0.2874 -0.5486
16525TIP3    H171066   5.025   2.107  10.631 -0.1248 -0.4471  0.1050
16525TIP3    H271067   5.157   2.180  10.639 -0.2290 -0.2195 -0.2289
16526TIP3   OH271068   2.652   5.368   3.091 -0.5174  0.4471 -0.4645
16526TIP3    H171069   2.723   5.309   3.067 -0.8327  0.0480 -0.4326
16526TIP3    H271070   2.594   5.314   3.146 -1.1636  0.5901 -1.0000
16527TIP3   OH271071   4.164   6.626   2.844 -0.4861  0.5358  0.1964
16527TIP3    H171072   4.105   6.577   2.786  1.2510  0.9915 -2.1073
16527TIP3    H271073   4.107   6.660   2.913 -2.6473 -0.2968 -1.0758
16528TIP3   OH271074   0.719   4.832  15.836  0.6485  0.8789 -0.2047
16528TIP3    H171075   0.756   4.794  15.916 -1.6693 -2.0591 -0.3784
16528TIP3    H271076   0.781   4.808  15.767  0.7729  0.0856  0.1678
16529TIP3   OH271077   2.307   0.799   1.213 -0.1921 -0.0124  0.4040
16529TIP3    H171078   2.319   0.741   1.288  1.0805 -0.7264 -0.3184
16529TIP3    H271079   2.327   0.887   1.247  2.0666 -0.5203  0.5377
16530TIP3   OH271080   6.487   5.786   2.011 -0.4554  0.4989  0.0446
16530TIP3    H171081   6.419   5.735   1.969 -0.5019 -1.0921  1.8977
16530TIP3    H271082   6.440   5.842   2.073 -0.2506  1.3515 -0.5549
16531TIP3   OH271083   0.981   3.293  17.062  0.5048 -0.3713  0.7565
16531TIP3    H171084   0.887   3.305  17.047  0.7629  0.4427 -0.2925
16531TIP3    H271085   1.011   3.245  16.985  1.1843  0.5283  0.4552
16532TIP3   OH271086   0.971   3.222   4.515 -0.2017 -0.0364  0.0245
16532TIP3    H171087   0.978   3.129   4.537 -0.0378  0.1512  0.7764
16532TIP3    H271088   1.050   3.240   4.463  0.3242 -0.0646  0.7999
16533TIP3   OH271089   6.695   0.111   1.345  0.5659 -0.2198  0.1620
16533TIP3    H171090   6.687   0.176   1.274 -0.7918 -1.1513 -0.5949
16533TIP3    H271091   6.736   0.035   1.304  1.8252  0.0119  0.9577
16534TIP3   OH271092   3.168   2.391   1.273  0.3773 -0.4694 -0.1658
16534TIP3    H171093   3.086   2.372   1.319 -0.5359  2.2392 -0.4863
16534TIP3    H271094   3.143   2.393   1.180  0.6783  0.8159 -0.2291
16535TIP3   OH271095   3.295   0.435   3.649  0.0023  0.1285 -0.1495
16535TIP3    H171096   3.334   0.491   3.717  0.2772 -0.0619 -0.1490
16535TIP3    H271097   3.355   0.360   3.643  0.7762  0.8338 -1.6146
16536TIP3   OH271098   5.597   2.076   2.817 -0.2664 -0.0420  0.1816
16536TIP3    H171099   5.647   2.077   2.899 -1.3344  0.2133  0.8489
16536TIP3    H271100   5.515   2.120   2.839 -0.3583  0.4952 -1.1713
16537TIP3   OH271101   5.860   2.847   4.072  0.1984 -0.2719  0.3622
16537TIP3    H171102   5.854   2.925   4.016  0.0036 -1.4535 -1.3336
16537TIP3    H271103   5.954   2.835   4.086  0.3915 -1.0271 -1.3360
16538TIP3   OH271104   5.174   3.387  11.740  0.1011 -0.7977  0.7371
16538TIP3    H171105   5.103   3.425  11.792 -0.7927 -0.7371 -0.5040
16538TIP3    H271106   5.135   3.312  11.697  0.9215 -1.0339  0.3923
16539TIP3   OH271107   6.768   1.227   4.842  0.3766  0.3458 -0.5839
16539TIP3    H171108   6.682   1.221   4.801 -0.0851  3.1456 -0.1751
16539TIP3    H271109   6.829   1.204   4.772 -0.6010 -0.2375 -1.2829
16540TIP3   OH271110   2.359   0.626   3.094  1.0119 -0.1841 -0.1312
16540TIP3    H171111   2.301   0.701   3.074  1.3664  0.4646  1.1582
16540TIP3    H271112   2.299   0.554   3.113  0.6531  0.0029 -0.5328
16541TIP3   OH271113   1.493   0.786  12.330  0.0417 -0.0062  0.5370
16541TIP3    H171114   1.520   0.877  12.341 -0.5086  0.3599 -0.9007
16541TIP3    H271115   1.573   0.735  12.345  0.4065  0.7297  1.1398
16542TIP3   OH271116   1.093   5.616  15.554 -0.2900 -0.0985  0.3500
16542TIP3    H171117   1.089   5.687  15.490 -0.9994 -1.3750 -1.0970
16542TIP3    H271118   1.170   5.635  15.607 -0.4158  1.6828 -0.0610
16543TIP3   OH271119   2.132   1.000   0.963  0.3224 -0.0637  0.4244
16543TIP3    H171120   2.125   1.017   1.057 -0.3789  0.8461  0.2275
16543TIP3    H271121   2.044   1.017   0.929  0.3619 -1.1972 -0.2789
16544TIP3   OH271122   0.496   3.898   0.262 -0.0942 -0.4027 -0.1850
16544TIP3    H171123   0.423   3.954   0.237  0.5475 -0.1447 -1.5935
16544TIP3    H271124   0.473   3.865   0.349 -0.7435  1.6275  0.4857
16545TIP3   OH271125   0.580   5.600   1.496  0.2093  0.7219  0.2499
16545TIP3    H171126   0.583   5.506   1.516  1.1741  0.5961 -0.4201
16545TIP3    H271127   0.490   5.615   1.466  0.1678 -0.0910 -0.0764
16546TIP3   OH271128   1.157   6.009  12.799  0.3179 -0.4750  0.2560
16546TIP3    H171129   1.118   6.093  12.822  1.5577 -0.1618  1.3245
16546TIP3    H271130   1.122   5.989  12.712 -1.3213  0.2972  0.7132
16547TIP3   OH271131   3.717   1.369  13.874  0.4754  0.1731 -0.6673
16547TIP3    H171132   3.762   1.439  13.921  2.2546  0.1862 -2.3105
16547TIP3    H271133   3.717   1.295  13.935 -0.1060  1.1116  0.5155
16548TIP3   OH271134   6.421   6.272  13.741 -0.8510  0.1959  0.7559
16548TIP3    H171135   6.382   6.205  13.684 -0.5521  0.6358  0.0246
16548TIP3    H271136   6.445   6.224  13.821 -0.6499 -0.5687  0.2496
16549TIP3   OH271137   0.147   4.468  16.084  0.0997  0.0863  0.0133
16549TIP3    H171138   0.147   4.445  16.177  1.0666 -2.1425 -0.4855
16549TIP3    H271139   0.055   4.485  16.064  0.1212  3.2822  1.8968
16550TIP3   OH271140   3.369   2.255   3.983  0.4423  0.0148 -0.5311
16550TIP3    H171141   3.398   2.247   3.892 -0.7727  0.0781 -0.9484
16550TIP3    H271142   3.447   2.236   4.035  1.3341  0.6756 -1.5785
16551TIP3   OH271143   0.075   4.226  11.342  0.2117 -0.0356  0.5416
16551TIP3    H171144   0.069   4.251  11.250  0.7788  0.3794  0.6126
16551TIP3    H271145   0.071   4.131  11.342 -2.8345 -0.0008  0.3210
16552TIP3   OH271146   2.232   6.615   0.001  0.6188  0.0795  0.0013
16552TIP3    H171147   2.187   6.643  -0.078  0.8180 -1.8300 -0.8412
16552TIP3    H271148   2.184   6.658   0.072  0.8013  2.3165 -1.1184
16553TIP3   OH271149   1.162   2.020   0.225  0.3399 -1.1895  0.3709
16553TIP3    H171150   1.129   1.965   0.154  3.2986  0.7518 -2.8509
16553TIP3    H271151   1.103   2.096   0.225  0.4179 -1.1211 -0.1907
16554TIP3   OH271152   2.136   0.769   5.938 -0.1935 -0.2992  0.0729
16554TIP3    H171153   2.109   0.677   5.940  0.8708 -0.6297  0.0635
16554TIP3    H271154   2.162   0.788   6.028  0.0101 -0.1514 -0.0154
16555TIP3   OH271155   2.117   1.178   0.214 -0.5273  0.4879 -0.1100
16555TIP3    H171156   2.162   1.239   0.273 -0.1626 -1.3934  1.6690
16555TIP3    H271157   2.035   1.222   0.193 -0.3310  1.5605  1.2002
16556TIP3   OH271158   2.274   0.138   1.824  0.6243  0.2456  0.4288
16556TIP3    H171159   2.285   0.172   1.735  3.1880 -0.9037  0.2239
16556TIP3    H271160   2.222   0.059   1.813 -2.1057  1.8967  0.4705
16557TIP3   OH271161   4.984   3.083   4.795 -0.3553  0.3172 -0.0126
16557TIP3    H171162   4.937   3.007   4.762  0.4711  0.6214 -2.0443
16557TIP3    H271163   5.033   3.050   4.870 -0.4270 -1.0499 -0.5352
16558TIP3   OH271164   5.057   2.383   4.225 -0.4153 -0.1105 -0.0045
16558TIP3    H171165   4.976   2.413   4.184 -0.0958 -0.7445 -1.1374
16558TIP3    H271166   5.126   2.428   4.177 -0.0327 -0.9083 -0.2270
16559TIP3   OH271167   3.426   3.108  15.698 -0.1783  0.8381  0.1404
16559TIP3    H171168   3.443   3.196  15.732 -1.3102  1.4134 -0.7074
16559TIP3    H271169   3.340   3.084  15.734  0.1517  0.0321  0.4258
16560TIP3   OH271170   2.904   6.839  13.687  0.1270  0.2691  0.2841
16560TIP3    H171171   2.983   6.787  13.668  0.2896 -0.3252  2.3928
16560TIP3    H271172   2.935   6.929  13.687  0.8348  0.0438  1.1072
16561TIP3   OH271173   4.462   2.118   5.874  0.0296 -0.3624 -0.1605
16561TIP3    H171174   4.392   2.091   5.934  0.5907  0.0607  0.7005
16561TIP3    H271175   4.540   2.122   5.929  0.5987 -0.1534 -0.9696
16562TIP3   OH271176   2.090   4.470   2.195  0.0762 -0.6470  0.7119
16562TIP3    H171177   2.065   4.432   2.110  0.2580 -1.2394  0.9157
16562TIP3    H271178   2.026   4.540   2.210  0.7685  0.2732 -0.4773
16563TIP3   OH271179   2.126   3.677   5.782 -0.1161 -0.3693 -0.3206
16563TIP3    H171180   2.064   3.610   5.814 -1.0846  1.3690  1.7255
16563TIP3    H271181   2.111   3.752   5.840  1.2662  1.4687 -2.2286
16564TIP3   OH271182   1.061   5.539   5.192 -0.4003  0.2992  0.4150
16564TIP3    H171183   1.004   5.543   5.115  0.7510  0.5913 -0.4514
16564TIP3    H271184   1.045   5.452   5.229 -0.3751 -0.1833 -0.6431
16565TIP3   OH271185   4.477   5.046  13.187 -0.0020  0.5930 -0.2980
16565TIP3    H171186   4.544   5.059  13.255 -0.8986 -0.0217  0.7177
16565TIP3    H271187   4.509   4.971  13.137  0.1262  0.3596  0.1213
16566TIP3   OH271188   2.117   3.675  17.079  0.6325 -0.4968  0.3041
16566TIP3    H171189   2.175   3.612  17.037 -1.6131 -1.9604 -0.8061
16566TIP3    H271190   2.076   3.722  17.007 -2.2363 -2.0746  0.7457
16567TIP3   OH271191   5.127   4.826   6.018 -0.1964  0.0719 -0.3782
16567TIP3    H171192   5.117   4.731   6.013  0.1644  0.0012  0.1529
16567TIP3    H271193   5.182   4.840   6.095 -0.6243  0.7363 -0.1833
16568TIP3   OH271194   2.226   6.690   1.318  0.5035  0.0746  1.0013
16568TIP3    H171195   2.252   6.606   1.279  0.9006  0.1777  1.0345
16568TIP3    H271196   2.263   6.688   1.406  0.6343  0.3392  0.9541
16569TIP3   OH271197   4.414   0.740  17.088  0.0240  0.4782  0.4268
16569TIP3    H171198   4.374   0.823  17.060 -2.2159 -0.7497 -0.2751
16569TIP3    H271199   4.458   0.707  17.009  0.7916  0.9068  0.6657
16570TIP3   OH271200   3.882   4.279   3.326  0.0428  0.8651 -0.6675
16570TIP3    H171201   3.833   4.215   3.377 -0.1652  0.5964 -1.1992
16570TIP3    H271202   3.921   4.337   3.391 -0.2233  0.5281 -0.2059
16571TIP3   OH271203   0.341   5.401  13.822  0.2259  0.7655  0.7529
16571TIP3    H171204   0.384   5.484  13.841  0.4104  0.8972 -0.1879
16571TIP3    H271205   0.327   5.360  13.908  2.0486  0.7960  1.0976
16572TIP3   OH271206   1.145   5.720  11.127 -0.0510  0.3246  0.0222
16572TIP3    H171207   1.134   5.802  11.078  0.8842  0.2948 -0.2495
16572TIP3    H271208   1.124   5.744  11.217  2.1934  1.3976  0.3227
16573TIP3   OH271209   0.456   5.668   0.386 -0.2589  0.4336 -0.1759
16573TIP3    H171210   0.423   5.751   0.353  1.2012  0.5252 -1.5416
16573TIP3    H271211   0.456   5.610   0.310  0.4107 -0.2569  0.3311
16574TIP3   OH271212   4.596   1.329   1.493 -0.0510  0.0207  0.4152
16574TIP3    H171213   4.544   1.317   1.572  0.0243 -1.0751  0.3151
16574TIP3    H271214   4.583   1.248   1.443 -0.4328  0.8589 -0.8960
16575TIP3   OH271215   1.102   3.203  12.242 -0.1726 -0.2683 -0.2033
16575TIP3    H171216   1.061   3.119  12.220 -2.4931  1.0213 -1.0585
16575TIP3    H271217   1.150   3.228  12.164 -1.9807  0.5836 -1.0959
16576TIP3   OH271218   3.083   2.715  16.171 -0.0640 -0.4548 -0.0457
16576TIP3    H171219   3.139   2.790  16.151 -0.0277 -0.4160  0.1907
16576TIP3    H271220   3.088   2.660  16.093  0.6660 -0.6733  0.1414
16577TIP3   OH271221   0.091   4.430   4.294 -0.6673  0.2211 -0.0626
16577TIP3    H171222   0.027   4.378   4.344  0.7294 -0.7223  0.8084
16577TIP3    H271223   0.087   4.517   4.334 -0.5770 -0.1487  0.7659
16578TIP3   OH271224   0.233   1.462  10.930 -0.7741  0.0345  0.2040
16578TIP3    H171225   0.165   1.478  10.996 -0.1753 -1.1483  1.1383
16578TIP3    H271226   0.200   1.387  10.880  0.3765 -1.3823  1.4824
16579TIP3   OH271227   6.608   1.754  15.700 -0.0169  0.6680  0.0992
16579TIP3    H171228   6.591   1.692  15.771 -1.8064 -1.2783 -1.8960
16579TIP3    H271229   6.693   1.727  15.664  0.1218  0.6330  0.4496
16580TIP3   OH271230   5.921   5.169   5.150  0.0660 -0.0922 -0.6049
16580TIP3    H171231   5.837   5.145   5.188  0.3822  2.4524  1.9915
16580TIP3    H271232   5.899   5.233   5.082 -0.1192  1.3201  0.7355
16581TIP3   OH271233   5.293   5.734   0.406 -0.0506  1.0860  0.0020
16581TIP3    H171234   5.357   5.767   0.342 -0.5124  1.0837 -0.4716
16581TIP3    H271235   5.226   5.802   0.410 -1.0090  0.2451 -0.9769
16582TIP3   OH271236   2.678   3.190  15.835 -0.0438  0.4679  0.2795
16582TIP3    H171237   2.646   3.100  15.827 -1.0589  0.8634 -0.2930
16582TIP3    H271238   2.773   3.183  15.822 -0.3266 -0.2841 -1.7512
16583TIP3   OH271239   4.414   6.808  12.159  0.2872  0.1349  0.3540
16583TIP3    H171240   4.319   6.819  12.155  0.0114 -1.3333  1.9160
16583TIP3    H271241   4.434   6.802  12.252  1.8567 -0.0359  0.0362
16584TIP3   OH271242   1.451   2.918  11.465  0.2814 -0.5025 -0.3276
16584TIP3    H171243   1.494   2.848  11.415 -1.5696 -0.2357 -2.4599
16584TIP3    H271244   1.392   2.959  11.402  3.0066  4.7201 -0.0621
16585TIP3   OH271245   4.406   5.776   3.571  0.7062 -0.4299 -0.1773
16585TIP3    H171246   4.413   5.786   3.666 -1.0600  0.5034 -0.1104
16585TIP3    H271247   4.340   5.839   3.545 -0.0629 -1.8300 -1.8235
16586TIP3   OH271248   0.762   4.629   1.213  0.6365  0.8262  0.8694
16586TIP3    H171249   0.684   4.574   1.203  2.1561 -1.5008  1.1402
16586TIP3    H271250   0.761   4.686   1.136  0.7904 -1.9974 -1.3638
16587TIP3   OH271251   6.756   1.872   2.591  0.1898 -0.6501 -0.3293
16587TIP3    H171252   6.758   1.806   2.660 -0.0467 -0.3686 -0.0476
16587TIP3    H271253   6.721   1.950   2.634 -0.0954 -0.5112 -0.8046
16588TIP3   OH271254   5.195   2.017   4.485 -0.2875  0.3053 -0.3482
16588TIP3    H171255   5.236   2.097   4.518  0.3333  0.3051 -1.0826
16588TIP3    H271256   5.123   1.999   4.545  0.0796  0.9629  0.2894
16589TIP3   OH271257   1.872   4.887  12.492 -0.1721  0.5837 -0.6008
16589TIP3    H171258   1.873   4.981  12.513  0.9137  0.6634 -0.9529
16589TIP3    H271259   1.781   4.861  12.504 -0.0651  1.1070  2.0128
16590TIP3   OH271260   2.439   1.084   5.951 -0.2050  0.0111 -1.0263
16590TIP3    H171261   2.447   1.019   6.021 -1.7286  0.6432 -0.2102
16590TIP3    H271262   2.490   1.159   5.981  1.3591 -0.6668 -1.8620
16591TIP3   OH271263   2.373   2.882   4.090  0.2533  0.0849 -0.2253
16591TIP3    H171264   2.294   2.827   4.089 -0.4166  0.9465  1.1845
16591TIP3    H271265   2.410   2.872   4.003 -0.7802 -1.2494 -0.5606
16592TIP3   OH271266   4.825   3.909   1.146 -0.5898 -0.3401  0.1252
16592TIP3    H171267   4.860   3.837   1.199  0.4020  2.2107  3.2701
16592TIP3    H271268   4.899   3.969   1.137 -2.2877  2.0437  1.0294
16593TIP3   OH271269   6.321   5.720  16.405 -0.1664 -0.3841 -0.2853
16593TIP3    H171270   6.301   5.804  16.445 -1.9745 -1.4433  1.2166
16593TIP3    H271271   6.292   5.730  16.314 -2.1020  0.0887  0.3329
16594TIP3   OH271272   5.322   3.108  11.160 -0.0918  0.3751  0.1725
16594TIP3    H171273   5.417   3.096  11.172  0.1484  0.6968 -1.2333
16594TIP3    H271274   5.313   3.200  11.135 -0.8202  0.4345  0.6286
16595TIP3   OH271275   0.511   6.038   1.390  0.4632 -0.0125 -0.2656
16595TIP3    H171276   0.549   5.967   1.440  0.8087  0.9196  0.8414
16595TIP3    H271277   0.571   6.051   1.316 -0.4201 -1.8604 -1.3868
16596TIP3   OH271278   5.435   3.045   3.799  0.5906 -0.2915 -0.6457
16596TIP3    H171279   5.413   2.972   3.856  0.2755  0.4418  0.1969
16596TIP3    H271280   5.350   3.075   3.764  0.4904  0.7694  0.4141
16597TIP3   OH271281   5.166   4.392   0.204  0.8130 -0.0452  0.3011
16597TIP3    H171282   5.153   4.451   0.130  0.2994  3.1605  2.7011
16597TIP3    H271283   5.212   4.316   0.167  2.3203  2.1990 -2.9142
16598TIP3   OH271284   6.400   3.455   1.825  0.2486 -0.1190  0.2284
16598TIP3    H171285   6.311   3.485   1.808 -0.1413 -1.2147  0.3077
16598TIP3    H271286   6.390   3.367   1.861  1.4154 -0.7410 -0.8951
16599TIP3   OH271287   5.336   5.015  12.378 -1.0201 -0.6776 -0.1712
16599TIP3    H171288   5.332   4.978  12.290 -0.8239  0.0763 -0.5026
16599TIP3    H271289   5.277   5.090  12.375  1.3208  1.2962 -0.6238
16600TIP3   OH271290   6.799   4.513  16.456  0.1885  0.4874  0.2461
16600TIP3    H171291   6.876   4.458  16.471  0.1029  0.7018  1.6196
16600TIP3    H271292   6.726   4.460  16.489 -0.1464  0.6248 -0.2709
16601TIP3   OH271293   3.380   2.940   3.509  0.2223 -0.0178 -0.2787
16601TIP3    H171294   3.309   2.895   3.462 -0.2769  0.8585 -0.3874
16601TIP3    H271295   3.458   2.925   3.456 -0.4134  1.3289 -1.6675
16602TIP3   OH271296   5.736   3.910  12.572  0.3093  0.0228 -0.5474
16602TIP3    H171297   5.750   3.829  12.622 -0.4450 -0.2669 -0.8079
16602TIP3    H271298   5.780   3.895  12.489  0.0770 -0.1598 -0.6369
16603TIP3   OH271299   0.397   1.149  11.922  0.4513 -0.6725  0.4718
16603TIP3    H171300   0.336   1.142  11.996 -0.2811  0.3314 -0.0022
16603TIP3    H271301   0.341   1.138  11.844  0.5208  1.8969 -0.0278
16604TIP3   OH271302   5.077   4.225   2.999 -0.1681 -0.3812  0.3863
16604TIP3    H171303   5.121   4.274   3.069  1.4793 -0.5813 -0.4622
16604TIP3    H271304   4.996   4.272   2.984  0.2353  0.6394  1.2877
16605TIP3   OH271305   4.833   5.424   5.578 -0.3154 -0.1206  0.3344
16605TIP3    H171306   4.896   5.386   5.639  0.5938  1.1710  0.2307
16605TIP3    H271307   4.752   5.430   5.629 -0.4858 -2.1092  0.3631
16606TIP3   OH271308   1.321   6.032   3.714  0.0381 -0.5136  0.2848
16606TIP3    H171309   1.346   6.124   3.708 -0.0125 -0.5364 -0.3891
16606TIP3    H271310   1.233   6.034   3.752 -0.6088 -0.1688 -1.1572
16607TIP3   OH271311   4.449   4.092   3.891 -0.1101  0.0281 -0.1314
16607TIP3    H171312   4.406   4.015   3.928 -0.9674  1.8632  3.0460
16607TIP3    H271313   4.377   4.146   3.858  0.4389 -0.1550 -1.7267
16608TIP3   OH271314   2.680   0.778   3.337 -0.1946  0.0905  0.6388
16608TIP3    H171315   2.671   0.683   3.333 -1.0353  0.1660  0.5153
16608TIP3    H271316   2.757   0.792   3.392 -0.3918 -0.6549  1.1306
16609TIP3   OH271317   2.221   0.845  10.593  0.2284 -0.3047 -0.2327
16609TIP3    H171318   2.152   0.797  10.638 -0.3756 -0.0137 -0.8244
16609TIP3    H271319   2.214   0.935  10.626  0.9765 -0.4782  0.4393
16610TIP3   OH271320   5.991   5.786  10.867  0.3958  0.2207 -0.1197
16610TIP3    H171321   6.014   5.742  10.950  0.2325  0.1195 -0.1288
16610TIP3    H271322   5.898   5.767  10.854  0.2489  0.8026  0.0187
16611TIP3   OH271323   4.253   2.578   0.218  0.4654 -0.3341  0.3422
16611TIP3    H171324   4.332   2.524   0.216  0.5050 -0.2974 -2.1117
16611TIP3    H271325   4.199   2.545   0.147  0.1224  2.2670 -0.7252
16612TIP3   OH271326   5.972   1.849  13.934  0.0527 -0.7069 -0.7377
16612TIP3    H171327   5.887   1.824  13.898  1.1862 -2.0283 -2.7081
16612TIP3    H271328   6.027   1.863  13.857  1.7149 -0.2336  0.4793
16613TIP3   OH271329   5.962   2.065   4.484  0.9688 -0.3393  0.0721
16613TIP3    H171330   5.901   2.037   4.415  0.3088  1.5835 -0.1878
16613TIP3    H271331   5.907   2.073   4.562  0.7556  1.7104 -0.2352
16614TIP3   OH271332   4.114   1.876   0.748 -0.1605  0.2537 -0.1862
16614TIP3    H171333   4.159   1.894   0.665  0.0063 -0.4151 -0.2429
16614TIP3    H271334   4.036   1.931   0.745  1.0987  2.1898  0.3359
16615TIP3   OH271335   0.718   2.618  14.548  0.3715  0.0524  0.1819
16615TIP3    H171336   0.682   2.651  14.466 -1.7817  0.1098  1.0883
16615TIP3    H271337   0.729   2.697  14.602  0.4155 -0.1340  0.4468
16616TIP3   OH271338   4.917   0.988  14.528 -0.2535  0.1354 -0.5025
16616TIP3    H171339   5.000   0.970  14.572 -0.6007 -0.8043 -0.1958
16616TIP3    H271340   4.893   1.076  14.557 -1.4071 -1.1050  2.7864
16617TIP3   OH271341   2.088   4.525  12.640  0.1736 -0.3675 -0.1267
16617TIP3    H171342   2.128   4.600  12.684 -2.0428  0.8921 -0.0938
16617TIP3    H271343   2.023   4.564  12.581 -0.3638 -2.2367 -0.8290
16618TIP3   OH271344   0.916   0.767   2.952  0.1630  0.3345 -0.0072
16618TIP3    H171345   0.839   0.712   2.967  0.4713  0.4388  2.4106
16618TIP3    H271346   0.895   0.850   2.996  0.0372  1.9341 -2.8807
16619TIP3   OH271347   3.807   5.473  12.619 -0.0381  0.0626  0.3512
16619TIP3    H171348   3.816   5.389  12.663 -0.2020  0.9847  2.2608
16619TIP3    H271349   3.873   5.529  12.659  0.4539  0.7272 -1.2767
16620TIP3   OH271350   6.373   5.523   1.882  0.3864  0.2005  0.3446
16620TIP3    H171351   6.315   5.560   1.949  1.1653  0.4787  0.8850
16620TIP3    H271352   6.363   5.429   1.891  1.1321  0.2006  1.4774
16621TIP3   OH271353   0.768   1.398  14.873 -0.2378  0.1671 -0.0410
16621TIP3    H171354   0.801   1.308  14.879 -0.6211 -0.0641 -1.1951
16621TIP3    H271355   0.727   1.414  14.958 -1.0340 -1.0985 -0.1624
16622TIP3   OH271356   2.978   0.093  11.015 -0.1242  0.3209  0.1813
16622TIP3    H171357   2.998   0.169  10.960 -0.0090  2.0526  2.4775
16622TIP3    H271358   2.948   0.130  11.098 -0.5974 -2.1719  1.2281
16623TIP3   OH271359   0.998   1.031   2.217  0.8066 -0.3473 -0.0839
16623TIP3    H171360   1.071   0.982   2.178  0.2877 -0.8517 -0.4329
16623TIP3    H271361   0.971   0.978   2.292 -1.3198 -1.9266 -1.8213
16624TIP3   OH271362   6.001   3.747   4.515  0.0759 -0.0749  0.3537
16624TIP3    H171363   6.094   3.753   4.496 -0.1358 -0.2412 -0.8483
16624TIP3    H271364   5.977   3.657   4.493 -0.5229  0.2004 -0.1817
16625TIP3   OH271365   1.272   2.406   4.678 -0.1797 -0.2519 -0.2749
16625TIP3    H171366   1.210   2.479   4.681  0.9618  0.7581 -0.1304
16625TIP3    H271367   1.256   2.357   4.759  0.8362  1.4444  1.0346
16626TIP3   OH271368   4.979   1.655  13.392  0.5921  0.4692  0.1645
16626TIP3    H171369   4.997   1.720  13.323  0.5470 -0.6940 -0.9811
16626TIP3    H271370   4.887   1.667  13.413 -0.0893 -0.7887 -1.8048
16627TIP3   OH271371   1.448   3.792   3.216  0.0311 -0.3587  0.5069
16627TIP3    H171372   1.504   3.818   3.143  1.0064  0.7603  1.6175
16627TIP3    H271373   1.485   3.709   3.246 -0.0290 -0.5377  0.0903
16628TIP3   OH271374   6.614   1.739  13.523  0.0917 -0.4494 -0.3766
16628TIP3    H171375   6.663   1.820  13.532  0.7237 -0.7905 -0.7473
16628TIP3    H271376   6.663   1.675  13.575 -0.0088 -0.7718 -0.6751
16629TIP3   OH271377   1.201   4.372   1.512  0.3141 -0.7729  0.4442
16629TIP3    H171378   1.132   4.352   1.449  0.1727 -0.2132  0.4151
16629TIP3    H271379   1.261   4.298   1.506  0.4108 -0.6252 -0.4954
16630TIP3   OH271380   1.740   5.371  14.090  0.2457 -0.3915  0.2950
16630TIP3    H171381   1.814   5.425  14.117  0.1069 -0.1730  0.2446
16630TIP3    H271382   1.663   5.416  14.126 -0.0415  0.4737 -1.2714
16631TIP3   OH271383   0.231   6.620   1.097  0.0433 -0.0343  0.3934
16631TIP3    H171384   0.192   6.688   1.042 -0.8620 -1.5256 -0.9005
16631TIP3    H271385   0.324   6.642   1.100  0.1436  0.0585 -1.8511
16632TIP3   OH271386   3.020   2.439   4.766  0.0964  0.6220 -0.5504
16632TIP3    H171387   2.998   2.449   4.859 -0.4811 -1.2777 -0.4284
16632TIP3    H271388   2.991   2.521   4.725 -0.2465  1.2241  0.8323
16633TIP3   OH271389   2.534   1.176  14.906 -0.0964  0.0295 -0.6272
16633TIP3    H171390   2.540   1.261  14.863  0.1146 -1.0629 -2.8817
16633TIP3    H271391   2.504   1.196  14.995  1.2494  2.5440 -0.6611
16634TIP3   OH271392   6.023   5.682   2.447  0.1816  0.5105  0.1780
16634TIP3    H171393   6.018   5.597   2.492  0.9013  1.0101  1.2239
16634TIP3    H271394   5.946   5.683   2.390 -2.2975  0.9231  3.2529
16635TIP3   OH271395   6.324   6.624   4.782 -0.5920  0.4784 -0.4451
16635TIP3    H171396   6.261   6.667   4.840 -0.0989  0.7306 -0.0900
16635TIP3    H271397   6.279   6.617   4.698 -1.0970  0.6504 -0.1898
16636TIP3   OH271398   6.414   3.010   5.519 -0.3409  0.5357  0.2809
16636TIP3    H171399   6.371   3.082   5.472 -1.8714  0.4300  1.4285
16636TIP3    H271400   6.341   2.960   5.557  0.6603 -1.7026 -0.5708
16637TIP3   OH271401   6.166   3.538  12.994  0.1244 -0.1315 -0.0154
16637TIP3    H171402   6.181   3.581  12.910 -0.3404 -0.0751 -0.0673
16637TIP3    H271403   6.246   3.488  13.009  1.2715  1.7790  0.6807
16638TIP3   OH271404   5.399   1.428  13.004 -0.4896  0.1979 -0.5960
16638TIP3    H171405   5.474   1.422  12.946  0.0784 -0.2345  0.1649
16638TIP3    H271406   5.336   1.482  12.956 -0.3942 -0.8692 -1.9757
16639TIP3   OH271407   3.255   4.676  15.447 -0.2063 -0.5122  0.6383
16639TIP3    H171408   3.175   4.624  15.455 -0.9458  0.2437 -1.1758
16639TIP3    H271409   3.288   4.656  15.359  0.6701  0.4570  0.7293
16640TIP3   OH271410   4.344   0.501  13.221  0.1139  0.6494 -0.5818
16640TIP3    H171411   4.277   0.541  13.166 -0.9599 -1.1329 -0.6562
16640TIP3    H271412   4.300   0.426  13.261  1.6577  0.3035  0.5541
16641TIP3   OH271413   3.362   5.152  15.149  0.0382  0.2244  0.2380
16641TIP3    H171414   3.353   5.100  15.070  1.7984  1.3801 -0.7703
16641TIP3    H271415   3.450   5.135  15.180  0.1865  1.5736  0.6256
16642TIP3   OH271416   0.938   6.563   5.795  0.3611  0.1848  0.1326
16642TIP3    H171417   0.892   6.626   5.740  1.6569  0.1253 -1.0682
16642TIP3    H271418   0.973   6.615   5.867 -2.9286 -0.0193  2.0706
16643TIP3   OH271419   0.271   3.510  12.051 -0.0411  0.0928  0.4429
16643TIP3    H171420   0.329   3.549  11.986 -1.0922  1.2004  0.1379
16643TIP3    H271421   0.272   3.417  12.030 -0.1022  0.3836 -0.9549
16644TIP3   OH271422   1.676   1.633  12.750 -0.5059  0.2874  0.1069
16644TIP3    H171423   1.737   1.689  12.703 -0.9588 -0.6816 -1.7491
16644TIP3    H271424   1.696   1.545  12.720 -0.8994 -0.3943  1.7062
16645TIP3   OH271425   2.189   0.439   2.244 -0.5782  0.2522 -0.1376
16645TIP3    H171426   2.139   0.493   2.182 -0.8858  0.3374  0.1799
16645TIP3    H271427   2.205   0.357   2.197 -2.3415 -0.3727  0.2724
16646TIP3   OH271428   6.547   1.367  11.536  0.0678  0.4045  0.2837
16646TIP3    H171429   6.517   1.295  11.481 -1.0995  0.9567  0.1682
16646TIP3    H271430   6.605   1.419  11.479 -0.7068  0.6772 -0.2644
16647TIP3   OH271431   4.460   0.279   3.115  0.2417 -0.8363  0.2412
16647TIP3    H171432   4.371   0.263   3.083  0.0141  0.1711  0.3340
16647TIP3    H271433   4.508   0.308   3.037  0.2724 -0.5557  0.3667
16648TIP3   OH271434   4.086   4.742   4.770 -0.2212  0.3302 -0.5935
16648TIP3    H171435   4.060   4.712   4.857 -0.9069  0.6205 -0.6882
16648TIP3    H271436   4.177   4.771   4.781  0.1488 -0.8669 -0.2876
16649TIP3   OH271437   4.256   3.367   1.913  0.1909 -0.2852  0.3830
16649TIP3    H171438   4.271   3.436   1.847 -2.3642  0.1504  0.1475
16649TIP3    H271439   4.265   3.412   1.997 -1.2336  0.3376  0.2311
16650TIP3   OH271440   5.593   0.197   1.783  0.0428 -0.4336 -0.2175
16650TIP3    H171441   5.661   0.230   1.724 -1.0903 -0.3809 -1.5295
16650TIP3    H271442   5.511   0.218   1.739 -0.8067 -1.3256  0.8998
16651TIP3   OH271443   0.435   4.029  17.029 -0.4268 -0.2920  0.0825
16651TIP3    H171444   0.404   4.057  17.115  2.4080  2.7355  0.3459
16651TIP3    H271445   0.434   3.934  17.033 -1.3570 -0.2711  3.0777
16652TIP3   OH271446   0.770   3.019  11.050  0.2638  0.0742  0.3128
16652TIP3    H171447   0.692   3.013  10.995  0.4622 -0.8365  0.1229
16652TIP3    H271448   0.843   3.005  10.990  0.5684  0.6521  0.5383
16653TIP3   OH271449   1.163   4.038  15.638  0.1152  0.0733 -0.0029
16653TIP3    H171450   1.152   4.121  15.592 -0.0296 -0.5892 -1.2188
16653TIP3    H271451   1.101   3.979  15.596  0.1612 -0.6388  0.8922
16654TIP3   OH271452   0.518   5.768  17.065 -0.0224  0.0086 -0.1491
16654TIP3    H171453   0.567   5.759  16.983  1.2946 -1.2150  0.7396
16654TIP3    H271454   0.439   5.715  17.051 -0.1093  0.2964 -0.8222
16655TIP3   OH271455   6.802   5.507  15.392 -0.3376  0.2188  0.3912
16655TIP3    H171456   6.869   5.490  15.326  0.0753  1.3513  0.4914
16655TIP3    H271457   6.771   5.420  15.419  0.6066 -0.2950 -0.1474
16656TIP3   OH271458   1.429   0.465   3.720 -0.4281  0.4768 -0.7023
16656TIP3    H171459   1.406   0.393   3.662 -1.0889 -1.0176  1.3087
16656TIP3    H271460   1.525   0.468   3.718 -0.2598 -1.9596  0.8385
16657TIP3   OH271461   6.175   0.275   0.457 -0.1292 -0.4104 -0.6290
16657TIP3    H171462   6.144   0.236   0.538 -0.3652  0.0349 -0.5074
16657TIP3    H271463   6.253   0.224   0.435 -0.6073 -1.1540 -0.6317
16658TIP3   OH271464   1.315   5.124  13.265  0.0542 -0.1829  0.2317
16658TIP3    H171465   1.406   5.095  13.262  0.5613  1.0480  1.9088
16658TIP3    H271466   1.264   5.044  13.266  0.9098 -0.9472 -3.0488
16659TIP3   OH271467   6.055   6.810   0.298  0.3272 -0.1321 -0.2514
16659TIP3    H171468   6.018   6.847   0.218  0.3290  0.8279  0.1746
16659TIP3    H271469   6.061   6.884   0.358 -2.0332 -1.2371  1.5279
16660TIP3   OH271470   3.704   1.977   2.696  0.1391 -0.4613 -0.2469
16660TIP3    H171471   3.795   1.980   2.665 -0.0988 -0.4138 -0.9620
16660TIP3    H271472   3.702   2.037   2.770  0.9282 -1.2209  0.4130
16661TIP3   OH271473   5.993   2.431   6.025 -0.2695  0.3770  0.7420
16661TIP3    H171474   5.899   2.424   6.040 -0.6826  2.1996 -0.7038
16661TIP3    H271475   6.020   2.342   6.000 -2.0718  0.2965 -1.1648
16662TIP3   OH271476   0.377   1.808  15.949  0.2202 -0.5824 -0.4870
16662TIP3    H171477   0.469   1.784  15.936  0.1555 -0.4656 -1.2024
16662TIP3    H271478   0.341   1.738  16.002  1.1264  0.1997  1.2327
16663TIP3   OH271479   3.830   0.127  15.170 -0.5979 -0.2932 -0.1038
16663TIP3    H171480   3.812   0.202  15.113 -0.7448 -0.8118 -0.7527
16663TIP3    H271481   3.900   0.080  15.125 -1.9612 -1.7208 -0.8228
16664TIP3   OH271482   3.610   1.294   0.096 -0.4073 -0.0275  0.3999
16664TIP3    H171483   3.605   1.200   0.081  0.9699 -0.0687  0.0090
16664TIP3    H271484   3.570   1.307   0.182 -0.2581 -1.0240  0.6353
16665TIP3   OH271485   6.035   3.306  10.805  0.0508 -0.0601  0.3062
16665TIP3    H171486   6.058   3.362  10.730 -0.6985 -1.8063 -1.3276
16665TIP3    H271487   5.987   3.364  10.864 -1.4290  0.8798 -1.6924
16666TIP3   OH271488   4.473   1.299   3.512 -0.2832  0.3011 -0.0789
16666TIP3    H171489   4.436   1.374   3.558  1.4021  0.4289  1.1913
16666TIP3    H271490   4.479   1.326   3.421  0.3073  1.7337  0.3610
16667TIP3   OH271491   2.567   1.916  12.167 -0.3547 -0.4351 -0.8400
16667TIP3    H171492   2.627   1.842  12.177 -0.9292 -0.9260 -1.0133
16667TIP3    H271493   2.513   1.914  12.246 -0.4224 -0.2373 -0.8799
16668TIP3   OH271494   2.840   5.555  15.114 -0.4762  0.6571  0.2254
16668TIP3    H171495   2.852   5.552  15.209 -0.4881 -0.7588  0.2071
16668TIP3    H271496   2.921   5.518  15.079  0.0149  2.2346 -0.3843
16669TIP3   OH271497   5.180   0.188   6.660  0.7328 -0.0786  0.4355
16669TIP3    H171498   5.238   0.217   6.590 -0.4851  1.1577 -0.1049
16669TIP3    H271499   5.108   0.251   6.659  0.2506 -0.5558  2.2284
16670TIP3   OH271500   1.926   1.526   1.788 -0.4012 -0.8298 -0.0170
16670TIP3    H171501   1.907   1.614   1.756  0.9285 -0.8865 -1.0845
16670TIP3    H271502   2.021   1.520   1.783 -0.4522 -2.1872  0.4375
16671TIP3   OH271503   1.524   4.056   3.467  0.4629  0.2799  0.1756
16671TIP3    H171504   1.500   3.996   3.537 -1.6903 -0.3330 -1.0190
16671TIP3    H271505   1.536   4.140   3.511  0.5748 -0.3743  1.4455
16672TIP3   OH271506   6.059   1.420   5.393 -0.3941  0.2705 -0.7043
16672TIP3    H171507   6.133   1.361   5.377 -0.1059  0.6759 -0.8821
16672TIP3    H271508   6.096   1.507   5.384 -0.8490  0.4795 -0.5682
16673TIP3   OH271509   5.634   5.596   1.047  0.0800 -0.0625 -0.6101
16673TIP3    H171510   5.544   5.573   1.071  0.0454 -0.6647 -1.2578
16673TIP3    H271511   5.630   5.688   1.023 -0.2194  0.0991  0.0378
16674TIP3   OH271512   0.414   1.265   4.440  0.0091 -0.5295 -0.2663
16674TIP3    H171513   0.370   1.207   4.502 -0.4103  0.2152  0.1520
16674TIP3    H271514   0.374   1.351   4.455  0.7489 -0.0884 -0.7317
16675TIP3   OH271515   6.765   4.743   6.238 -0.3582 -0.0639 -0.0144
16675TIP3    H171516   6.739   4.653   6.218  0.7417 -0.8222  1.6977
16675TIP3    H271517   6.684   4.793   6.238 -1.1583 -1.3298  0.2988
16676TIP3   OH271518   1.894   5.800   1.902  0.1947 -0.8312 -0.4459
16676TIP3    H171519   1.810   5.845   1.895  1.0743  0.9633  0.1187
16676TIP3    H271520   1.871   5.715   1.942 -1.3044 -0.2662 -0.0151
16677TIP3   OH271521   4.660   3.008   3.367  0.0120 -0.1993  0.5151
16677TIP3    H171522   4.641   3.093   3.325  3.3299  0.1742 -0.5738
16677TIP3    H271523   4.740   3.024   3.417  0.5467 -2.6122  0.5354
16678TIP3   OH271524   1.276   2.276  16.212  0.1593 -0.2776 -0.0577
16678TIP3    H171525   1.267   2.190  16.251  0.3268 -0.9149 -1.3640
16678TIP3    H271526   1.338   2.264  16.140  0.4228  0.9945 -0.0647
16679TIP3   OH271527   3.390   1.984  11.689 -0.0069 -0.1213  0.0922
16679TIP3    H171528   3.455   1.998  11.758 -1.4219  0.6481  1.3126
16679TIP3    H271529   3.359   1.894  11.704  0.1694 -0.1942  0.0268
16680TIP3   OH271530   2.327   0.738   1.566 -0.1242  0.3835 -0.7764
16680TIP3    H171531   2.417   0.713   1.550 -0.2496  0.5236 -1.7798
16680TIP3    H271532   2.329   0.784   1.650  0.9421  1.4139 -1.3407
16681TIP3   OH271533   4.490   3.266  16.924  0.1031 -0.3232  0.4404
16681TIP3    H171534   4.503   3.178  16.887  0.3461 -1.5704  3.2354
16681TIP3    H271535   4.521   3.325  16.855 -2.0923 -2.2384 -2.4425
16682TIP3   OH271536   2.202   6.598   3.577 -0.0772 -0.2237 -0.4571
16682TIP3    H171537   2.263   6.668   3.555  0.8931 -1.4133 -1.7640
16682TIP3    H271538   2.253   6.539   3.633 -1.2540  0.6585  1.6596
16683TIP3   OH271539   1.328   3.454   1.114 -0.0306  0.2735  0.0432
16683TIP3    H171540   1.250   3.398   1.117 -0.1105  0.4006  0.4460
16683TIP3    H271541   1.401   3.396   1.131  0.3137 -0.4365 -3.2705
16684TIP3   OH271542   0.058   4.642   5.569 -0.5465  0.0990 -0.6990
16684TIP3    H171543   0.078   4.611   5.481 -0.5313 -0.5152 -0.4869
16684TIP3    H271544  -0.006   4.579   5.602 -0.5184  0.2993 -0.2561
16685TIP3   OH271545   4.757   6.013   4.183  0.2491  0.1478 -0.1336
16685TIP3    H171546   4.847   5.980   4.190  0.4295  0.3823 -1.2115
16685TIP3    H271547   4.758   6.069   4.106 -0.0020  2.9212  1.7266
16686TIP3   OH271548   1.844   1.939  12.999  0.6136  0.5892  0.2137
16686TIP3    H171549   1.835   2.015  13.056  0.7477  0.4798  0.3829
16686TIP3    H271550   1.938   1.935  12.980  0.5476  0.7142 -0.1371
16687TIP3   OH271551   5.416   3.618  16.983  0.0614  0.4761 -0.4794
16687TIP3    H171552   5.336   3.577  17.015  0.1016 -0.8531 -1.9689
16687TIP3    H271553   5.474   3.619  17.059 -1.4677  1.8474  0.7353
16688TIP3   OH271554   3.348   0.747   5.537 -0.2970  0.2384 -0.2749
16688TIP3    H171555   3.265   0.769   5.580  0.1916 -0.0093  0.8236
16688TIP3    H271556   3.400   0.706   5.606  0.6063  0.0661 -1.0524
16689TIP3   OH271557   2.360   6.404  12.125 -0.2578 -0.1566  0.1298
16689TIP3    H171558   2.275   6.368  12.152 -0.3338 -0.8243 -0.9238
16689TIP3    H271559   2.355   6.496  12.148 -0.5526 -0.5473  1.7596
16690TIP3   OH271560   5.927   4.386  15.432 -0.2580  0.0218 -0.4186
16690TIP3    H171561   6.007   4.415  15.475  1.1284  1.5168 -3.6589
16690TIP3    H271562   5.950   4.303  15.390 -1.0204 -0.4965  0.1561
16691TIP3   OH271563   2.323   5.945  14.579  0.7097 -0.1658 -0.0331
16691TIP3    H171564   2.269   5.867  14.592 -1.1671  1.0912  0.0570
16691TIP3    H271565   2.264   6.008  14.537  2.0904  1.2997  0.1469
16692TIP3   OH271566   4.059   0.962   0.595  0.1722 -0.4144  0.2281
16692TIP3    H171567   4.095   1.050   0.588  0.4295 -0.4619  0.8849
16692TIP3    H271568   3.977   0.973   0.643  0.4850 -0.5979  0.8143
16693TIP3   OH271569   3.275   1.158   6.267 -0.4653 -0.1893 -0.3334
16693TIP3    H171570   3.357   1.145   6.314 -0.1151  0.4279 -0.7668
16693TIP3    H271571   3.210   1.175   6.336  0.3860  2.5847 -0.1068
16694TIP3   OH271572   5.994   6.003  15.330 -0.1476 -0.8059 -0.2688
16694TIP3    H171573   6.015   5.993  15.423  1.4621  0.7296 -0.4039
16694TIP3    H271574   5.915   6.057  15.329  0.2345 -0.2213  0.2293
16695TIP3   OH271575   4.754   0.285  12.732 -0.3246  0.2224 -0.0158
16695TIP3    H171576   4.752   0.363  12.676 -1.2756 -0.4732 -0.9950
16695TIP3    H271577   4.846   0.262  12.738 -0.2518 -0.2546 -2.1409
16696TIP3   OH271578   0.414   0.897   1.435 -0.6982 -0.0185  0.1435
16696TIP3    H171579   0.508   0.907   1.446 -0.7255 -0.7231  1.1606
16696TIP3    H271580   0.401   0.895   1.340  0.3986 -0.7003 -0.0102
16697TIP3   OH271581   1.434   1.066   1.577  0.0740  0.2652 -0.6470
16697TIP3    H171582   1.465   1.092   1.490  0.7181  1.1323 -0.1782
16697TIP3    H271583   1.514   1.058   1.629 -0.3944  1.4281  0.3037
16698TIP3   OH271584   2.698   4.722   2.048 -0.2896 -0.0211 -0.0973
16698TIP3    H171585   2.696   4.744   2.141 -1.6364 -0.0653 -0.0872
16698TIP3    H271586   2.650   4.793   2.005 -2.8272 -1.7143 -0.3129
16699TIP3   OH271587   1.013   6.403  16.279  0.0702  0.1746 -0.6426
16699TIP3    H171588   1.056   6.376  16.360  0.9013  0.9570 -0.7981
16699TIP3    H271589   0.955   6.475  16.305 -0.4661 -0.2722 -0.5828
16700TIP3   OH271590   0.738   2.624   1.725  0.0548  0.3637 -0.5468
16700TIP3    H171591   0.809   2.640   1.663  2.3009 -1.9451  1.2190
16700TIP3    H271592   0.700   2.540   1.699  2.1441 -1.5234  1.9286
16701TIP3   OH271593   0.690   2.623  14.213  0.3949 -0.4916  0.3878
16701TIP3    H171594   0.621   2.600  14.151 -1.1832 -0.1144  1.9274
16701TIP3    H271595   0.674   2.714  14.234  1.1717 -0.4888  1.0225
16702TIP3   OH271596   6.832   5.510   2.237  0.1618  0.4185  0.0174
16702TIP3    H171597   6.763   5.574   2.251 -0.0403  0.5416 -1.4003
16702TIP3    H271598   6.789   5.436   2.192  1.0798  0.9139 -1.7915
16703TIP3   OH271599   0.599   4.562   5.680 -0.0213  0.3040 -0.0598
16703TIP3    H171600   0.578   4.583   5.771  0.4689  2.5037 -0.4002
16703TIP3    H271601   0.636   4.642   5.645  3.6735 -1.6370 -1.1007
16704TIP3   OH271602   2.781   1.690   5.909 -0.6857  0.8480 -0.0012
16704TIP3    H171603   2.872   1.677   5.882 -0.3779  0.9740  0.9374
16704TIP3    H271604   2.788   1.735   5.994 -1.6153  0.5676  0.2295
16705TIP3   OH271605   1.679   1.260   0.333  0.1279 -0.0534  0.1852
16705TIP3    H171606   1.671   1.334   0.393  0.4313 -0.8967  1.2972
16705TIP3    H271607   1.645   1.293   0.250  1.4527  1.7460  0.2879
16706TIP3   OH271608   6.286   6.202  16.284  0.7604  0.2330  0.0912
16706TIP3    H171609   6.260   6.294  16.277 -0.4401 -0.2076 -1.7037
16706TIP3    H271610   6.205   6.156  16.307  1.5614 -0.2883  2.0557
16707TIP3   OH271611   2.843   0.971  15.355  0.1243 -0.2570  0.0063
16707TIP3    H171612   2.808   1.028  15.287 -0.6058  1.2599  1.5963
16707TIP3    H271613   2.777   0.971  15.423  0.8438 -1.7288  0.7548
16708TIP3   OH271614   4.684   5.516  14.648  0.0327 -0.2070 -0.0709
16708TIP3    H171615   4.598   5.496  14.610 -0.1014 -1.0423  0.6429
16708TIP3    H271616   4.744   5.454  14.607  0.3110  0.4126 -0.6091
16709TIP3   OH271617   5.607   4.564   3.129 -0.7337 -0.3452  0.0433
16709TIP3    H171618   5.691   4.535   3.094 -1.4073 -0.6259 -1.3956
16709TIP3    H271619   5.542   4.529   3.068 -1.7924  1.2143  0.2217
16710TIP3   OH271620   6.451   0.870  15.315 -0.1261  0.4949 -0.2661
16710TIP3    H171621   6.423   0.814  15.387  1.2052  0.0867 -0.0362
16710TIP3    H271622   6.473   0.953  15.356  1.9862 -0.1664  0.0658
16711TIP3   OH271623   5.201   0.916   4.948  0.4010  0.2731 -0.4458
16711TIP3    H171624   5.190   0.941   4.857  0.7798  0.8044 -0.3505
16711TIP3    H271625   5.184   0.996   4.997 -0.2716 -0.1160 -0.0125
16712TIP3   OH271626   0.311   5.332  14.073  0.1208 -0.0293 -0.3784
16712TIP3    H171627   0.331   5.238  14.075  1.6071  0.2733  1.3396
16712TIP3    H271628   0.250   5.344  14.145  0.1362  0.3777 -0.4344
16713TIP3   OH271629   2.378   5.874  16.930 -0.2589  0.0839 -0.8944
16713TIP3    H171630   2.372   5.968  16.949  0.8571 -0.0442  0.2092
16713TIP3    H271631   2.457   5.866  16.876 -0.1825 -0.2636 -0.7282
16714TIP3   OH271632   1.656   6.729   3.804  0.3092  0.3522  0.1514
16714TIP3    H171633   1.617   6.813   3.827 -1.1699 -0.4507  0.7233
16714TIP3    H271634   1.720   6.712   3.874  0.0612  0.6443  0.4481
16715TIP3   OH271635   6.613   1.137   2.688 -0.2193  0.3049  0.1531
16715TIP3    H171636   6.588   1.050   2.655  2.0686 -1.5403  2.7471
16715TIP3    H271637   6.556   1.150   2.764 -2.0447  2.2072 -1.4240
16716TIP3   OH271638   1.261   3.818  12.676 -0.1075  0.1815 -0.5457
16716TIP3    H171639   1.240   3.911  12.686  2.1054  0.6886  0.0928
16716TIP3    H271640   1.259   3.803  12.581 -0.2666  0.9503 -0.6735
16717TIP3   OH271641   0.365   4.277   6.465 -0.3010 -0.4485 -0.4540
16717TIP3    H171642   0.273   4.256   6.479 -0.2784  0.6428  1.9012
16717TIP3    H271643   0.366   4.370   6.444  0.2248 -0.6468 -1.3700
16718TIP3   OH271644   4.071   5.920   2.954  0.1303 -0.0966 -0.7828
16718TIP3    H171645   4.001   5.958   3.007  1.1520  0.2215  0.3834
16718TIP3    H271646   4.151   5.960   2.988  0.9799 -1.2536 -1.3719
16719TIP3   OH271647   1.481   2.166  15.688 -0.2417  0.1506 -0.5622
16719TIP3    H171648   1.420   2.239  15.696  0.9766  1.2845 -1.2515
16719TIP3    H271649   1.539   2.174  15.763 -1.3268 -1.3702  0.5151
16720TIP3   OH271650   3.877   6.088  16.756 -0.6832 -0.3091  0.1147
16720TIP3    H171651   3.903   6.174  16.724 -0.3682 -0.4976 -0.1416
16720TIP3    H271652   3.781   6.090  16.757 -0.7311 -0.5718 -1.6100
16721TIP3   OH271653   0.341   4.931   5.594  0.2555  0.5270 -0.0301
16721TIP3    H171654   0.328   4.927   5.689  0.1701  1.3440 -0.0029
16721TIP3    H271655   0.435   4.921   5.582  0.1611 -0.6754  0.0622
16722TIP3   OH271656   4.162   3.960   5.790 -0.2709 -0.4521 -0.2916
16722TIP3    H171657   4.136   3.950   5.881 -2.3489  2.0667 -0.4970
16722TIP3    H271658   4.120   3.886   5.745  0.7274 -1.6759  0.7369
16723TIP3   OH271659   4.783   5.684   5.455  0.3034  0.2666 -0.2115
16723TIP3    H171660   4.703   5.654   5.411  0.9508 -1.0903 -0.5120
16723TIP3    H271661   4.820   5.604   5.494  1.1690  0.9903  0.4885
16724TIP3   OH271662   3.471   2.128   3.254 -0.3022  0.3355  0.8029
16724TIP3    H171663   3.475   2.140   3.349  0.4274  0.7706  0.7210
16724TIP3    H271664   3.520   2.202   3.218 -0.1792 -0.0801  0.1005
16725TIP3   OH271665   2.360   6.307  15.829  0.3385 -0.1755  0.6299
16725TIP3    H171666   2.290   6.243  15.841 -0.2217  0.0636 -1.0513
16725TIP3    H271667   2.440   6.259  15.852  0.0775 -1.9589 -1.7694
16726TIP3   OH271668   6.741   0.486  15.500 -0.0349  0.2344  0.6571
16726TIP3    H171669   6.788   0.440  15.569 -0.2760  3.5233  3.2959
16726TIP3    H271670   6.675   0.424  15.469  0.9928 -1.8333  2.4131
16727TIP3   OH271671   2.668   3.946  15.031 -0.4197 -0.3294  0.6653
16727TIP3    H171672   2.600   3.879  15.019 -1.4417  0.9770 -1.4638
16727TIP3    H271673   2.688   3.976  14.943  0.9734  1.2575  1.4655
16728TIP3   OH271674   0.014   3.197  11.822  0.0587  0.1717  0.1822
16728TIP3    H171675   0.057   3.196  11.907 -2.6193 -1.2569  1.6737
16728TIP3    H271676  -0.019   3.107  11.811  0.4585  0.2766 -2.4594
16729TIP3   OH271677   1.088   5.227   0.836 -0.1005  0.3537 -0.6926
16729TIP3    H171678   1.110   5.267   0.920 -1.1277 -0.3697 -0.0576
16729TIP3    H271679   1.128   5.285   0.770  0.3465  1.1610  0.2699
16730TIP3   OH271680   1.641   1.246   4.796 -0.2796 -0.0498  0.0943
16730TIP3    H171681   1.605   1.266   4.883  0.4689 -0.7514  0.5841
16730TIP3    H271682   1.701   1.172   4.811 -0.1745 -0.2166 -1.0289
16731TIP3   OH271683   4.105   6.015  12.537  0.1281 -0.1240  0.2890
16731TIP3    H171684   4.014   6.029  12.512 -0.0424 -2.6070 -0.7556
16731TIP3    H271685   4.155   6.070  12.477 -0.5893 -1.0288 -1.1899
16732TIP3   OH271686   5.949   6.104   5.127 -0.1711 -0.5500 -0.3021
16732TIP3    H171687   5.983   6.096   5.216 -0.7129 -0.6779 -0.0981
16732TIP3    H271688   5.998   6.176   5.088 -0.5562  0.1132  0.4041
16733TIP3   OH271689   6.277   4.049   1.875 -0.6690 -0.4447  0.3836
16733TIP3    H171690   6.335   3.974   1.865  0.5766  0.4831  0.3471
16733TIP3    H271691   6.290   4.101   1.796  0.7683  1.2838  1.6635
16734TIP3   OH271692   3.704   4.570  16.148  0.3433 -0.7429  0.1286
16734TIP3    H171693   3.737   4.623  16.220 -0.4257  1.2723 -0.9222
16734TIP3    H271694   3.782   4.544  16.099  0.6928  0.2926  0.1095
16735TIP3   OH271695   5.947   6.071  12.345  0.1815  0.0914 -0.0750
16735TIP3    H171696   5.893   6.147  12.326 -0.3817 -0.8819 -2.9126
16735TIP3    H271697   6.009   6.067  12.273  1.4775 -1.0509  1.0544
16736TIP3   OH271698   6.847   6.104   1.512 -0.0033 -0.4003 -0.7434
16736TIP3    H171699   6.856   6.151   1.595 -0.4629 -0.9569 -0.3759
16736TIP3    H271700   6.931   6.059   1.501  0.6854  0.9840 -1.4122
16737TIP3   OH271701   6.536   2.429   0.929  0.1248 -0.0770  0.1113
16737TIP3    H171702   6.462   2.426   0.868 -0.3203 -1.2763  0.6733
16737TIP3    H271703   6.566   2.338   0.934  0.6210  0.1299  1.1124
16738TIP3   OH271704   0.742   0.163  10.764 -0.6557  0.1277  0.3361
16738TIP3    H171705   0.750   0.068  10.756  0.2601  0.1647  0.6990
16738TIP3    H271706   0.831   0.193  10.783 -1.1475  0.9314  1.4393
16739TIP3   OH271707   0.075   0.785  14.997 -0.1432 -0.5207  0.5094
16739TIP3    H171708   0.053   0.818  14.910  1.8136 -0.7797 -0.1348
16739TIP3    H271709   0.026   0.703  15.005 -0.4083 -0.4531 -0.3289
16740TIP3   OH271710   3.526   4.780  10.534 -0.1733  0.3664  0.4596
16740TIP3    H171711   3.443   4.821  10.512  0.0453  1.5130  1.6825
16740TIP3    H271712   3.571   4.844  10.589  1.0384 -0.6970  0.7528
16741TIP3   OH271713   2.640   3.379  11.724  0.5367  0.7059  0.1154
16741TIP3    H171714   2.713   3.322  11.749 -0.0576 -0.4738 -0.7642
16741TIP3    H271715   2.564   3.341  11.769 -0.2607 -0.5181 -2.0878
16742TIP3   OH271716   0.203   2.471  14.913 -0.0379 -0.2213  0.8405
16742TIP3    H171717   0.135   2.459  14.846  0.2323 -0.8643  0.6745
16742TIP3    H271718   0.266   2.530  14.873  0.1870 -0.7041  0.4707
16743TIP3   OH271719   5.531   6.194   1.272  0.4946 -0.1770 -0.5993
16743TIP3    H171720   5.496   6.110   1.242 -0.1942 -0.3958  0.7241
16743TIP3    H271721   5.611   6.171   1.320 -0.9821 -0.4282  1.9322
16744TIP3   OH271722   4.166   0.535  13.017  0.2548 -0.0104  0.1324
16744TIP3    H171723   4.096   0.470  13.014 -1.2026  1.4872 -0.1324
16744TIP3    H271724   4.125   0.615  12.984  2.9277  0.2459 -3.1072
16745TIP3   OH271725   0.373   1.174  10.972 -0.0131  0.0796 -0.1765
16745TIP3    H171726   0.302   1.193  10.911  1.7038  1.4151 -1.9215
16745TIP3    H271727   0.449   1.156  10.916  1.0350 -1.3720  1.5892
16746TIP3   OH271728   2.672   2.623   2.317 -0.1487 -0.0640  0.4369
16746TIP3    H171729   2.671   2.539   2.362  4.1966 -0.9113 -0.5254
16746TIP3    H271730   2.675   2.601   2.224  0.0066  1.1797  0.1249
16747TIP3   OH271731   0.312   6.393   0.646 -0.1673  0.7209 -0.0058
16747TIP3    H171732   0.303   6.482   0.681  0.8755  0.4366  1.0406
16747TIP3    H271733   0.340   6.340   0.721  1.3454 -0.0697 -1.0802
16748TIP3   OH271734   2.780   2.099  14.367 -0.0445  0.1920  0.0482
16748TIP3    H171735   2.801   2.162  14.299  2.3660 -0.7799 -0.1993
16748TIP3    H271736   2.691   2.070  14.346 -0.7648  2.6020 -0.4871
16749TIP3   OH271737   0.800   3.464  13.518  0.1766 -0.0117 -0.3107
16749TIP3    H171738   0.885   3.470  13.561 -0.3743  0.4089  0.7617
16749TIP3    H271739   0.817   3.491  13.428  0.8754  1.7082  0.2980
16750TIP3   OH271740   5.065   3.595   1.282  0.0130  0.5368  0.2577
16750TIP3    H171741   5.065   3.687   1.256  1.0251  0.7721  1.0485
16750TIP3    H271742   5.029   3.595   1.370  0.1419  0.1856  0.3095
16751TIP3   OH271743   1.187   3.646   4.569  0.4111 -0.4352  0.3551
16751TIP3    H171744   1.119   3.714   4.574  0.8106  0.0035 -0.0187
16751TIP3    H271745   1.173   3.592   4.647 -0.3666 -0.3554  0.2774
16752TIP3   OH271746   2.585   3.699  12.908 -0.1160  0.1218 -0.3322
16752TIP3    H171747   2.662   3.750  12.883 -1.5936  2.1340 -1.1472
16752TIP3    H271748   2.539   3.685  12.825  0.4969 -3.1727 -0.2371
16753TIP3   OH271749   4.896   4.798   1.766 -0.0998 -0.0580  0.4896
16753TIP3    H171750   4.927   4.708   1.770  0.5898  0.2116  1.7240
16753TIP3    H271751   4.811   4.792   1.723  0.5203 -1.1263 -0.6450
16754TIP3   OH271752   2.190   2.284  16.335  0.0517  0.0585  0.0140
16754TIP3    H171753   2.243   2.256  16.259  0.0737  0.2066 -0.0271
16754TIP3    H271754   2.255   2.315  16.398 -0.0035  0.6160 -0.1923
16755TIP3   OH271755   5.317   5.521   6.198 -0.0075 -0.4061  0.3447
16755TIP3    H171756   5.301   5.431   6.228 -2.8771  0.2500  1.0520
16755TIP3    H271757   5.311   5.516   6.103 -0.7448 -0.8828  0.4105
16756TIP3   OH271758   3.119   6.071  13.963  0.1679 -0.7682  0.1623
16756TIP3    H171759   3.206   6.110  13.950  0.2503 -0.9455  0.1692
16756TIP3    H271760   3.109   6.010  13.890 -0.2142 -0.2900 -0.1858
16757TIP3   OH271761   3.308   2.116  14.856  0.0089  0.5201 -0.6378
16757TIP3    H171762   3.256   2.151  14.929  0.3623  0.3129 -0.2823
16757TIP3    H271763   3.302   2.021  14.866 -0.1678  0.4872 -1.0444
16758TIP3   OH271764   2.664   0.889   1.054 -0.6517 -0.1402 -0.3867
16758TIP3    H171765   2.665   0.793   1.065  0.0644  0.0118  1.0793
16758TIP3    H271766   2.601   0.903   0.983 -1.3986 -1.6551 -0.0909
16759TIP3   OH271767   0.681   0.844   5.355 -0.1352 -0.5458 -0.2432
16759TIP3    H171768   0.723   0.849   5.269  0.7249 -1.2871  0.1146
16759TIP3    H271769   0.600   0.795   5.339  1.1248 -2.7440 -0.2673
16760TIP3   OH271770   5.147   2.654  13.879 -0.2281  0.5453  0.1969
16760TIP3    H171771   5.150   2.615  13.966 -2.0798 -0.9680 -0.3426
16760TIP3    H271772   5.102   2.738  13.892  1.2147  1.2464  0.9334
16761TIP3   OH271773   5.099   3.619  13.763 -0.2893  0.2111  0.1743
16761TIP3    H171774   5.052   3.544  13.727 -0.8409  0.8874 -0.5493
16761TIP3    H271775   5.106   3.681  13.690 -0.3846  1.1176  0.9049
16762TIP3   OH271776   3.674   6.428   1.371  0.2716  0.0162  0.5594
16762TIP3    H171777   3.667   6.421   1.466  2.5155  1.7956  0.9554
16762TIP3    H271778   3.663   6.522   1.353 -2.5480 -0.5673 -1.2605
16763TIP3   OH271779   0.640   4.228  14.486  0.8055  0.1201  0.0227
16763TIP3    H171780   0.625   4.311  14.532  2.6287 -0.8478  2.5555
16763TIP3    H271781   0.700   4.250  14.415 -1.8516  1.5913 -1.9830
16764TIP3   OH271782   0.009   1.887  15.196 -0.4448  0.1212  0.2843
16764TIP3    H171783   0.068   1.878  15.121 -2.2877 -3.0246 -0.9871
16764TIP3    H271784   0.063   1.863  15.271  0.6536  0.1682 -0.4667
16765TIP3   OH271785   4.513   2.236   5.625 -0.0947 -0.0605  0.1470
16765TIP3    H171786   4.489   2.196   5.709  1.9588 -1.6956  0.0415
16765TIP3    H271787   4.442   2.213   5.566 -0.5095 -0.7980  0.9135
16766TIP3   OH271788   5.380   5.354  15.973 -0.0713  0.6759  0.1892
16766TIP3    H171789   5.290   5.321  15.963 -0.5837  1.9592  0.4589
16766TIP3    H271790   5.375   5.446  15.946  0.9141  1.0775  1.3225
16767TIP3   OH271791   6.517   3.153  14.564 -0.0304  0.1643  0.1555
16767TIP3    H171792   6.574   3.153  14.487 -0.7659 -1.1161 -0.4195
16767TIP3    H271793   6.577   3.159  14.639  1.0167 -2.2088 -0.3810
16768TIP3   OH271794   6.443   5.903  11.364  0.2133 -0.1053  0.4262
16768TIP3    H171795   6.413   5.993  11.353  1.1235 -0.0390 -2.1678
16768TIP3    H271796   6.363   5.851  11.362 -0.2243  0.5292  0.6879
16769TIP3   OH271797   0.667   4.508   0.440  0.1307  0.0935  0.7402
16769TIP3    H171798   0.605   4.580   0.426  0.6629  0.2350 -1.3081
16769TIP3    H271799   0.611   4.432   0.458 -0.4809  0.8009  1.9602
16770TIP3   OH271800   1.592   1.342  15.524  0.1141 -0.1329  0.3858
16770TIP3    H171801   1.508   1.306  15.550  1.0489 -3.3377 -0.5411
16770TIP3    H271802   1.630   1.376  15.605 -1.1950 -0.5260  1.1903
16771TIP3   OH271803   0.980   2.474  12.291  0.2519 -0.2218 -0.2320
16771TIP3    H171804   1.061   2.424  12.287  0.0643 -0.6540  0.8663
16771TIP3    H271805   0.911   2.408  12.301 -0.3036  0.1067 -1.6895
16772TIP3   OH271806   0.201   1.817  15.754  0.3862  0.7754  0.2024
16772TIP3    H171807   0.261   1.803  15.828 -0.6628  2.3245  1.4227
16772TIP3    H271808   0.138   1.881  15.787 -1.4006 -0.0985 -1.3457
16773TIP3   OH271809   3.557   6.747   0.379 -0.1845 -0.5804 -0.2804
16773TIP3    H171810   3.531   6.836   0.357 -1.0251 -1.2700 -2.4080
16773TIP3    H271811   3.484   6.712   0.430  0.7223  0.2967  1.7204
16774TIP3   OH271812   5.139   2.958   3.533  0.4862 -0.3998  0.2931
16774TIP3    H171813   5.210   3.013   3.499  0.8279 -2.5146 -2.8042
16774TIP3    H271814   5.179   2.908   3.603  1.3055  0.3301  0.3716
16775TIP3   OH271815   0.243   0.432   6.227  0.4270  0.4269  0.2124
16775TIP3    H171816   0.217   0.459   6.315 -1.7072 -0.2078 -0.1536
16775TIP3    H271817   0.290   0.507   6.191  1.4488  0.6434  1.9126
16776TIP3   OH271818   3.053   4.013   1.797  0.3458  0.3562  0.0913
16776TIP3    H171819   3.018   4.101   1.783  0.3835  0.4814  0.7515
16776TIP3    H271820   2.992   3.955   1.751  1.5572  0.8728 -2.3110
16777TIP3   OH271821   4.880   3.702   6.532  0.8773 -0.5759  0.1335
16777TIP3    H171822   4.912   3.713   6.442  1.1570  0.6027  0.3580
16777TIP3    H271823   4.785   3.711   6.523  0.8461 -1.1414 -0.1341
16778TIP3   OH271824   2.713   2.141  12.214 -0.1473  0.5924  0.3434
16778TIP3    H171825   2.800   2.141  12.174  0.0082 -1.4142  0.5467
16778TIP3    H271826   2.673   2.060  12.183 -1.1027  0.3870  1.9733
16779TIP3   OH271827   1.395   6.719  12.100 -0.3731 -0.3094 -0.3823
16779TIP3    H171828   1.473   6.753  12.055 -0.7733  0.3868 -0.5697
16779TIP3    H271829   1.361   6.652  12.041 -2.1336  2.0423 -2.2857
16780TIP3   OH271830   2.386   4.933  14.226  0.1208 -0.0442  0.0624
16780TIP3    H171831   2.300   4.892  14.227  0.9671 -1.9421  0.4960
16780TIP3    H271832   2.372   5.020  14.265 -2.1183  1.0558 -2.8104
16781TIP3   OH271833   2.937   6.645  15.795  0.2320 -0.0601 -0.6099
16781TIP3    H171834   2.899   6.602  15.871 -0.9668  0.2996 -0.9935
16781TIP3    H271835   3.012   6.695  15.830  0.1407 -0.4859  0.2029
16782TIP3   OH271836   4.314   0.106   3.410  0.9355  0.4077  0.4512
16782TIP3    H171837   4.381   0.108   3.342  0.3467 -1.2786 -0.2433
16782TIP3    H271838   4.236   0.143   3.369  0.1340 -2.0299 -0.3976
16783TIP3   OH271839   5.071   0.932   3.356 -0.2619 -0.1988 -0.1965
16783TIP3    H171840   5.083   0.941   3.450 -1.1281  0.0736 -0.1074
16783TIP3    H271841   5.150   0.887   3.326  0.7160  1.0312  0.4363
16784TIP3   OH271842   1.201   1.539  15.417  0.0861  0.0571 -0.4739
16784TIP3    H171843   1.258   1.516  15.491  0.1373 -0.0421 -0.5440
16784TIP3    H271844   1.194   1.459  15.366 -0.0254  0.1002 -0.5268
16785TIP3   OH271845   5.858   4.059   0.476  0.2555  0.3554 -0.2239
16785TIP3    H171846   5.815   4.144   0.461 -0.7756 -0.1841 -0.4545
16785TIP3    H271847   5.788   4.004   0.512  0.7075 -0.6256 -0.8323
16786TIP3   OH271848   4.731   0.196   2.198 -0.0987  0.0054  0.1594
16786TIP3    H171849   4.812   0.229   2.158  0.1416 -0.0088  0.6223
16786TIP3    H271850   4.733   0.102   2.180  0.0582 -0.0168  0.2888
16787TIP3   OH271851   5.587   2.712   3.482  0.0382 -0.1566 -0.3537
16787TIP3    H171852   5.546   2.791   3.518 -0.1423 -0.9968  1.4287
16787TIP3    H271853   5.515   2.665   3.439 -0.3408 -0.3831  0.5042
16788TIP3   OH271854   3.373   3.443   0.140 -0.7933 -0.2948  0.4322
16788TIP3    H171855   3.286   3.444   0.181  0.2151 -0.6067  2.6890
16788TIP3    H271856   3.402   3.352   0.150  1.0716  0.4736  2.6264
16789TIP3   OH271857   3.976   0.481   4.450 -0.1936 -0.0395  0.2827
16789TIP3    H171858   3.892   0.506   4.412 -0.3523  0.1511  0.7465
16789TIP3    H271859   3.959   0.398   4.495  0.2508 -0.8503 -0.9613
16790TIP3   OH271860   6.012   3.671   4.067  0.0875  0.3833 -0.0460
16790TIP3    H171861   5.970   3.645   4.149 -0.4868  0.4216 -0.3232
16790TIP3    H271862   6.051   3.756   4.086  1.1919 -0.2500  0.6006
16791TIP3   OH271863   4.164   3.766  13.355 -0.0164  0.2164  0.5818
16791TIP3    H171864   4.222   3.691  13.340  1.0185  1.4184 -2.0517
16791TIP3    H271865   4.076   3.732  13.333  0.3031 -0.4888  0.3541
16792TIP3   OH271866   0.437   4.505   2.267  0.3952  0.0355 -0.2486
16792TIP3    H171867   0.343   4.501   2.282  0.0461  1.9801 -1.5365
16792TIP3    H271868   0.448   4.572   2.199  2.7802  0.6629  0.6352
16793TIP3   OH271869   3.221   5.402  12.625  0.3175  0.5925 -0.2929
16793TIP3    H171870   3.201   5.432  12.714  0.5942  0.1232 -0.0706
16793TIP3    H271871   3.280   5.468  12.590 -0.5795  1.3166 -0.4981
16794TIP3   OH271872   0.815   1.094   6.527  0.1101  0.0836  0.1145
16794TIP3    H171873   0.802   1.006   6.493  0.1570  0.7634 -1.7689
16794TIP3    H271874   0.727   1.122   6.555  0.1683 -0.6904  1.1110
16795TIP3   OH271875   0.975   4.989   4.449 -0.1215  0.4237  0.3437
16795TIP3    H171876   0.987   5.083   4.442  0.9436  0.2908  0.1416
16795TIP3    H271877   0.881   4.977   4.457 -0.2700  1.5001  0.3499
16796TIP3   OH271878   3.102   2.156   0.837 -0.1046 -0.0504  0.5195
16796TIP3    H171879   3.154   2.153   0.757  1.2459 -2.1097  1.3813
16796TIP3    H271880   3.098   2.249   0.860  3.0444  0.2472  0.2762
16797TIP3   OH271881   3.149   5.761   2.044 -0.1881 -0.7949  0.5912
16797TIP3    H171882   3.126   5.826   2.110  0.1299 -1.7568  1.6775
16797TIP3    H271883   3.215   5.706   2.086  0.3626 -1.1566 -0.6910
16798TIP3   OH271884   1.846   4.508   3.366  0.4298 -0.4305 -0.1966
16798TIP3    H171885   1.808   4.450   3.300  1.5703 -2.0081  0.4790
16798TIP3    H271886   1.933   4.528   3.333  0.3817  0.1615  0.0254
16799TIP3   OH271887   1.319   2.097   4.087  0.0237 -0.2486  0.4173
16799TIP3    H171888   1.329   2.016   4.036 -1.3370  0.0289 -0.3379
16799TIP3    H271889   1.378   2.159   4.045 -0.4332 -0.2777 -0.2777
16800TIP3   OH271890   3.908   2.604  13.312  0.3521 -0.5895 -0.3104
16800TIP3    H171891   3.960   2.670  13.358 -0.4940 -0.2936  0.2439
16800TIP3    H271892   3.963   2.526  13.311  2.3370  0.6904 -2.9736
16801TIP3   OH271893   6.692   3.871  16.106  0.6837 -0.5040 -1.1533
16801TIP3    H171894   6.654   3.787  16.080  0.9155 -1.0609  0.2531
16801TIP3    H271895   6.785   3.864  16.083  0.7694 -0.7584 -0.7235
16802TIP3   OH271896   2.242   4.951  15.311 -0.3842 -0.3687 -0.1112
16802TIP3    H171897   2.245   5.046  15.297  1.8843  0.2144  3.1538
16802TIP3    H271898   2.315   4.917  15.259 -1.2501 -0.3847 -1.3492
16803TIP3   OH271899   3.425   0.804  12.510  0.5339 -0.3287  0.1419
16803TIP3    H171900   3.481   0.757  12.448 -1.5415 -1.5881 -0.8803
16803TIP3    H271901   3.462   0.783  12.596  1.4140 -1.4233 -0.4778
16804TIP3   OH271902   2.887   3.591  11.946 -0.4946 -0.6773 -0.0827
16804TIP3    H171903   2.804   3.557  11.979  0.3886 -2.5253  0.3690
16804TIP3    H271904   2.911   3.660  12.009 -0.4879 -1.8349  1.2237
16805TIP3   OH271905   1.661   2.127  14.685  0.1214  0.1995  0.3757
16805TIP3    H171906   1.601   2.071  14.735  1.8858 -2.7842 -0.5865
16805TIP3    H271907   1.605   2.169  14.619 -1.3720  0.0439  1.5001
16806TIP3   OH271908   5.889   6.557  11.235 -0.5662  0.4755 -0.3267
16806TIP3    H171909   5.852   6.580  11.149 -0.9471 -0.3242 -0.3807
16806TIP3    H271910   5.958   6.494  11.215 -0.7804  0.1475 -0.0313
16807TIP3   OH271911   1.730   3.552   1.036  0.2830 -0.1915 -0.0771
16807TIP3    H171912   1.790   3.618   1.002 -0.9206  2.2045  2.0598
16807TIP3    H271913   1.647   3.570   0.991  0.0061 -0.3809  0.3508
16808TIP3   OH271914   2.850   0.619   1.776 -0.4987  0.3503 -0.1201
16808TIP3    H171915   2.785   0.549   1.774 -0.7391  0.5913 -0.7670
16808TIP3    H271916   2.831   0.667   1.857  1.4617 -1.9945  1.9254
16809TIP3   OH271917   2.007   5.247  13.131 -0.2880 -0.6298 -0.3312
16809TIP3    H171918   2.063   5.184  13.086 -0.8935 -0.7595 -0.9344
16809TIP3    H271919   1.919   5.228  13.098 -0.5047  0.4239 -0.3997
16810TIP3   OH271920   1.506   2.455  14.615  0.0712 -0.2964 -0.1196
16810TIP3    H171921   1.587   2.491  14.578  1.5384 -1.7455  1.4830
16810TIP3    H271922   1.525   2.443  14.708 -1.9463 -0.8692  0.2779
16811TIP3   OH271923   5.795   6.691   3.582  0.3971  0.4751  0.2523
16811TIP3    H171924   5.717   6.655   3.541  1.1333 -1.1839  0.2383
16811TIP3    H271925   5.868   6.654   3.532  1.2090  1.5930  0.5696
16812TIP3   OH271926   3.085   5.102   2.997 -0.5154  0.2007  0.0741
16812TIP3    H171927   3.135   5.161   2.941 -0.7408  0.7087  0.4023
16812TIP3    H271928   3.148   5.068   3.060 -0.8736  2.2021  1.6205
16813TIP3   OH271929   2.690   0.219  10.430 -0.3951 -0.3262  0.0339
16813TIP3    H171930   2.614   0.229  10.372 -1.4636 -0.6686  1.3309
16813TIP3    H271931   2.696   0.125  10.445 -0.2468 -0.2242  0.6186
16814TIP3   OH271932   2.958   0.954  16.976  0.6525  0.3817 -0.1046
16814TIP3    H171933   3.032   0.962  17.036  2.6965 -0.0000 -2.4124
16814TIP3    H271934   2.997   0.925  16.893 -2.1782 -0.5040 -1.2642
16815TIP3   OH271935   5.633   2.293   5.215  1.2318  0.1433  0.4853
16815TIP3    H171936   5.682   2.310   5.134 -0.3843 -0.0670 -0.5737
16815TIP3    H271937   5.686   2.229   5.262  1.9138 -0.1788 -0.6829
16816TIP3   OH271938   5.403   6.027  16.914 -0.3619  1.1036 -0.1531
16816TIP3    H171939   5.420   6.104  16.969  2.0820  1.2736 -1.0273
16816TIP3    H271940   5.429   5.953  16.969 -0.3803  1.0753 -0.1836
16817TIP3   OH271941   0.150   6.241  15.186 -0.0327 -0.1255 -0.3312
16817TIP3    H171942   0.139   6.262  15.093  0.6726  1.2732 -0.1186
16817TIP3    H271943   0.076   6.183  15.205 -0.1495 -0.5009 -1.7762
16818TIP3   OH271944   0.122   1.242   2.494 -0.4105  0.3311  0.1734
16818TIP3    H171945   0.059   1.292   2.442 -3.5874 -1.1307  2.2985
16818TIP3    H271946   0.081   1.156   2.506  1.4321 -0.3273  2.7254
16819TIP3   OH271947   5.627   3.000  11.650  0.4421  0.2769 -0.2672
16819TIP3    H171948   5.719   2.995  11.622  1.7962  0.0272  3.5773
16819TIP3    H271949   5.604   3.093  11.640  1.0862  0.3467 -1.2541
16820TIP3   OH271950   5.673   1.479  14.502 -0.0906  0.8773  0.0150
16820TIP3    H171951   5.667   1.445  14.591  1.0478 -0.5650 -0.4391
16820TIP3    H271952   5.585   1.466  14.466 -0.4871  1.2271  0.8137
16821TIP3   OH271953   6.516   0.700  16.328  0.4027 -0.3764  0.6842
16821TIP3    H171954   6.436   0.655  16.354  0.6998 -1.0382  0.4872
16821TIP3    H271955   6.517   0.780  16.381 -1.3672  0.6431 -0.6990
16822TIP3   OH271956   6.162   3.581   1.790  0.2807 -0.5736  0.1389
16822TIP3    H171957   6.090   3.558   1.731 -0.5637  1.2508  0.3655
16822TIP3    H271958   6.123   3.645   1.850  1.4295 -1.5042  1.9495
16823TIP3   OH271959   3.878   1.438  12.493  0.2948 -0.0656  0.8100
16823TIP3    H171960   3.907   1.503  12.557  1.9334 -0.8692  0.9442
16823TIP3    H271961   3.949   1.374  12.490 -0.9778 -1.5194  0.2137
16824TIP3   OH271962   5.840   3.871   4.696 -0.1465 -0.0828 -0.7178
16824TIP3    H171963   5.873   3.817   4.767  0.9201  0.8270 -0.4879
16824TIP3    H271964   5.886   3.840   4.618  0.2876  0.3209 -0.6270
16825TIP3   OH271965   5.215   1.688  14.343  0.2482 -0.1471  0.7227
16825TIP3    H171966   5.162   1.758  14.307  2.0177  1.1517  0.5136
16825TIP3    H271967   5.229   1.712  14.435  2.8926  1.1845  0.0749
16826TIP3   OH271968   2.682   2.166   2.589  1.0319  0.0994 -0.2034
16826TIP3    H171969   2.751   2.151   2.654  1.1146 -1.6759 -0.6502
16826TIP3    H271970   2.626   2.088   2.595 -0.5994  1.2240 -0.2824
16827TIP3   OH271971   6.277   5.299   0.516  0.4296  0.2144 -0.0017
16827TIP3    H171972   6.251   5.240   0.445 -0.6494 -2.3742  2.3186
16827TIP3    H271973   6.368   5.322   0.497  0.7897 -1.9575 -1.2377
16828TIP3   OH271974   4.009   0.408   4.042  1.1049  0.5060 -0.6252
16828TIP3    H171975   4.023   0.502   4.035  0.2007  0.6446 -0.5871
16828TIP3    H271976   3.914   0.397   4.044  1.1882 -0.4458 -1.1787
16829TIP3   OH271977   3.888   5.441  11.457  0.2331  0.1031 -0.4894
16829TIP3    H171978   3.960   5.442  11.394  0.4896  3.1086 -0.3364
16829TIP3    H271979   3.929   5.422  11.541  0.4048 -0.7109 -0.7489
16830TIP3   OH271980   4.202   4.496   6.404 -0.5909 -0.1067  0.2389
16830TIP3    H171981   4.132   4.503   6.469  1.0714  1.7446  1.9835
16830TIP3    H271982   4.250   4.417   6.428 -1.2502 -0.6225 -0.1143
16831TIP3   OH271983   3.165   4.029   1.189 -0.1981  0.1594 -0.2755
16831TIP3    H171984   3.208   4.114   1.178  2.3362 -1.3128 -5.1225
16831TIP3    H271985   3.084   4.037   1.138  1.2265 -0.8073 -2.8763
16832TIP3   OH271986   6.345   5.597   4.183 -0.2469  0.1785 -0.4564
16832TIP3    H171987   6.385   5.620   4.099  1.3127 -1.6553 -0.3093
16832TIP3    H271988   6.379   5.662   4.244  0.2264  0.3484 -0.8897
16833TIP3   OH271989   5.162   0.381   4.810  0.3438 -0.4293 -0.5465
16833TIP3    H171990   5.220   0.370   4.885 -0.2029 -0.5848 -0.1412
16833TIP3    H271991   5.117   0.464   4.827 -3.3191 -2.5952  1.8038
16834TIP3   OH271992   5.048   0.169   1.554  0.5912  0.4024  0.6119
16834TIP3    H171993   4.961   0.194   1.583  0.4467  1.7644 -0.8645
16834TIP3    H271994   5.037   0.143   1.463  1.7610  0.8279  0.3229
16835TIP3   OH271995   4.461   3.678  14.158  0.4481 -0.1228 -0.1410
16835TIP3    H171996   4.551   3.663  14.129  0.4526 -0.5365  0.0929
16835TIP3    H271997   4.423   3.733  14.089  1.3443  1.3795  0.5179
16836TIP3   OH271998   6.772   3.829   0.414  0.3497  0.6840 -0.0222
16836TIP3    H171999   6.785   3.827   0.319  1.7649  0.8571  0.1391
16836TIP3    H272000   6.733   3.744   0.435 -1.2822  1.1828 -0.9017
16837TIP3   OH272001   5.435   6.285  13.668 -0.2614  0.1204 -0.2859
16837TIP3    H172002   5.372   6.318  13.732 -0.4668 -0.1842 -0.3259
16837TIP3    H272003   5.510   6.257  13.721 -1.1448 -1.8228  0.0289
16838TIP3   OH272004   2.734   6.593   5.750 -0.6073  0.1599 -0.3820
16838TIP3    H172005   2.760   6.684   5.762  1.2539 -0.3158 -0.5329
16838TIP3    H272006   2.817   6.544   5.745 -1.5560 -1.5776 -0.0156
16839TIP3   OH272007   1.213   3.268   3.209 -0.3675  0.3040  0.8802
16839TIP3    H172008   1.187   3.180   3.184  2.1736 -0.5082  0.8294
16839TIP3    H272009   1.284   3.256   3.272 -0.3899  2.3174  1.3688
16840TIP3   OH272010   5.095   4.533  16.690 -0.2035 -0.2451 -0.6162
16840TIP3    H172011   5.029   4.585  16.644 -0.2523 -0.8157 -1.1999
16840TIP3    H272012   5.114   4.460  16.631  0.6463 -0.3125 -0.2721
16841TIP3   OH272013   3.480   0.046  14.057  0.0356  0.1507  0.1802
16841TIP3    H172014   3.386   0.058  14.070  0.1490  1.9337 -0.4622
16841TIP3    H272015   3.521   0.099  14.124  0.5944 -0.1057  0.0493
16842TIP3   OH272016   2.429   3.073   3.782 -0.7604  0.4133  0.1854
16842TIP3    H172017   2.505   3.122   3.752  0.6764 -0.2435  2.5392
16842TIP3    H272018   2.409   3.014   3.709  2.5450 -1.0948  0.3055
16843TIP3   OH272019   0.293   5.655   3.981 -0.2401 -0.3065  0.0889
16843TIP3    H172020   0.365   5.622   4.034 -1.4455 -0.4067  1.7238
16843TIP3    H272021   0.227   5.586   3.983  0.5609 -1.3902 -3.5928
16844TIP3   OH272022   2.981   1.678  13.713 -0.2166  0.0563  0.4290
16844TIP3    H172023   2.962   1.744  13.647 -1.6269 -0.6698  0.0472
16844TIP3    H272024   3.031   1.611  13.667  1.5632  0.9947  0.9151
16845TIP3   OH272025   3.431   5.604  15.377 -0.0758 -0.1604  0.6846
16845TIP3    H172026   3.390   5.674  15.428 -1.1823 -1.3407  1.4551
16845TIP3    H272027   3.502   5.648  15.330 -0.9720  1.5558  0.8459
16846TIP3   OH272028   2.928   4.503   0.468  0.2881 -0.5852  0.1503
16846TIP3    H172029   2.982   4.539   0.537 -0.4328  0.3744  0.2379
16846TIP3    H272030   2.846   4.479   0.511 -0.3086  0.3609 -0.3958
16847TIP3   OH272031   1.101   3.298  14.733 -0.1328  0.1238  0.5599
16847TIP3    H172032   1.023   3.349  14.714 -0.4630 -1.0736 -1.6115
16847TIP3    H272033   1.085   3.262  14.821 -1.3199  1.1073  0.7732
16848TIP3   OH272034   6.563   3.525   2.798 -0.1357  0.8047  0.0117
16848TIP3    H172035   6.595   3.467   2.729  0.2260  0.0772  0.7707
16848TIP3    H272036   6.561   3.612   2.758  0.1543  0.4069 -0.8807
16849TIP3   OH272037   1.300   3.033  16.962  0.2467 -0.3424  0.2748
16849TIP3    H172038   1.300   3.049  16.868 -3.1983  0.3671  0.2568
16849TIP3    H272039   1.310   2.938  16.971 -0.5677 -0.5538 -0.8935
16850TIP3   OH272040   1.164   0.258  14.158 -0.7480 -0.5353 -0.1007
16850TIP3    H172041   1.136   0.173  14.191 -0.9424 -1.4247 -2.3324
16850TIP3    H272042   1.248   0.274  14.201 -2.2070 -0.2533  2.8255
16851TIP3   OH272043   4.507   3.736   0.894 -0.1273  0.5183  0.1820
16851TIP3    H172044   4.414   3.747   0.914  0.0565  2.8627  0.0871
16851TIP3    H272045   4.516   3.769   0.805  0.7161 -0.1424  0.0213
16852TIP3   OH272046   6.326   0.672   5.532 -0.1378  0.9520 -0.4127
16852TIP3    H172047   6.298   0.764   5.532 -1.3652  0.6798 -3.3878
16852TIP3    H272048   6.257   0.626   5.579 -0.6646  1.2845 -0.8502
16853TIP3   OH272049   3.463   0.192  15.756 -0.1603 -0.1993  0.1173
16853TIP3    H172050   3.503   0.105  15.752 -1.4436 -0.7821 -0.8731
16853TIP3    H272051   3.495   0.237  15.678  2.0464  0.9819  1.5978
16854TIP3   OH272052   0.552   2.110   6.456 -0.4479 -0.1171  0.6963
16854TIP3    H172053   0.581   2.038   6.400 -1.9520 -0.8095  0.7551
16854TIP3    H272054   0.558   2.187   6.401 -3.7683 -1.0233 -1.2432
16855TIP3   OH272055   1.145   2.784   0.510  0.0836 -0.2721  0.1158
16855TIP3    H172056   1.228   2.768   0.464  0.2776 -0.6785  0.6082
16855TIP3    H272057   1.163   2.859   0.566 -0.7059  1.5170 -1.8777
16856TIP3   OH272058   2.179   4.033  17.039  0.0021 -0.4499 -0.2932
16856TIP3    H172059   2.254   3.973  17.037  0.5793  0.2285  0.3591
16856TIP3    H272060   2.174   4.068  16.949 -0.6466 -1.8110 -0.8134
16857TIP3   OH272061   0.241   1.237   2.825 -0.0506 -0.0204  0.4333
16857TIP3    H172062   0.328   1.199   2.811  0.2006  0.2128  1.3085
16857TIP3    H272063   0.180   1.168   2.801  0.3385  0.1570 -1.2536
16858TIP3   OH272064   4.008   5.749   0.575  0.5059 -0.2280  0.3978
16858TIP3    H172065   3.943   5.716   0.638 -1.0788  1.1834 -0.4301
16858TIP3    H272066   3.994   5.696   0.497 -0.6159  0.9372 -0.2290
16859TIP3   OH272067   2.138   2.603   4.538 -0.4334 -0.1901 -1.0263
16859TIP3    H172068   2.122   2.598   4.633  0.8026  0.9738 -0.7123
16859TIP3    H272069   2.120   2.515   4.506 -1.3041 -0.4959  0.2203
16860TIP3   OH272070   3.834   2.641   2.241 -0.0571  0.2929 -0.0181
16860TIP3    H172071   3.749   2.669   2.207  1.1945  2.0896 -1.9147
16860TIP3    H272072   3.853   2.702   2.312 -0.7087 -0.6987  1.0495
16861TIP3   OH272073   4.936   4.343   1.168 -0.4725  0.2701  0.5118
16861TIP3    H172074   4.842   4.347   1.150 -0.5239  0.6359  0.8537
16861TIP3    H272075   4.970   4.425   1.132 -0.2368  0.0128  0.1380
16862TIP3   OH272076   5.330   4.560  13.644 -0.0452 -0.3351 -0.1293
16862TIP3    H172077   5.295   4.527  13.562 -0.8310  2.3505 -0.9807
16862TIP3    H272078   5.289   4.505  13.711 -3.7719  0.7395 -1.2470
16863TIP3   OH272079   2.967   4.752  15.091  0.1312 -0.1639 -0.0059
16863TIP3    H172080   2.898   4.734  15.155 -0.7618 -1.2106 -1.2147
16863TIP3    H272081   3.039   4.787  15.143 -1.4094  1.3176  1.2783
16864TIP3   OH272082   4.168   6.488  11.209  0.4274  0.7883 -0.5600
16864TIP3    H172083   4.109   6.535  11.150  0.4289 -1.5398 -2.5956
16864TIP3    H272084   4.255   6.518  11.185  0.4207 -0.0672 -1.7701
16865TIP3   OH272085   3.725   2.854  12.039 -0.5209  0.2736 -0.3417
16865TIP3    H172086   3.745   2.891  11.953  0.7343 -2.0414 -1.1389
16865TIP3    H272087   3.759   2.919  12.101 -1.2294  1.8748 -1.5648
16866TIP3   OH272088   1.914   6.094   2.673 -0.2514  0.1412 -0.5855
16866TIP3    H172089   1.983   6.041   2.634 -0.8046 -1.3690  0.4141
16866TIP3    H272090   1.960   6.155   2.731  0.2719 -0.8422  0.0630
16867TIP3   OH272091   2.931   0.062  11.894  0.1619 -0.1935 -0.5040
16867TIP3    H172092   2.891  -0.012  11.849 -0.9527 -0.2270  0.4956
16867TIP3    H272093   2.986   0.104  11.827  0.1770 -1.4331 -1.2978
16868TIP3   OH272094   5.657   2.723  13.225  0.3383 -0.0650 -0.4319
16868TIP3    H172095   5.642   2.811  13.190 -2.3892 -0.5077 -0.5474
16868TIP3    H272096   5.716   2.682  13.162 -0.3450  0.8769 -1.7344
16869TIP3   OH272097   2.684   0.410   1.753  0.4470 -0.4683  0.2480
16869TIP3    H172098   2.742   0.346   1.712  0.9777 -0.9603  1.7134
16869TIP3    H272099   2.612   0.357   1.788  0.0201 -0.0545  0.0150
16870TIP3   OH272100   0.179   3.231   1.091 -0.8476  0.2925 -0.5477
16870TIP3    H172101   0.259   3.282   1.077 -0.6322  0.0685 -0.1374
16870TIP3    H272102   0.109   3.289   1.063 -0.7052  1.2789  1.0213
16871TIP3   OH272103   3.611   1.969  10.999  0.0603  0.1450 -0.2410
16871TIP3    H172104   3.546   1.969  10.929 -1.0623  0.7572  0.7668
16871TIP3    H272105   3.695   1.969  10.953 -0.6449  0.4317 -1.5834
16872TIP3   OH272106   5.440   5.312   4.144  0.2885 -0.0344 -0.1512
16872TIP3    H172107   5.400   5.251   4.206  2.0708 -0.2447  0.8517
16872TIP3    H272108   5.425   5.272   4.059  0.1935 -1.1825  0.3792
16873TIP3   OH272109   4.335   0.514  14.689 -0.0917  0.3470 -0.1359
16873TIP3    H172110   4.287   0.542  14.611  1.4886  2.0462 -0.5691
16873TIP3    H272111   4.293   0.560  14.761 -1.5011 -1.1611  0.0612
16874TIP3   OH272112   1.213   1.483  13.806  0.2144  0.7181 -0.6598
16874TIP3    H172113   1.179   1.467  13.895 -0.0876  0.0567 -0.8884
16874TIP3    H272114   1.302   1.518  13.821 -0.0248  1.1108 -0.0909
16875TIP3   OH272115   1.123   2.286   4.453  0.3625  0.1589  0.1514
16875TIP3    H172116   1.150   2.374   4.481 -0.7951  0.6348 -0.1307
16875TIP3    H272117   1.027   2.290   4.455  0.2850 -0.6980 -1.1130
16876TIP3   OH272118   1.293   5.614  10.567  0.0842  0.6580 -0.0401
16876TIP3    H172119   1.235   5.617  10.643  0.8822 -1.3236  0.7259
16876TIP3    H272120   1.317   5.522  10.558  1.9127  1.1757 -1.2437
16877TIP3   OH272121   5.960   5.108  13.954  0.3906 -0.3306  0.1490
16877TIP3    H172122   5.948   5.020  13.988  1.9928 -0.9444 -0.7617
16877TIP3    H272123   5.940   5.101  13.860 -2.8303  1.0764  0.5948
16878TIP3   OH272124   2.340   0.595   5.756 -0.1355 -0.1152 -0.7302
16878TIP3    H172125   2.273   0.548   5.806  0.6340 -0.0532  0.3911
16878TIP3    H272126   2.408   0.616   5.820  0.4444  0.8137 -1.6158
16879TIP3   OH272127   0.225   4.466   5.117 -0.2698 -0.1418  0.1417
16879TIP3    H172128   0.310   4.487   5.154 -0.3669  0.5682 -0.0192
16879TIP3    H272129   0.212   4.374   5.138  0.3834 -0.1696  0.4652
16880TIP3   OH272130   2.319   3.697   1.792 -0.1460  0.0932 -0.3698
16880TIP3    H172131   2.250   3.638   1.822  0.0355  0.1662  0.2191
16880TIP3    H272132   2.385   3.640   1.752 -0.5771  0.0300 -0.9905
16881TIP3   OH272133   2.592   3.829   3.583  0.2849 -0.5266 -0.0288
16881TIP3    H172134   2.622   3.868   3.664  0.0177 -0.0448 -0.1604
16881TIP3    H272135   2.507   3.868   3.567  0.1966 -0.8529 -0.3775
16882TIP3   OH272136   5.365   5.751   2.660  0.6340 -0.3095  0.0918
16882TIP3    H172137   5.431   5.814   2.692 -0.0213 -0.2222  1.3692
16882TIP3    H272138   5.337   5.787   2.576  0.1126  1.2740  0.8916
16883TIP3   OH272139   5.521   2.067   5.672 -0.3111 -0.2010 -0.4419
16883TIP3    H172140   5.487   2.066   5.582  0.9421  1.2939 -0.9901
16883TIP3    H272141   5.600   2.013   5.668 -0.0043  0.2374 -0.3622
16884TIP3   OH272142   0.466   1.695   0.873  0.2591 -0.3627  0.4155
16884TIP3    H172143   0.457   1.601   0.889  1.9879 -0.3655  1.6865
16884TIP3    H272144   0.398   1.735   0.927 -0.5984 -0.8539 -0.2600
16885TIP3   OH272145   2.446   3.130   3.275  0.2935 -0.4325 -0.0568
16885TIP3    H172146   2.386   3.205   3.266 -0.9045 -1.2504  0.7920
16885TIP3    H272147   2.473   3.110   3.186 -0.8890 -0.1843 -0.4834
16886TIP3   OH272148   3.892   3.948   3.675  0.0385  0.1564  0.3067
16886TIP3    H172149   3.894   3.970   3.768  0.0779 -0.3303  0.4251
16886TIP3    H272150   3.817   3.889   3.666  1.8082 -2.3223  0.6238
16887TIP3   OH272151   5.910   5.194   2.968 -0.1042  0.5247  0.1045
16887TIP3    H172152   5.820   5.219   2.988 -0.1461  1.5558 -1.2612
16887TIP3    H272153   5.963   5.269   2.997  0.1427  0.6349 -0.6148
16888TIP3   OH272154   3.233   4.711   0.529 -0.3062  0.5636  0.1351
16888TIP3    H172155   3.294   4.775   0.565 -0.6012  1.6291 -1.1758
16888TIP3    H272156   3.173   4.690   0.601  1.5577 -0.5125  1.4471
16889TIP3   OH272157   3.372   3.425  11.842 -0.2982 -0.0317  0.1781
16889TIP3    H172158   3.409   3.424  11.930  1.3697  0.4335 -0.4716
16889TIP3    H272159   3.289   3.472  11.852 -0.2407 -0.1595  1.5155
16890TIP3   OH272160   6.514   0.190   3.196  0.3089 -0.1417  0.0561
16890TIP3    H172161   6.582   0.176   3.261  0.9969  0.6028 -0.4903
16890TIP3    H272162   6.488   0.102   3.170  0.3463 -0.4418  0.9895
16891TIP3   OH272163   4.235   0.228   2.535  0.2586 -0.2821 -0.7406
16891TIP3    H172164   4.146   0.225   2.570  0.4705  0.5364 -0.0702
16891TIP3    H272165   4.225   0.250   2.443 -0.1842  1.9093 -0.2171
16892TIP3   OH272166   4.384   1.445  14.687  0.2381 -0.0457 -0.6945
16892TIP3    H172167   4.443   1.438  14.762 -1.0469  1.5197  0.5577
16892TIP3    H272168   4.321   1.374  14.700 -0.8893  1.1179  0.6639
16893TIP3   OH272169   0.999   0.456  15.370  0.4470 -0.2007 -0.1898
16893TIP3    H172170   0.963   0.386  15.316 -1.1152  0.3894  0.0238
16893TIP3    H272171   0.983   0.427  15.460  3.7301 -1.5509  0.1027
16894TIP3   OH272172   1.331   4.512  10.932  0.1889  0.0793  0.3078
16894TIP3    H172173   1.267   4.476  10.872 -0.3386  1.4001  0.0498
16894TIP3    H272174   1.410   4.461  10.917  0.1431  0.5336 -1.6921
16895TIP3   OH272175   1.632   0.434   4.404 -0.4690 -0.1299  0.1872
16895TIP3    H172176   1.666   0.481   4.481 -2.5713  1.1859  0.3971
16895TIP3    H272177   1.638   0.342   4.427  0.1282  0.1934  1.4031
16896TIP3   OH272178   5.032   4.519  15.784  0.1639 -0.2401 -0.0726
16896TIP3    H172179   5.047   4.496  15.692 -3.2770  0.6233 -0.9893
16896TIP3    H272180   5.016   4.435  15.827 -1.1669 -0.4839 -0.9748
16897TIP3   OH272181   3.335   0.122  10.764 -1.1342 -0.3688 -0.0573
16897TIP3    H172182   3.408   0.077  10.807 -1.3155 -0.0358  0.6187
16897TIP3    H272183   3.280   0.052  10.729 -1.1236 -0.6658  0.5025
16898TIP3   OH272184   3.164   0.054   4.651  0.5256  0.2061 -0.0934
16898TIP3    H172185   3.108   0.107   4.708  0.8231 -0.1700  0.5544
16898TIP3    H272186   3.214   0.119   4.600 -0.7828  0.5488 -0.9926
16899TIP3   OH272187   2.663   3.949  13.903 -0.2195 -0.1107 -0.4687
16899TIP3    H172188   2.701   3.889  13.967  0.4218  2.0000  1.2634
16899TIP3    H272189   2.575   3.916  13.888  0.1023 -1.4552  0.4301
16900TIP3   OH272190   1.146   5.107   3.141  0.4172 -0.5362 -0.2496
16900TIP3    H172191   1.129   5.051   3.217 -1.8960 -1.8659 -1.6279
16900TIP3    H272192   1.117   5.194   3.168  1.3624 -0.5814  0.9743
16901TIP3   OH272193   1.733   3.894   3.322  0.2868  0.5043 -0.2796
16901TIP3    H172194   1.683   3.962   3.367  0.2185  0.8312 -0.8410
16901TIP3    H272195   1.789   3.856   3.389  1.5100  2.2121 -0.2825
16902TIP3   OH272196   5.975   4.126   4.631  0.1814 -0.2787  0.2871
16902TIP3    H172197   6.033   4.086   4.695  0.9875  0.8755  0.3164
16902TIP3    H272198   5.889   4.089   4.650  0.2420  0.5623  2.5248
16903TIP3   OH272199   0.809   3.575   0.946  0.2903  0.1733 -0.1040
16903TIP3    H172200   0.904   3.559   0.943  0.5078  1.0825  1.1043
16903TIP3    H272201   0.771   3.490   0.964  0.7588 -0.4556 -1.9111
16904TIP3   OH272202   1.134   6.678  12.679  0.1578 -0.3759 -0.4148
16904TIP3    H172203   1.074   6.656  12.608  1.3892  1.2129 -2.0276
16904TIP3    H272204   1.214   6.630  12.658  1.2756  1.8073 -1.3864
16905TIP3   OH272205   2.492   1.012  14.321  0.1779  0.1620 -0.4711
16905TIP3    H172206   2.420   1.051  14.370  1.9179  0.1258  2.3206
16905TIP3    H272207   2.482   1.046  14.232 -1.7218  2.2895  0.4697
16906TIP3   OH272208   5.150   5.508  14.606  0.1208 -0.5276  0.5951
16906TIP3    H172209   5.128   5.597  14.631 -1.4524 -1.2046  1.8453
16906TIP3    H272210   5.165   5.512  14.512  1.2564  1.2454  0.8199
16907TIP3   OH272211   4.486   0.452  16.759 -0.8453 -0.2445 -0.0403
16907TIP3    H172212   4.476   0.540  16.795  2.0133 -0.2313  0.9675
16907TIP3    H272213   4.421   0.399  16.806 -0.8692  0.8402  1.1954
16908TIP3   OH272214   5.260   1.965  13.929 -0.0861  0.0824  0.1576
16908TIP3    H172215   5.174   1.923  13.926 -0.1782  0.2872 -0.2511
16908TIP3    H272216   5.251   2.041  13.871  1.2828 -1.6745 -2.6017
16909TIP3   OH272217   1.772   6.091   2.063  0.2163 -0.9403 -0.3511
16909TIP3    H172218   1.786   6.037   2.141 -0.5873 -2.6704 -1.3451
16909TIP3    H272219   1.739   6.030   1.998  0.4435  0.5529 -1.9277
16910TIP3   OH272220   5.642   4.532   4.957 -0.2842 -0.3700 -0.4276
16910TIP3    H172221   5.583   4.504   5.026 -0.5488 -1.2196 -0.9797
16910TIP3    H272222   5.729   4.510   4.990 -0.3577 -0.1790 -0.0993
16911TIP3   OH272223   0.518   2.152  11.528  0.1431  0.3008 -0.4106
16911TIP3    H172224   0.578   2.191  11.591 -0.9628 -1.2270  1.6937
16911TIP3    H272225   0.527   2.057  11.541 -0.9619 -0.0208 -1.7298
16912TIP3   OH272226   0.135   6.068  11.362 -0.2936  0.2217  0.1388
16912TIP3    H172227   0.071   6.009  11.403 -0.1720  0.6981  1.0419
16912TIP3    H272228   0.108   6.072  11.270 -0.0362 -1.5995 -0.0605
16913TIP3   OH272229   5.579   5.372   0.536 -0.7744  0.7208  0.7550
16913TIP3    H172230   5.606   5.429   0.608 -1.2267  3.2171 -0.9274
16913TIP3    H272231   5.557   5.289   0.578 -0.0932  1.7703  3.3553
16914TIP3   OH272232   0.140   2.337  15.880 -0.0515  0.5468 -0.3609
16914TIP3    H172233   0.189   2.296  15.809 -0.7933  0.6735 -0.9554
16914TIP3    H272234   0.061   2.284  15.889 -0.9541  1.7045 -1.0373
16915TIP3   OH272235   5.915   5.009  16.486 -0.7323  0.1521  0.0202
16915TIP3    H172236   5.992   5.015  16.542 -0.9495  0.1096  0.3249
16915TIP3    H272237   5.860   4.942  16.527 -0.2564 -0.9246 -1.0163
16916TIP3   OH272238   2.703   2.681   3.252  0.0971  0.1577 -0.1845
16916TIP3    H172239   2.715   2.679   3.347  0.1519  0.9777 -0.1649
16916TIP3    H272240   2.681   2.773   3.232 -1.3107 -0.2887 -0.8006
16917TIP3   OH272241   1.913   2.024  14.721  0.7477 -0.6810  0.3441
16917TIP3    H172242   1.824   2.031  14.684  0.6408  1.1896  0.8582
16917TIP3    H272243   1.899   1.993  14.811  0.5765 -0.1384  0.5098
16918TIP3   OH272244   4.094   5.942   1.619 -0.4280  0.1462  0.2323
16918TIP3    H172245   4.083   5.852   1.587  1.0572 -0.2859  0.8156
16918TIP3    H272246   4.145   5.985   1.550 -0.1536  0.1995  0.4666
16919TIP3   OH272247   6.721   2.885   3.858 -0.6389  0.1207  0.4928
16919TIP3    H172248   6.739   2.948   3.927  0.1661 -0.7260  1.0668
16919TIP3    H272249   6.720   2.800   3.902 -2.9525 -0.2122 -0.0323
16920TIP3   OH272250   4.406   3.257  13.597  0.8441 -0.4066 -0.1216
16920TIP3    H172251   4.343   3.312  13.643  0.4425 -0.8873 -0.0782
16920TIP3    H272252   4.352   3.187  13.559  1.1256  0.0926 -1.5057
16921TIP3   OH272253   1.334   0.200  17.092  0.9142 -0.3229 -0.4440
16921TIP3    H172254   1.272   0.177  17.023 -0.2432  1.5379 -0.0751
16921TIP3    H272255   1.420   0.179  17.055  0.1921 -1.4124 -1.5850
16922TIP3   OH272256   5.682   5.848  10.654 -0.0817  0.2964 -0.5642
16922TIP3    H172257   5.641   5.821  10.572  0.4142  0.8027 -0.9847
16922TIP3    H272258   5.681   5.770  10.709 -1.7821  0.3316 -0.4801
16923TIP3   OH272259   1.074   2.365  14.980 -0.6010  0.8528  0.3313
16923TIP3    H172260   1.154   2.406  14.948 -1.3640 -0.6432 -4.2814
16923TIP3    H272261   1.003   2.417  14.943 -1.7363  0.3391  1.6780
16924TIP3   OH272262   3.688   2.819   1.194  0.5860 -0.5493 -0.1430
16924TIP3    H172263   3.707   2.755   1.125  0.9405  0.2435 -0.7849
16924TIP3    H272264   3.667   2.765   1.270  1.8122 -1.4580 -0.4028
16925TIP3   OH272265   5.852   3.016   0.817  0.2736  0.6125 -0.1651
16925TIP3    H172266   5.821   3.095   0.860  1.4226 -1.2253  4.7127
16925TIP3    H272267   5.943   3.007   0.844 -0.2784 -3.1454  1.0522
16926TIP3   OH272268   4.118   6.668   4.557  0.0464 -0.4408  0.4773
16926TIP3    H172269   4.154   6.582   4.578  0.4500 -0.5420 -0.5479
16926TIP3    H272270   4.175   6.730   4.601  0.6441 -0.6508  0.0060
16927TIP3   OH272271   5.968   1.963  14.608  0.1835  0.3843 -0.0647
16927TIP3    H172272   5.961   1.871  14.582  1.0893  0.1212  0.5666
16927TIP3    H272273   5.997   1.960  14.699  0.3438  1.2999 -0.0728
16928TIP3   OH272274   4.166   4.302   3.447  0.0908  0.1651 -0.2900
16928TIP3    H172275   4.241   4.299   3.389 -1.1507  0.6878 -2.0275
16928TIP3    H272276   4.179   4.231   3.509  1.4152 -0.5035 -1.3038
16929TIP3   OH272277   1.679   2.586  15.616  0.1712 -0.1358  0.0921
16929TIP3    H172278   1.636   2.612  15.698 -1.1146  0.0586 -0.6162
16929TIP3    H272279   1.733   2.662  15.592 -0.1832  0.1834  0.2865
16930TIP3   OH272280   0.383   1.522  16.832  0.1751 -0.2719  0.2801
16930TIP3    H172281   0.403   1.438  16.875  2.4130  0.9638  1.8812
16930TIP3    H272282   0.397   1.587  16.900 -1.2682  1.4597 -0.9988
16931TIP3   OH272283   2.767   2.736  12.326 -0.5177  0.0785 -0.1025
16931TIP3    H172284   2.686   2.783  12.347  0.8748  1.6367  2.2894
16931TIP3    H272285   2.832   2.805  12.315  0.8817 -1.1977 -0.1487
16932TIP3   OH272286   2.934   0.603   1.147 -0.7564  0.4109 -0.0371
16932TIP3    H172287   2.972   0.612   1.060 -1.2269  1.0975 -0.1867
16932TIP3    H272288   3.007   0.620   1.207 -0.2431 -0.8750 -0.2742
16933TIP3   OH272289   2.111   4.739   2.813  0.4433 -0.0052 -0.2587
16933TIP3    H172290   2.062   4.789   2.748  1.7176 -1.2034 -2.2649
16933TIP3    H272291   2.201   4.741   2.781  1.1352 -0.6394  1.5162
16934TIP3   OH272292   1.401   3.009  14.515  0.2235  0.6043 -0.2079
16934TIP3    H172293   1.447   3.055  14.445 -0.3882  1.0857 -0.3088
16934TIP3    H272294   1.312   3.046  14.513  0.3757  1.1294  1.2650
16935TIP3   OH272295   6.592   2.459   4.390 -0.2238  0.3858 -0.2027
16935TIP3    H172296   6.651   2.529   4.361 -0.6108  1.2238  0.9306
16935TIP3    H272297   6.506   2.502   4.395 -0.1627  0.3760  2.2558
16936TIP3   OH272298   6.094   0.865  15.473  0.5248  0.4855  0.4580
16936TIP3    H172299   6.135   0.780  15.487  0.3457  0.6359  2.0438
16936TIP3    H272300   6.140   0.901  15.396  0.1006 -1.3134 -0.6999
16937TIP3   OH272301   5.895   1.940  12.366  0.2345 -0.5928  0.1278
16937TIP3    H172302   5.948   1.985  12.300 -0.4845 -0.4449 -0.3555
16937TIP3    H272303   5.904   1.995  12.445  0.9684 -0.6868  0.1172
16938TIP3   OH272304   5.781   5.331   2.317 -0.0582  0.3137  0.2659
16938TIP3    H172305   5.780   5.258   2.255  1.2144 -0.9270  1.6467
16938TIP3    H272306   5.688   5.349   2.334 -0.4115  0.1392 -1.3411
16939TIP3   OH272307   2.090   3.459   3.216  0.5989 -0.1724 -0.4449
16939TIP3    H172308   2.103   3.376   3.262  2.5893  0.8073  0.8837
16939TIP3    H272309   2.010   3.495   3.254 -0.2897 -1.4370 -1.0322
16940TIP3   OH272310   5.831   0.677  13.251  0.4075  0.2645 -0.1832
16940TIP3    H172311   5.761   0.714  13.197 -0.0035 -0.3000 -0.0445
16940TIP3    H272312   5.817   0.714  13.338  0.1257 -0.0511 -0.0947
16941TIP3   OH272313   2.256   5.374  15.779  0.0946 -0.6360  0.2483
16941TIP3    H172314   2.284   5.357  15.690  0.9188 -1.4996  0.6517
16941TIP3    H272315   2.308   5.450  15.806  0.2897 -0.7441  0.1838
16942TIP3   OH272316   3.540   6.441   4.590  0.2314 -0.0351  0.2760
16942TIP3    H172317   3.533   6.348   4.570  0.0225  0.1718 -0.7009
16942TIP3    H272318   3.559   6.482   4.505 -0.5858  0.9008  0.5175
16943TIP3   OH272319   5.867   6.348   0.596 -0.2885  1.0714  0.0561
16943TIP3    H172320   5.920   6.426   0.612  2.8167 -0.5709 -1.3482
16943TIP3    H272321   5.904   6.282   0.655 -1.0294 -0.0573 -0.7033
16944TIP3   OH272322   6.665   3.037  10.981 -0.1597  0.2642 -0.2264
16944TIP3    H172323   6.618   2.979  10.921  0.6824  1.1765 -1.8488
16944TIP3    H272324   6.696   3.109  10.925 -0.6617  1.9857  1.5832
16945TIP3   OH272325   5.482   3.220   2.806  0.2198  0.2634  0.6650
16945TIP3    H172326   5.417   3.254   2.868  0.1178 -0.3390  0.8926
16945TIP3    H272327   5.516   3.298   2.762  0.1083  0.6749  1.2968
16946TIP3   OH272328   6.705   4.652   1.065  0.1150 -0.3910 -0.4519
16946TIP3    H172329   6.663   4.650   1.150  1.6690 -0.1018  0.3648
16946TIP3    H272330   6.756   4.571   1.061  1.8241  0.6065 -0.1087
16947TIP3   OH272331   0.031   1.798  13.377 -0.3007  0.6691  0.8698
16947TIP3    H172332   0.073   1.740  13.440 -2.6900 -2.3221 -0.0508
16947TIP3    H272333  -0.028   1.852  13.429 -1.7608 -1.3041  1.3669
16948TIP3   OH272334   6.608   3.252   4.469  0.1788 -0.4658  0.3495
16948TIP3    H172335   6.594   3.293   4.554  0.3081 -3.4512  1.9330
16948TIP3    H272336   6.703   3.245   4.460  0.1526 -0.6126  0.1835
16949TIP3   OH272337   1.369   1.001   3.305  0.1950 -0.3813  0.3069
16949TIP3    H172338   1.421   0.942   3.360  1.1213  0.3094  0.1983
16949TIP3    H272339   1.428   1.075   3.288 -1.7817  1.9543  2.7371
16950TIP3   OH272340   3.706   1.207  13.225 -0.3194 -0.2104  0.3098
16950TIP3    H172341   3.799   1.187  13.239 -0.3883 -1.2389 -0.5860
16950TIP3    H272342   3.704   1.257  13.144 -0.6817 -1.6706 -0.6118
16951TIP3   OH272343   2.881   2.939   1.276 -0.3237 -0.4613  0.5601
16951TIP3    H172344   2.835   2.963   1.356  0.7766  1.7640  0.6117
16951TIP3    H272345   2.972   2.926   1.303 -0.1415 -0.7028 -0.1481
16952TIP3   OH272346   3.662   4.694  16.727 -0.4711  0.1000 -0.2858
16952TIP3    H172347   3.713   4.673  16.805  0.8008  1.2008 -0.7919
16952TIP3    H272348   3.677   4.621  16.668 -0.4345 -0.1408  0.0189
16953TIP3   OH272349   5.584   1.937   0.657 -0.4280 -0.5408  0.3338
16953TIP3    H172350   5.594   2.030   0.637 -0.4908 -0.7149 -0.5442
16953TIP3    H272351   5.653   1.893   0.608 -1.5252 -1.1299 -0.7628
16954TIP3   OH272352   2.034   4.321   3.641  0.0381 -0.2117 -0.0245
16954TIP3    H172353   2.030   4.271   3.722  1.7800 -0.0665  0.1760
16954TIP3    H272354   2.035   4.255   3.572 -1.3771 -0.3353  0.0369
16955TIP3   OH272355   6.494   1.339  13.637 -0.1398  0.2465 -0.0030
16955TIP3    H172356   6.478   1.390  13.558  1.3439  0.8600  0.0690
16955TIP3    H272357   6.497   1.248  13.607  1.1592  0.5309 -0.8008
16956TIP3   OH272358   5.465   1.852  13.816 -0.3398 -0.0610 -0.4318
16956TIP3    H172359   5.394   1.903  13.854  0.3038  1.3814 -1.0913
16956TIP3    H272360   5.468   1.879  13.724  1.2327  0.1674 -0.3511
16957TIP3   OH272361   5.824   4.648   0.717  1.1497 -0.8213 -0.1134
16957TIP3    H172362   5.843   4.713   0.786 -0.2884 -0.3997 -0.0954
16957TIP3    H272363   5.743   4.678   0.677  0.0683 -2.9724  0.3347
16958TIP3   OH272364   4.944   3.385   2.339  0.0296 -0.2094 -0.4644
16958TIP3    H172365   4.977   3.441   2.410  3.0148 -0.5976 -1.3847
16958TIP3    H272366   4.893   3.444   2.284 -1.1205  0.4251  1.1894
16959TIP3   OH272367   3.735   0.662  14.031  0.0228 -0.3776 -0.6522
16959TIP3    H172368   3.740   0.571  14.060  0.0061 -0.1140  0.2112
16959TIP3    H272369   3.685   0.658  13.950  0.1031 -1.1451 -0.6795
16960TIP3   OH272370   6.536   2.762   3.085  0.1630  0.0711  0.1353
16960TIP3    H172371   6.606   2.783   3.146 -0.1586 -0.0397  0.5473
16960TIP3    H272372   6.581   2.739   3.004  0.5477  2.0940 -0.2799
16961TIP3   OH272373   2.805   3.535   3.458  0.0892 -0.0583  0.1023
16961TIP3    H172374   2.861   3.592   3.510 -1.5931  1.6734  0.1126
16961TIP3    H272375   2.780   3.588   3.382 -0.0469 -1.4452 -0.8763
16962TIP3   OH272376   6.832   1.613  15.118 -0.2489 -0.4396  0.4263
16962TIP3    H172377   6.813   1.571  15.201 -0.7085 -0.2528  0.4191
16962TIP3    H272378   6.926   1.599  15.104 -0.4047 -1.4828  0.4003
16963TIP3   OH272379   3.225   6.753  15.857 -0.5465 -0.3665  0.4387
16963TIP3    H172380   3.276   6.674  15.874  0.2857  0.2308  0.8370
16963TIP3    H272381   3.259   6.786  15.773 -0.2923  0.0024  0.6780
16964TIP3   OH272382   6.287   4.928   6.519  0.2652 -0.2308 -0.2192
16964TIP3    H172383   6.254   5.013   6.488 -0.8465 -0.5127  0.1468
16964TIP3    H272384   6.371   4.949   6.560  1.1560  0.3431 -2.1923
16965TIP3   OH272385   0.253   3.884   0.705 -0.7993  0.4114  0.3809
16965TIP3    H172386   0.211   3.937   0.637  0.8509  0.9750 -0.2598
16965TIP3    H272387   0.256   3.941   0.781 -1.0308  0.4277  0.3792
16966TIP3   OH272388   4.289   2.657   4.769 -0.0372  1.2854 -0.4527
16966TIP3    H172389   4.310   2.572   4.808  1.0471  1.8401  0.2374
16966TIP3    H272390   4.373   2.688   4.735 -0.3681  2.1797 -0.4714
16967TIP3   OH272391   1.909   5.741  11.716  0.0684 -0.0567 -0.3837
16967TIP3    H172392   1.916   5.716  11.808  0.8966  0.9887 -0.1457
16967TIP3    H272393   1.825   5.786  11.710  0.6861  1.2260  0.2158
16968TIP3   OH272394   0.588   4.307   5.749  0.1551  0.1572 -0.6202
16968TIP3    H172395   0.619   4.310   5.839 -2.5782  0.6868  0.4002
16968TIP3    H272396   0.597   4.397   5.718  0.3886  0.1375 -0.6092
16969TIP3   OH272397   6.757   3.999  15.201  0.2755  0.0675 -0.0569
16969TIP3    H172398   6.849   3.993  15.175  0.5553  2.1537  0.2763
16969TIP3    H272399   6.710   4.017  15.120  0.4257  0.8322  0.0121
16970TIP3   OH272400   5.896   0.784   0.753  0.0081  0.0350 -0.5119
16970TIP3    H172401   5.964   0.774   0.686 -0.0331 -0.0567 -0.5408
16970TIP3    H272402   5.909   0.872   0.788  0.8208 -0.3501  0.2153
16971TIP3   OH272403   3.162   4.475  15.063 -0.0524 -0.1835  0.1484
16971TIP3    H172404   3.169   4.463  14.969  0.1375  0.1022  0.1256
16971TIP3    H272405   3.241   4.434  15.099 -0.2060 -0.4409  0.1991
16972TIP3   OH272406   0.630   1.359   0.922  0.2368  0.6007 -0.1187
16972TIP3    H172407   0.560   1.422   0.935 -0.2035  0.5316 -1.8242
16972TIP3    H272408   0.631   1.343   0.827  1.5597 -0.5462  0.0384
16973TIP3   OH272409   6.558   2.883   2.768 -0.3639 -0.1567 -0.2788
16973TIP3    H172410   6.493   2.813   2.770 -0.6954  0.1267 -0.8701
16973TIP3    H272411   6.508   2.962   2.748 -0.1962  0.4976  1.6965
16974TIP3   OH272412   1.491   1.371   0.656 -0.6762 -0.4161  0.6671
16974TIP3    H172413   1.561   1.432   0.632  0.7468 -1.8032  1.1146
16974TIP3    H272414   1.417   1.396   0.600  0.6902  0.1018 -0.9999
16975TIP3   OH272415   2.930   0.568  11.665 -0.9501 -0.1738 -0.1837
16975TIP3    H172416   2.990   0.495  11.680 -1.4984 -0.8288 -1.0906
16975TIP3    H272417   2.948   0.629  11.737  1.4480  0.1047 -0.9409
16976TIP3   OH272418   6.567   1.814   1.547 -0.0505  0.2928  0.9709
16976TIP3    H172419   6.640   1.763   1.511  0.6416  1.9898 -0.1593
16976TIP3    H272420   6.609   1.885   1.596 -0.9565  0.5908  1.3292
16977TIP3   OH272421   0.333   3.711  16.758 -0.3839  0.4371  0.6829
16977TIP3    H172422   0.347   3.650  16.685 -0.2732 -0.5537  1.5081
16977TIP3    H272423   0.415   3.760  16.764 -0.3596  0.4563  0.2026
16978TIP3   OH272424   1.484   2.775   1.949 -0.1264 -0.1200  0.3329
16978TIP3    H172425   1.396   2.738   1.954 -0.1277  0.0270  2.0232
16978TIP3    H272426   1.481   2.838   1.877 -1.2741 -0.4146  0.1147
16979TIP3   OH272427   1.487   3.537  13.517  0.3897 -0.1544  0.1308
16979TIP3    H172428   1.471   3.544  13.423 -0.1518  0.7302  0.2738
16979TIP3    H272429   1.424   3.472  13.548 -1.4478  1.6389  0.3193
16980TIP3   OH272430   5.314   3.598   5.682 -0.2195 -0.0580  0.2356
16980TIP3    H172431   5.354   3.681   5.653  2.7887 -0.9739  1.3807
16980TIP3    H272432   5.295   3.612   5.775 -2.0976  0.1227 -0.1387
16981TIP3   OH272433   4.882   5.653   4.867  0.4013 -0.8050 -0.0339
16981TIP3    H172434   4.787   5.655   4.875  0.4296 -0.0735  0.2244
16981TIP3    H272435   4.914   5.660   4.957  0.7021 -1.7251 -0.0612
16982TIP3   OH272436   5.678   0.948  12.714 -0.3648  0.2143  0.0824
16982TIP3    H172437   5.602   0.899  12.683  0.1161  0.1319 -1.0216
16982TIP3    H272438   5.692   0.917  12.804 -0.3372 -1.3686 -0.4421
16983TIP3   OH272439   2.889   6.401   3.373  0.0721 -0.3889  0.4029
16983TIP3    H172440   2.834   6.479   3.377 -0.0312 -0.2481 -2.0907
16983TIP3    H272441   2.968   6.425   3.421 -0.0567  1.2036 -0.1253
16984TIP3   OH272442   2.367   6.118   4.427 -0.3272 -0.7309  0.2143
16984TIP3    H172443   2.382   6.156   4.341 -0.6581 -2.0010 -0.4277
16984TIP3    H272444   2.432   6.161   4.483  0.5260 -0.5501 -0.8665
16985TIP3   OH272445   5.820   1.757   5.061 -0.1591  0.0104 -0.2983
16985TIP3    H172446   5.800   1.724   5.148  0.1713 -2.0710 -0.9663
16985TIP3    H272447   5.903   1.715   5.038 -0.1532  0.6639 -1.5513
16986TIP3   OH272448   5.174   3.151   1.607 -0.1765  0.3714  0.3953
16986TIP3    H172449   5.229   3.188   1.538  1.1281  0.2406  1.3331
16986TIP3    H272450   5.170   3.057   1.586  1.7885 -0.0117  1.4736
16987TIP3   OH272451   6.014   0.555   2.478  0.4029 -0.1450  0.0621
16987TIP3    H172452   6.071   0.633   2.481 -2.3052  2.0876 -1.2900
16987TIP3    H272453   6.014   0.529   2.386  0.9004 -1.5049  0.4230
16988TIP3   OH272454   6.349   3.629  11.645  0.4152  0.1200  0.0474
16988TIP3    H172455   6.312   3.627  11.734  0.1249  0.7320 -0.0472
16988TIP3    H272456   6.438   3.661  11.657  1.2968 -2.2596  0.3821
16989TIP3   OH272457   1.560   2.547   2.114 -0.4790 -0.2325 -0.3945
16989TIP3    H172458   1.647   2.512   2.091 -1.4392 -2.3301 -1.0787
16989TIP3    H272459   1.566   2.641   2.096  1.4487 -0.4351 -1.0104
16990TIP3   OH272460   0.441   4.657  12.150 -1.1160  0.3990  0.0148
16990TIP3    H172461   0.376   4.590  12.171 -0.6409 -0.4135 -1.0151
16990TIP3    H272462   0.519   4.607  12.125 -0.4515  1.3515  0.1579
16991TIP3   OH272463   0.928   0.298  16.474 -0.1637  0.5683  0.1481
16991TIP3    H172464   0.888   0.250  16.402  1.3813 -1.7873  0.7790
16991TIP3    H272465   0.955   0.381  16.435 -1.1053  0.1607 -1.4643
16992TIP3   OH272466   5.022   5.099   0.510  0.8819  0.0061  0.1312
16992TIP3    H172467   5.062   5.064   0.430 -2.0495 -0.6947 -1.1814
16992TIP3    H272468   5.044   5.192   0.508  0.2332  0.1842 -2.0074
16993TIP3   OH272469   0.558   2.116   5.149  0.2356 -0.3187 -0.2473
16993TIP3    H172470   0.478   2.102   5.200  1.1904 -0.0695  1.3740
16993TIP3    H272471   0.535   2.186   5.088 -0.8701 -0.4588 -0.0214
16994TIP3   OH272472   6.475   4.643   4.682 -0.6947  0.5757  0.5275
16994TIP3    H172473   6.471   4.735   4.656  1.3227  0.7642  0.7489
16994TIP3    H272474   6.481   4.645   4.778 -0.2623  0.2456  0.5121
16995TIP3   OH272475   6.334   1.385  13.027  0.2643 -0.6596 -0.1313
16995TIP3    H172476   6.325   1.418  13.117 -0.9646 -0.5123 -0.2945
16995TIP3    H272477   6.265   1.319  13.019  0.5865 -0.9177 -0.8665
16996TIP3   OH272478   4.740   6.185  11.018  0.3028  0.2662  0.3140
16996TIP3    H172479   4.698   6.105  11.050  0.3713 -0.2409 -0.7970
16996TIP3    H272480   4.775   6.160  10.932  1.9725  0.9650  0.7611
16997TIP3   OH272481   4.171   4.875   0.608 -0.5363 -0.2063 -0.2559
16997TIP3    H172482   4.215   4.792   0.624  0.4532  0.7587  2.5202
16997TIP3    H272483   4.193   4.897   0.517 -0.2117 -2.5716 -0.8058
16998TIP3   OH272484   4.860   6.078  14.308 -0.1337  0.2338 -0.1019
16998TIP3    H172485   4.801   6.092  14.382  0.6042  1.0786  0.3397
16998TIP3    H272486   4.851   6.158  14.255 -1.9318 -1.0292 -1.8701
16999TIP3   OH272487   1.235   3.015   1.538  0.5946  0.1256  0.0116
16999TIP3    H172488   1.252   2.938   1.484 -0.1910  0.9340 -1.4252
16999TIP3    H272489   1.306   3.075   1.518  0.3096  0.4252 -0.1026
17000TIP3   OH272490   4.878   5.336  10.978 -0.1045 -0.3462  0.2473
17000TIP3    H172491   4.925   5.367  11.055  0.5530 -2.1491  0.6290
17000TIP3    H272492   4.929   5.261  10.947 -0.9849 -0.3572 -1.2644
17001TIP3   OH272493   2.117   3.083  11.470 -0.9696 -0.5791 -0.4540
17001TIP3    H172494   2.147   3.011  11.527 -1.7714 -0.1769  0.4979
17001TIP3    H272495   2.104   3.042  11.385  0.9914 -1.0438 -0.5792
17002TIP3   OH272496   3.804   4.390  12.868  0.4396 -0.2849  0.2603
17002TIP3    H172497   3.722   4.373  12.821  0.3971 -1.4037  0.6837
17002TIP3    H272498   3.839   4.470  12.829 -0.8863  0.2513  0.1155
17003TIP3   OH272499   5.144   2.593   1.767 -0.1974  0.4600 -0.1416
17003TIP3    H172500   5.160   2.582   1.674  0.5517 -0.8618  0.1249
17003TIP3    H272501   5.185   2.517   1.808 -1.4280  0.4651  1.1769
17004TIP3   OH272502   1.765   1.739  16.783 -0.3557  0.0241 -0.6649
17004TIP3    H172503   1.704   1.808  16.757 -0.7167 -0.2740 -0.6238
17004TIP3    H272504   1.839   1.785  16.821 -1.3781  0.3307  1.0320
17005TIP3   OH272505   3.001   6.219   0.717 -0.2391 -0.4229 -0.2986
17005TIP3    H172506   2.966   6.287   0.660 -1.2892 -1.1030 -0.5025
17005TIP3    H272507   2.983   6.137   0.670 -1.3079 -1.0126  1.0908
17006TIP3   OH272508   0.480   1.726  11.158 -0.7893  0.7826 -0.2770
17006TIP3    H172509   0.555   1.777  11.189 -1.9130  1.7389  0.9511
17006TIP3    H272510   0.429   1.788  11.106 -1.3164  0.4460 -0.1631
17007TIP3   OH272511   5.921   3.732  15.832 -0.5245 -0.6625 -0.5057
17007TIP3    H172512   5.918   3.670  15.906 -0.1499 -0.9873 -0.7632
17007TIP3    H272513   5.905   3.818  15.873 -0.0812 -0.8105 -0.0146
17008TIP3   OH272514   5.046   0.260  13.930 -0.1989 -0.0710  0.1752
17008TIP3    H172515   5.039   0.268  14.025  0.2863 -1.3317  0.3408
17008TIP3    H272516   5.132   0.220  13.916 -0.0777  0.5206 -0.8234
17009TIP3   OH272517   0.507   1.464  10.996 -0.2758 -0.0980  0.2268
17009TIP3    H172518   0.492   1.530  11.063  0.0617 -0.1156  0.3256
17009TIP3    H272519   0.427   1.414  10.992 -0.0405 -0.5502  1.1262
17010TIP3   OH272520   0.809   1.724  13.981 -0.2796  0.1089  0.2645
17010TIP3    H172521   0.745   1.733  14.051 -0.7074 -0.3567 -0.0674
17010TIP3    H272522   0.776   1.780  13.911 -0.2866 -0.0782  0.1190
17011TIP3   OH272523   1.149   6.861  15.895  0.0496 -0.3649  0.4922
17011TIP3    H172524   1.102   6.914  15.960  1.6383  0.4640  1.0117
17011TIP3    H272525   1.117   6.892  15.811 -0.5636 -0.0364  0.8400
17012TIP3   OH272526   6.588   1.598  14.426 -0.0423  0.0968  0.1870
17012TIP3    H172527   6.520   1.555  14.374 -0.4908 -1.0031  1.6402
17012TIP3    H272528   6.635   1.652  14.362 -0.7524 -0.9673 -1.3122
17013TIP3   OH272529   1.508   4.000  14.790  0.8227 -0.6796 -0.3768
17013TIP3    H172530   1.418   4.031  14.790  1.8222  2.5623 -1.0927
17013TIP3    H272531   1.552   4.052  14.857  2.5793 -0.8086 -1.3631
17014TIP3   OH272532   1.864   1.064  13.412  0.8587 -0.0379  0.5613
17014TIP3    H172533   1.878   1.158  13.422 -1.3382  0.4465 -0.2881
17014TIP3    H272534   1.828   1.055  13.324  0.4779 -1.6011  0.8514
17015TIP3   OH272535   1.864   5.652  12.324  0.8595 -0.1461  0.4137
17015TIP3    H172536   1.882   5.565  12.290  0.6426 -0.5592  1.3261
17015TIP3    H272537   1.784   5.642  12.376  1.4044  0.3647  1.3793
17016TIP3   OH272538   6.442   4.388  15.452  0.0185 -0.6059  0.4923
17016TIP3    H172539   6.490   4.469  15.462 -3.5895  1.7046  1.1087
17016TIP3    H272540   6.444   4.370  15.358  0.5280  0.4299  0.2974
17017TIP3   OH272541   3.878   1.837  11.642 -0.6787  0.0532  0.1486
17017TIP3    H172542   3.909   1.927  11.632  2.1636 -0.7210  0.9662
17017TIP3    H272543   3.942   1.796  11.701 -1.9825 -2.4473 -0.0319
17018TIP3   OH272544   6.484   5.991  15.758  0.0582 -0.3313  0.1455
17018TIP3    H172545   6.574   6.023  15.757  0.2062 -0.7340  0.3241
17018TIP3    H272546   6.433   6.061  15.717  0.7654 -1.0534 -2.1221
17019TIP3   OH272547   6.476   5.301   2.125  0.1879  0.2518 -0.8255
17019TIP3    H172548   6.512   5.273   2.041  2.0133  0.0202 -0.0090
17019TIP3    H272549   6.534   5.261   2.191 -0.3034  1.6367  0.5045
17020TIP3   OH272550   2.241   1.096  13.704 -0.4319 -0.0580 -0.0974
17020TIP3    H172551   2.252   1.027  13.770 -1.1247 -1.3376 -1.2803
17020TIP3    H272552   2.146   1.108  13.698 -0.3498  0.4011 -0.5271
17021TIP3   OH272553   5.510   6.419   6.529 -0.4058  0.0010  0.6921
17021TIP3    H172554   5.557   6.364   6.466  1.5633 -0.5590  2.5249
17021TIP3    H272555   5.483   6.496   6.478  3.4099  0.8341 -0.3905
17022TIP3   OH272556   1.829   6.210   1.395 -0.6635 -0.4976  0.0855
17022TIP3    H172557   1.794   6.154   1.325 -0.8641 -1.6004  1.0246
17022TIP3    H272558   1.802   6.298   1.371  0.7009 -0.6111 -2.0918
17023TIP3   OH272559   1.084   0.201   1.092 -0.5972 -0.0767 -0.6808
17023TIP3    H172560   1.140   0.278   1.095 -1.3418  0.4659 -0.4478
17023TIP3    H272561   1.065   0.181   1.183  0.6668 -1.3494 -0.6701
17024TIP3   OH272562   4.651   2.097   2.708  0.6229 -0.2816 -0.0350
17024TIP3    H172563   4.677   2.139   2.626  0.2716  0.1789  0.0854
17024TIP3    H272564   4.555   2.106   2.710  0.6127 -0.4590  0.3346
17025TIP3   OH272565   3.140   4.159  15.299  0.4817  0.2095  0.1747
17025TIP3    H172566   3.064   4.124  15.345 -0.5743  0.4891 -1.3041
17025TIP3    H272567   3.214   4.139  15.357 -0.6606 -0.3173  1.5124
17026TIP3   OH272568   3.793   5.436   3.204 -0.5810 -0.3994 -0.3181
17026TIP3    H172569   3.825   5.522   3.229 -0.1376 -0.8013  0.5398
17026TIP3    H272570   3.861   5.401   3.146 -1.4087  0.3610 -1.8072
17027TIP3   OH272571   6.006   4.667  13.562  0.0355  0.0121 -0.0750
17027TIP3    H172572   5.968   4.651  13.476 -0.3362  1.1902 -0.1546
17027TIP3    H272573   6.010   4.581  13.603 -2.5579 -0.2395 -0.1418
17028TIP3   OH272574   6.549   5.950   4.628 -0.6632  0.6630  0.2294
17028TIP3    H172575   6.502   5.900   4.561 -1.3161 -1.0854  1.9011
17028TIP3    H272576   6.637   5.962   4.592 -0.9407 -0.4072 -0.8728
17029TIP3   OH272577   4.064   2.923  15.466 -0.4663 -0.0906  0.3048
17029TIP3    H172578   4.140   2.864  15.458 -1.0523 -0.7356 -0.7840
17029TIP3    H272579   4.029   2.906  15.553  1.0870  0.7921  1.1417
17030TIP3   OH272580   0.789   3.225  16.684  0.4387  0.7393  0.3001
17030TIP3    H172581   0.879   3.251  16.705  1.0690 -1.6635  0.9688
17030TIP3    H272582   0.768   3.159  16.751 -0.7539 -0.7911 -1.4967
17031TIP3   OH272583   6.078   3.505  12.058 -0.1924 -0.0477  0.4366
17031TIP3    H172584   6.033   3.583  12.092 -0.1589  0.7805 -1.3256
17031TIP3    H272585   6.168   3.514  12.090 -0.2689  0.4718  0.5123
17032TIP3   OH272586   4.270   2.980  13.825  0.3032  0.2215  0.0006
17032TIP3    H172587   4.250   2.897  13.782 -0.1419 -0.1449  0.8784
17032TIP3    H272588   4.310   3.034  13.757  1.2379 -0.9530 -0.4241
17033TIP3   OH272589   3.934   0.666   4.788  0.0589  0.6099 -0.0105
17033TIP3    H172590   3.948   0.575   4.764 -1.1787 -0.2125  2.0721
17033TIP3    H272591   4.017   0.710   4.768  1.0275 -1.1866 -0.1025
17034TIP3   OH272592   5.971   0.858  10.218 -0.2377  0.0430  0.0810
17034TIP3    H172593   5.905   0.818  10.274  0.3992 -0.0127  0.8166
17034TIP3    H272594   6.035   0.788  10.204  1.1010  0.8592  1.7160
17035TIP3   OH272595   2.042   4.977   6.257 -0.0236  0.5247 -0.5465
17035TIP3    H172596   2.029   4.934   6.172  0.2153  1.3423 -1.0082
17035TIP3    H272597   1.985   5.054   6.253 -0.2692  0.3863  0.1784
17036TIP3   OH272598   2.390   3.004   1.663 -0.0008 -0.6022  0.3364
17036TIP3    H172599   2.466   3.050   1.699 -0.1679  0.4014 -0.5295
17036TIP3    H272600   2.373   3.048   1.579 -0.5649 -1.8530 -0.2248
17037TIP3   OH272601   3.873   1.438  11.887  0.2383  0.3728  0.1027
17037TIP3    H172602   3.792   1.392  11.909  1.8949 -2.2892  1.0124
17037TIP3    H272603   3.912   1.387  11.816  1.4217  1.2265  0.1037
17038TIP3   OH272604   0.192   0.018   0.895  0.4647 -0.3392 -0.7142
17038TIP3    H172605   0.116   0.025   0.954  0.6395 -0.9836 -0.4114
17038TIP3    H272606   0.241   0.099   0.910 -1.6144  1.4990 -2.9939
17039TIP3   OH272607   6.687   0.585  16.137 -0.1248  0.4591 -0.0079
17039TIP3    H172608   6.615   0.621  16.188  0.2338  0.5821  0.4231
17039TIP3    H272609   6.751   0.557  16.203  0.6268  1.2171 -0.3945
17040TIP3   OH272610   5.274   6.425  16.022 -0.6847 -0.0469 -0.0553
17040TIP3    H172611   5.180   6.422  16.002 -0.9502  0.4417  1.1107
17040TIP3    H272612   5.286   6.504  16.073  0.6240  0.6596 -1.3670
17041TIP3   OH272613   1.607   5.969   5.275  0.4049 -1.0312 -0.8264
17041TIP3    H172614   1.699   5.982   5.251  0.3974 -2.1980 -1.5606
17041TIP3    H272615   1.590   6.036   5.341  1.8457 -0.9334 -0.5139
17042TIP3   OH272616   6.287   3.346  11.767  0.0503  0.2475 -0.4621
17042TIP3    H172617   6.357   3.407  11.743  0.0611  0.1701 -0.6300
17042TIP3    H272618   6.229   3.344  11.690  0.8542 -1.1063 -1.0709
17043TIP3   OH272619   5.774   3.063  16.542 -0.2347 -0.2059  0.5900
17043TIP3    H172620   5.763   3.034  16.633 -0.2060 -2.7419 -0.1371
17043TIP3    H272621   5.858   3.025  16.515 -0.1268  0.7195 -0.4303
17044TIP3   OH272622   2.326   0.142   4.590 -0.4535 -0.2099  0.1922
17044TIP3    H172623   2.247   0.093   4.613 -1.8391  1.4233 -0.8292
17044TIP3    H272624   2.313   0.228   4.630  0.3036  0.4292 -0.8805
17045TIP3   OH272625   2.563   2.817  16.373 -0.7121  0.0558  0.0719
17045TIP3    H172626   2.587   2.742  16.427 -0.2083  0.4930  0.4636
17045TIP3    H272627   2.564   2.891  16.434  0.5499  0.6724 -0.6677
17046TIP3   OH272628   0.181   1.115  11.711  0.3125  0.8806  0.3120
17046TIP3    H172629   0.094   1.095  11.677  0.0046  0.1270  1.4988
17046TIP3    H272630   0.230   1.146  11.634 -1.3032  2.3896 -0.1922
17047TIP3   OH272631   1.944   6.682  10.806  0.0043 -0.4014  0.7941
17047TIP3    H172632   1.877   6.624  10.842  1.7967 -1.7906  2.0620
17047TIP3    H272633   1.967   6.642  10.721 -0.7842  0.1248  0.3168
17048TIP3   OH272634   6.381   1.788  11.891  0.6594  0.1980 -0.6369
17048TIP3    H172635   6.403   1.701  11.924  2.9282  1.4398  1.5478
17048TIP3    H272636   6.314   1.821  11.951  1.2603  0.6482 -0.1893
17049TIP3   OH272637   2.556   5.477   1.110 -0.5534  0.4477 -0.3352
17049TIP3    H172638   2.474   5.427   1.104 -0.6478  0.7014 -1.3112
17049TIP3    H272639   2.534   5.553   1.164 -0.7054  0.0236  0.2080
17050TIP3   OH272640   5.800   5.251   2.705 -0.2454 -0.3542 -0.5215
17050TIP3    H172641   5.825   5.276   2.794 -1.4479 -0.5201 -0.1264
17050TIP3    H272642   5.822   5.158   2.699 -1.5187 -0.7130  0.1127
17051TIP3   OH272643   5.889   6.578   1.639 -0.1866  0.7862  0.1848
17051TIP3    H172644   5.807   6.627   1.629 -0.1337  1.0693  1.1035
17051TIP3    H272645   5.949   6.620   1.578 -0.9461  0.0461 -1.1319
17052TIP3   OH272646   0.224   0.702  15.984 -0.1010 -0.3920 -0.0889
17052TIP3    H172647   0.229   0.646  15.907 -0.1618  0.1128 -0.4631
17052TIP3    H272648   0.264   0.785  15.956  0.2139 -0.3294  0.5316
17053TIP3   OH272649   6.772   0.295  15.938 -0.2590 -0.5825  0.2968
17053TIP3    H172650   6.704   0.356  15.907 -0.4250 -1.4884 -1.1936
17053TIP3    H272651   6.825   0.277  15.861  0.7579 -1.1085  1.0954
17054TIP3   OH272652   5.584   4.593  13.817 -0.2358 -0.1270  0.3247
17054TIP3    H172653   5.504   4.629  13.779  0.8919  0.0011 -2.1364
17054TIP3    H272654   5.619   4.663  13.872 -0.5627  0.7284 -0.5358
17055TIP3   OH272655   5.691   1.436  14.113 -0.0900  0.2278  0.8456
17055TIP3    H172656   5.665   1.524  14.084 -0.5172  0.1708  1.0513
17055TIP3    H272657   5.635   1.418  14.188  0.5787  0.1185  1.3307
17056TIP3   OH272658   0.513   1.563   4.401 -0.3345  0.0216 -0.4808
17056TIP3    H172659   0.573   1.500   4.361 -0.4759  0.0867 -0.8026
17056TIP3    H272660   0.442   1.572   4.337 -1.1262 -0.7086  0.2812
17057TIP3   OH272661   3.691   6.659  16.949  0.3553  0.0731  0.0740
17057TIP3    H172662   3.692   6.708  17.032  1.8713 -1.4786  1.0568
17057TIP3    H272663   3.749   6.709  16.892  0.3716  0.4430  0.4032
17058TIP3   OH272664   2.804   3.241   0.532 -0.3931 -0.0267 -0.0076
17058TIP3    H172665   2.778   3.316   0.586  0.2337  0.2620 -0.0951
17058TIP3    H272666   2.737   3.237   0.464 -1.6697 -0.9243  1.2566
17059TIP3   OH272667   1.675   3.505   0.628  0.2553 -0.0696 -0.2877
17059TIP3    H172668   1.585   3.474   0.621 -0.4749  2.0547 -1.1345
17059TIP3    H272669   1.710   3.460   0.705 -2.0849  0.2985  1.1011
17060TIP3   OH272670   6.386   2.746   1.872 -0.5212 -0.1773  0.4062
17060TIP3    H172671   6.368   2.805   1.945  2.7958  2.0288 -0.3476
17060TIP3    H272672   6.444   2.680   1.908  1.1356  0.9243 -0.1107
17061TIP3   OH272673   1.838   3.255  13.388 -0.1355 -0.1091  0.4257
17061TIP3    H172674   1.841   3.346  13.419  0.1581  0.1432 -0.3330
17061TIP3    H272675   1.844   3.262  13.293 -1.0848 -0.8773  0.2991
17062TIP3   OH272676   6.139   0.224  11.153 -0.1414  0.5721 -0.5350
17062TIP3    H172677   6.105   0.135  11.158  0.9836  0.1597  0.1032
17062TIP3    H272678   6.177   0.240  11.239  0.4313  1.3564 -0.9217
17063TIP3   OH272679   5.409   4.957  15.403 -0.1210 -0.1763 -0.4817
17063TIP3    H172680   5.475   4.888  15.404 -0.5742 -0.6054 -0.2715
17063TIP3    H272681   5.418   4.997  15.316  0.1985 -0.4398 -0.5723
17064TIP3   OH272682   1.643   1.279  13.390 -0.2056 -0.2349  0.0634
17064TIP3    H172683   1.658   1.235  13.306  0.4782 -0.2522  0.1881
17064TIP3    H272684   1.548   1.287  13.396 -0.4342 -2.4062  0.3742
17065TIP3   OH272685   5.712   0.249   2.888  0.4983 -0.1922 -0.2323
17065TIP3    H172686   5.773   0.321   2.901  0.8620 -0.6208  0.4956
17065TIP3    H272687   5.695   0.216   2.976  0.5074 -1.1355 -0.5796
17066TIP3   OH272688   2.549   6.860  13.496 -0.5352 -1.1369  0.3031
17066TIP3    H172689   2.477   6.862  13.432 -0.6128 -1.7383  0.3689
17066TIP3    H272690   2.549   6.948  13.534  0.6575 -0.1539 -1.7761
17067TIP3   OH272691   5.225   3.564  16.012  0.1006 -0.2153  0.4766
17067TIP3    H172692   5.252   3.478  15.978 -3.0596 -0.4684 -1.8109
17067TIP3    H272693   5.307   3.611  16.024  1.8102 -2.5919 -0.9046
17068TIP3   OH272694   1.189   0.502   2.762  0.1149 -0.0317 -0.7042
17068TIP3    H172695   1.183   0.459   2.847 -2.1958  0.0199 -0.7654
17068TIP3    H272696   1.223   0.434   2.704  1.9584  0.0125  0.2652
17069TIP3   OH272697   1.937   3.779  10.685  0.1191  0.8552  0.0399
17069TIP3    H172698   1.924   3.859  10.633 -1.9235  0.6636  0.1665
17069TIP3    H272699   1.909   3.804  10.773 -3.6067 -0.7306 -0.5277
17070TIP3   OH272700   5.083   5.670  11.779 -0.0318 -0.3608 -0.6171
17070TIP3    H172701   5.175   5.655  11.799  0.0112  0.9346  0.2807
17070TIP3    H272702   5.045   5.582  11.773  1.4977 -0.9702 -2.3446
17071TIP3   OH272703   4.503   3.146  12.332  0.4187 -0.4216 -0.1753
17071TIP3    H172704   4.530   3.236  12.353 -1.1024  0.7184 -2.6041
17071TIP3    H272705   4.420   3.135  12.380  0.2136 -0.2342 -0.4850
17072TIP3   OH272706   0.735   1.144  15.066  0.0057 -0.6267 -0.0473
17072TIP3    H172707   0.643   1.143  15.040 -0.7236 -2.4116  2.2327
17072TIP3    H272708   0.739   1.214  15.132 -0.0290 -1.3663  0.7509
17073TIP3   OH272709   5.880   0.502  12.386 -0.0712 -0.0494 -0.3418
17073TIP3    H172710   5.970   0.499  12.416 -0.6427  0.2820  1.5036
17073TIP3    H272711   5.840   0.574  12.435 -1.7139 -1.1383  0.0228
17074TIP3   OH272712   3.555   2.355   4.983  0.8176 -0.3645  0.1499
17074TIP3    H172713   3.587   2.394   5.064  0.6863  0.1002 -0.0169
17074TIP3    H272714   3.463   2.379   4.979  0.5711 -1.2289  0.3495
17075TIP3   OH272715   3.886   4.731  14.491  0.6206 -0.3347  0.1889
17075TIP3    H172716   3.938   4.812  14.495 -1.4968  1.0731  0.6597
17075TIP3    H272717   3.892   4.704  14.400 -2.2905  2.9932 -1.2067
17076TIP3   OH272718   1.603   0.003  11.956  0.1679 -0.0605  0.1165
17076TIP3    H172719   1.652   0.068  11.906  0.5025 -0.7763 -0.5166
17076TIP3    H272720   1.611  -0.077  11.905 -3.7161  0.2695 -1.4058
17077TIP3   OH272721   5.580   2.725  11.630  0.6655  0.3490  0.0995
17077TIP3    H172722   5.500   2.729  11.578  0.9454  0.2732 -0.3390
17077TIP3    H272723   5.600   2.816  11.651 -1.2101  0.2553  2.8208
17078TIP3   OH272724   2.906   6.773   2.256 -0.1136  0.1094  0.1351
17078TIP3    H172725   2.849   6.815   2.192 -0.9828 -0.8273  0.2601
17078TIP3    H272726   2.851   6.765   2.335  0.8754  1.0926  0.9497
17079TIP3   OH272727   5.574   6.476   0.301  1.1390 -0.5734 -0.5300
17079TIP3    H172728   5.646   6.540   0.303  1.1570 -0.5859 -0.8259
17079TIP3    H272729   5.604   6.408   0.241  0.5648 -0.2041 -1.2510
17080TIP3   OH272730   2.347   0.231  11.963  0.2925 -0.5384 -0.1124
17080TIP3    H172731   2.407   0.304  11.952  2.6689 -2.4793 -1.0985
17080TIP3    H272732   2.398   0.154  11.936 -1.8913 -2.6283  1.3137
17081TIP3   OH272733   1.371   0.003   6.270 -0.1973  0.4695 -0.4416
17081TIP3    H172734   1.368  -0.077   6.217 -1.1075  0.7079 -0.7515
17081TIP3    H272735   1.284   0.010   6.310  0.0627  0.9936  0.0556
17082TIP3   OH272736   3.696   6.571   3.838  0.7814 -0.3617 -0.2858
17082TIP3    H172737   3.737   6.620   3.767  1.7844 -0.1982  0.3904
17082TIP3    H272738   3.624   6.523   3.796  1.4606 -0.4003 -1.4370
17083TIP3   OH272739   3.309   3.460   0.458 -0.4057  0.7046  0.5895
17083TIP3    H172740   3.248   3.507   0.401 -0.4430 -0.2808 -0.2153
17083TIP3    H272741   3.392   3.505   0.445 -0.5105  0.7637  0.0822
17084TIP3   OH272742   0.889   5.992   3.978  0.3343  0.2509  0.1447
17084TIP3    H172743   0.860   6.047   4.051  0.3377  0.9838 -0.4037
17084TIP3    H272744   0.828   5.918   3.979  0.6890 -0.0435  1.2486
17085TIP3   OH272745   1.317   6.416   0.946  0.2992  0.2751  0.3075
17085TIP3    H172746   1.239   6.399   1.000  1.3612 -1.7872  1.3133
17085TIP3    H272747   1.354   6.497   0.981  0.6919 -0.7577  2.4383
17086TIP3   OH272748   1.470   1.756  11.079  0.1519  0.5295  0.1819
17086TIP3    H172749   1.557   1.754  11.117 -0.3963 -1.1036  1.4977
17086TIP3    H272750   1.469   1.682  11.017 -0.2812  0.5654  0.1425
17087TIP3   OH272751   2.986   1.718  11.658  0.3867 -0.0816 -0.0539
17087TIP3    H172752   2.994   1.631  11.696  0.3560  1.1663  3.0760
17087TIP3    H272753   2.900   1.749  11.686  1.0155  1.5025  0.2332
17088TIP3   OH272754   5.761   2.559   2.386  0.2802  0.0761 -0.3125
17088TIP3    H172755   5.831   2.497   2.406 -1.4702 -2.0190 -0.3441
17088TIP3    H272756   5.736   2.594   2.472  0.2651 -0.4187 -0.1113
17089TIP3   OH272757   6.398   1.364   6.501  0.1498  0.3301  0.3943
17089TIP3    H172758   6.349   1.443   6.476 -0.2761 -0.0265  0.0918
17089TIP3    H272759   6.333   1.294   6.499  0.6307 -0.1139  0.2084
17090TIP3   OH272760   1.527   2.128   1.974 -0.6807 -0.0217 -0.4828
17090TIP3    H172761   1.499   2.060   1.913  1.4080  0.3460 -1.9952
17090TIP3    H272762   1.620   2.108   1.990 -0.7804  0.8111  1.3607
17091TIP3   OH272763   4.482   0.770   0.862 -0.5155 -0.0366  0.1170
17091TIP3    H172764   4.397   0.783   0.821  0.1712  0.4316 -1.2184
17091TIP3    H272765   4.543   0.816   0.805  0.5880 -0.0359  1.2632
17092TIP3   OH272766   4.587   6.728  10.246  0.1412  0.2288  0.1440
17092TIP3    H172767   4.549   6.812  10.272 -1.5113 -0.9210  1.6569
17092TIP3    H272768   4.538   6.703  10.168  1.2788  1.0620 -0.8746
17093TIP3   OH272769   4.944   4.998  14.788  0.2607  0.0697  0.1565
17093TIP3    H172770   4.857   5.012  14.752  1.4799  0.9190 -2.7497
17093TIP3    H272771   4.991   5.080  14.773  2.4785 -1.3477 -1.4258
17094TIP3   OH272772   0.733   2.848  15.795 -0.0109 -0.0645 -0.0391
17094TIP3    H172773   0.807   2.789  15.781 -0.1438 -0.3389  0.3778
17094TIP3    H272774   0.702   2.825  15.883  0.7820  1.5536  0.7037
17095TIP3   OH272775   6.580   0.927  15.055  0.3250 -0.4923  0.0871
17095TIP3    H172776   6.660   0.978  15.058  0.5257 -0.7016 -1.1255
17095TIP3    H272777   6.558   0.910  15.147  0.6506  1.1260  0.4879
17096TIP3   OH272778   3.918   2.646   5.610  0.3030  0.0822 -0.2526
17096TIP3    H172779   3.946   2.554   5.608  0.4894  0.1484 -0.7983
17096TIP3    H272780   3.854   2.649   5.681  0.5171 -0.4049 -0.0301
17097TIP3   OH272781   4.288   1.627   4.655 -0.4610  0.5377 -0.2298
17097TIP3    H172782   4.249   1.655   4.738  1.4867 -2.4617  1.8813
17097TIP3    H272783   4.249   1.541   4.638  0.0999  0.5630 -1.7894
17098TIP3   OH272784   3.454   5.674  11.535 -0.1571  0.2827  0.1843
17098TIP3    H172785   3.548   5.676  11.517  0.0771  1.5038  1.3424
17098TIP3    H272786   3.440   5.590  11.579  0.3878  0.0803 -0.0126
17099TIP3   OH272787   4.611   3.761   5.304  0.2344 -0.4222 -0.4428
17099TIP3    H172788   4.558   3.786   5.380 -1.1460  0.1667 -1.5615
17099TIP3    H272789   4.693   3.730   5.342 -0.5154 -0.4024  1.3036
17100TIP3   OH272790   2.927   5.901   2.796 -0.6170 -0.5377 -0.0285
17100TIP3    H172791   2.863   5.856   2.740  1.4356 -2.2055 -1.1935
17100TIP3    H272792   2.913   5.865   2.883 -0.6686 -1.6381 -0.4677
17101TIP3   OH272793   2.353   3.390   4.911 -0.3653 -1.0041 -0.0022
17101TIP3    H172794   2.339   3.355   4.999  1.1212  1.0025  1.1148
17101TIP3    H272795   2.269   3.430   4.888 -0.8530 -1.7972  0.3550
17102TIP3   OH272796   4.728   2.975   1.896 -0.4901  0.1771 -0.3121
17102TIP3    H172797   4.777   3.057   1.897 -0.8648  0.5030 -2.5813
17102TIP3    H272798   4.641   2.998   1.928 -0.4801  0.5952 -0.5801
17103TIP3   OH272799   5.317   0.722   3.322  0.4620  0.2825 -0.0267
17103TIP3    H172800   5.266   0.678   3.254 -0.0844 -0.5796  0.8978
17103TIP3    H272801   5.393   0.665   3.336 -0.6684 -0.8859  1.7561
17104TIP3   OH272802   2.936   6.856   1.735 -0.0467 -0.3923  0.2212
17104TIP3    H172803   3.007   6.853   1.800 -1.1448  1.4143  1.5970
17104TIP3    H272804   2.939   6.770   1.693  1.8139 -1.0084  1.4659
17105TIP3   OH272805   3.298   6.252  15.951  0.3974  0.3042  0.6171
17105TIP3    H172806   3.372   6.263  15.891  0.0546 -0.7902 -0.0423
17105TIP3    H272807   3.237   6.322  15.929 -0.2899 -0.7912 -1.2217
17106TIP3   OH272808   0.573   6.700   5.808 -0.3102  0.3705  0.4486
17106TIP3    H172809   0.622   6.748   5.740 -0.2759  0.1483  0.3163
17106TIP3    H272810   0.557   6.614   5.770 -0.7336  0.4131  0.5226
17107TIP3   OH272811   3.286   0.155   3.412  0.5247  0.1196 -0.0658
17107TIP3    H172812   3.275   0.062   3.428 -1.7827  0.0372 -1.6094
17107TIP3    H272813   3.333   0.188   3.489  0.5511 -2.1275  0.9478
17108TIP3   OH272814   0.453   1.633  13.853  0.0584  0.2059 -0.2281
17108TIP3    H172815   0.505   1.697  13.902  1.2558 -0.6872 -0.2870
17108TIP3    H272816   0.489   1.638  13.764  1.8119 -2.1648  0.2579
17109TIP3   OH272817   1.901   5.284  14.560 -0.3923 -0.6803  0.5486
17109TIP3    H172818   1.859   5.274  14.475 -0.6234 -2.5203  0.8438
17109TIP3    H272819   1.829   5.302  14.620 -0.5771 -2.0958  0.7734
17110TIP3   OH272820   6.605   4.797  11.399 -0.1817  0.0558 -0.2553
17110TIP3    H172821   6.665   4.739  11.446  0.3866  1.9577  1.5752
17110TIP3    H272822   6.533   4.811  11.461 -1.3797 -0.3760 -1.5227
17111TIP3   OH272823   1.292   6.497   1.304  0.2832  0.0161  0.2965
17111TIP3    H172824   1.343   6.502   1.223  1.3041 -0.1548  0.8987
17111TIP3    H272825   1.241   6.578   1.306  1.4956  0.8066  0.2790
17112TIP3   OH272826   4.353   0.161  16.317 -0.0625  0.0167 -0.0790
17112TIP3    H172827   4.428   0.204  16.277 -0.7381  0.4358 -0.9508
17112TIP3    H272828   4.278   0.190  16.264 -0.7280 -1.0429  0.2519
17113TIP3   OH272829   1.130   6.303   2.079 -0.0619  0.0569  0.0208
17113TIP3    H172830   1.158   6.223   2.123  1.5203  0.6626  0.2048
17113TIP3    H272831   1.165   6.296   1.991  0.7155  0.8370  0.2485
17114TIP3   OH272832   3.577   5.996   3.469  0.3501 -1.0646  0.3171
17114TIP3    H172833   3.611   5.984   3.558  1.9010  2.2851  0.3237
17114TIP3    H272834   3.630   5.938   3.415  0.4670 -1.9567  1.3449
17115TIP3   OH272835   6.169   1.187  16.839  0.2154  0.8261 -0.8501
17115TIP3    H172836   6.243   1.126  16.849 -0.7391 -0.0241  2.5241
17115TIP3    H272837   6.211   1.271  16.820  1.7874 -0.2435 -2.4350
17116TIP3   OH272838   6.622   3.715   5.153 -0.1411  0.1094 -0.6133
17116TIP3    H172839   6.659   3.744   5.236 -0.1663 -0.5712 -0.3611
17116TIP3    H272840   6.656   3.777   5.088  1.7251 -0.6905 -0.4603
17117TIP3   OH272841   0.267   6.306  16.114  0.4126 -0.1296  0.4400
17117TIP3    H172842   0.186   6.354  16.129  0.1571 -0.3582 -0.1804
17117TIP3    H272843   0.251   6.257  16.034  1.2233 -0.0529  0.2278
17118TIP3   OH272844   0.138   3.305  12.546  0.5979 -0.6327 -0.0762
17118TIP3    H172845   0.111   3.241  12.612 -0.0087 -1.0869 -0.7608
17118TIP3    H272846   0.151   3.386  12.595 -0.3694 -0.8330  0.5177
17119TIP3   OH272847   6.439   5.832  13.811 -0.2768  0.2921  0.1619
17119TIP3    H172848   6.529   5.843  13.779 -1.2010  0.1907 -2.7539
17119TIP3    H272849   6.415   5.743  13.786 -0.9169 -0.0498  1.8294
17120TIP3   OH272850   1.317   1.173   5.806 -0.8505 -0.1555  0.2254
17120TIP3    H172851   1.350   1.149   5.892 -3.5893  0.7324  1.6651
17120TIP3    H272852   1.316   1.269   5.806  0.4501 -0.1030 -1.4050
17121TIP3   OH272853   4.374   6.530  15.743  0.1599  0.3542  0.7169
17121TIP3    H172854   4.391   6.467  15.813  1.5827 -1.5188 -1.1747
17121TIP3    H272855   4.308   6.487  15.688  0.9446  0.5811 -0.4579
17122TIP3   OH272856   1.245   1.461  13.106  0.4091  0.5576 -0.1683
17122TIP3    H172857   1.332   1.499  13.120 -0.3285  3.1347 -1.7760
17122TIP3    H272858   1.187   1.537  13.101 -1.7551 -1.0186 -0.3646
17123TIP3   OH272859   4.716   6.394   2.991 -0.4688  0.0468  0.0804
17123TIP3    H172860   4.668   6.347   3.059  0.8139 -0.6582  0.5219
17123TIP3    H272861   4.698   6.487   3.009 -2.0352 -0.1875 -0.0692
17124TIP3   OH272862   5.243   6.083  14.909 -0.2861 -0.4254  0.0483
17124TIP3    H172863   5.335   6.060  14.916 -0.3968 -0.7054  0.7211
17124TIP3    H272864   5.215   6.099  14.999 -0.9711 -0.6625 -0.1112
17125TIP3   OH272865   1.247   4.991   3.833  0.2736  0.0590 -0.3545
17125TIP3    H172866   1.302   4.952   3.901  0.4719 -2.3410 -1.7817
17125TIP3    H272867   1.161   5.000   3.874  0.0800 -2.4418 -0.0373
17126TIP3   OH272868   1.730   4.290   1.307 -0.1248  0.3569 -0.4852
17126TIP3    H172869   1.785   4.249   1.240 -0.0575  0.0475 -0.2434
17126TIP3    H272870   1.644   4.249   1.296 -0.0598  0.1499 -0.2496
17127TIP3   OH272871   3.344   6.257  13.899 -0.5288 -0.3168  0.6606
17127TIP3    H172872   3.403   6.327  13.870  0.3118 -0.8015  1.1766
17127TIP3    H272873   3.325   6.209  13.819  1.3219 -1.2972  0.7577
17128TIP3   OH272874   3.912   4.665  13.777  0.4206 -0.2911 -0.0637
17128TIP3    H172875   3.853   4.616  13.720  1.7366 -2.4316  0.3068
17128TIP3    H272876   3.858   4.692  13.851 -0.5838 -0.2284 -0.8095
17129TIP3   OH272877   4.437   5.112  16.183 -0.2283 -0.2460  0.2470
17129TIP3    H172878   4.486   5.035  16.155 -0.6641 -0.3585 -0.2284
17129TIP3    H272879   4.348   5.096  16.152 -0.4716  0.1466  0.7275
17130TIP3   OH272880   2.555   2.928  15.937  0.3740  0.2552 -0.3901
17130TIP3    H172881   2.473   2.945  15.982  0.5469  3.3792 -0.9893
17130TIP3    H272882   2.607   2.877  15.999 -0.7740  1.1949  1.4215
17131TIP3   OH272883   5.398   5.215  11.616  0.7038  0.4426 -0.1228
17131TIP3    H172884   5.459   5.275  11.659 -2.0277  1.6445  2.4488
17131TIP3    H272885   5.383   5.146  11.680  0.3469 -0.5519 -1.2347
17132TIP3   OH272886   3.765   3.329  13.041 -0.4371 -0.2206 -0.2524
17132TIP3    H172887   3.671   3.314  13.054 -0.7212  1.7076  0.1425
17132TIP3    H272888   3.807   3.250  13.075 -1.9390 -1.5154 -1.2687
17133TIP3   OH272889   0.390   2.937   5.098  0.2847 -0.0829 -0.4428
17133TIP3    H172890   0.332   2.876   5.053 -0.9746  1.3107 -0.7559
17133TIP3    H272891   0.478   2.909   5.073 -0.1679 -2.4729  0.3502
17134TIP3   OH272892   4.116   3.527   0.907 -0.3848  0.2841  0.0908
17134TIP3    H172893   4.131   3.591   0.839  3.4577  2.9159  2.9907
17134TIP3    H272894   4.127   3.442   0.864 -0.1478  1.6934 -2.8512
17135TIP3   OH272895   1.063   6.704   4.720 -0.1035  0.3948  0.4993
17135TIP3    H172896   1.071   6.800   4.717 -1.7623  0.5437 -0.3100
17135TIP3    H272897   1.130   6.677   4.782 -0.1783  2.1722  1.4384
17136TIP3   OH272898   4.400   0.966   3.991 -0.4183 -0.4521  0.6966
17136TIP3    H172899   4.408   1.056   4.024  3.0402 -0.5395  0.3855
17136TIP3    H272900   4.306   0.955   3.977 -1.2094  2.3461  2.7880
17137TIP3   OH272901   1.510   5.098   5.954 -0.1269 -1.1396 -0.6716
17137TIP3    H172902   1.547   5.063   6.036 -0.2784 -0.0395 -0.1154
17137TIP3    H272903   1.419   5.118   5.976  0.3703  1.1439 -0.4449
17138TIP3   OH272904   5.222   0.288  16.077 -0.0732  0.5682  0.1437
17138TIP3    H172905   5.155   0.281  16.146  2.0765 -1.0315  2.2126
17138TIP3    H272906   5.183   0.244  16.002 -1.3966 -0.2262  1.2419
17139TIP3   OH272907   6.559   2.435  10.787  0.0053 -0.3192 -0.8842
17139TIP3    H172908   6.523   2.352  10.753 -0.1257 -0.5078 -0.2896
17139TIP3    H272909   6.653   2.426  10.777 -0.0890  0.2154 -2.5451
17140TIP3   OH272910   0.935   6.316  13.580 -0.6400 -0.1655 -0.2910
17140TIP3    H172911   1.026   6.288  13.595 -0.5710  0.7117  1.1621
17140TIP3    H272912   0.921   6.303  13.486  1.8690  2.1324 -1.1029
17141TIP3   OH272913   0.510   2.103   2.039 -0.3547 -0.1693  0.0547
17141TIP3    H172914   0.523   2.043   1.966 -1.9511 -0.2843 -0.1583
17141TIP3    H272915   0.539   2.054   2.116 -0.4205 -0.7238 -0.2706
17142TIP3   OH272916   2.328   4.718   3.917  0.0701  0.5300  0.0818
17142TIP3    H172917   2.332   4.675   4.003  1.6650  0.0973 -0.1827
17142TIP3    H272918   2.264   4.667   3.867 -0.0037  0.0838  0.6251
17143TIP3   OH272919   2.662   5.466   3.474  0.3843  0.2242  0.4437
17143TIP3    H172920   2.592   5.403   3.460  0.0501  0.3649  1.4133
17143TIP3    H272921   2.739   5.428   3.431  0.0118 -0.4995  0.4141
17144TIP3   OH272922   0.513   1.180  16.702 -0.1755  0.1757  0.5656
17144TIP3    H172923   0.517   1.111  16.636 -1.0641 -0.0311  0.7181
17144TIP3    H272924   0.420   1.187  16.724 -0.3444  2.5279 -0.6154
17145TIP3   OH272925   5.035   1.680   4.735 -0.0736 -0.3292  0.1507
17145TIP3    H172926   5.110   1.643   4.689  0.3174 -0.2251  0.7005
17145TIP3    H272927   5.003   1.749   4.676 -1.2527 -1.9677 -1.2181
17146TIP3   OH272928   3.598   5.673  11.967  0.0242  0.4233  0.0027
17146TIP3    H172929   3.628   5.658  11.877  2.0060  0.2235  0.6447
17146TIP3    H272930   3.566   5.587  11.996  0.8206  0.1017 -0.0325
17147TIP3   OH272931   4.646   1.692   3.036  0.0771 -0.5341  0.0766
17147TIP3    H172932   4.680   1.713   2.949 -0.5646 -1.7797 -0.5106
17147TIP3    H272933   4.698   1.745   3.096  1.7560 -0.9584 -0.9270
17148TIP3   OH272934   2.669   3.246   4.074 -0.3025 -0.3042  0.1500
17148TIP3    H172935   2.616   3.250   4.153  0.1994  1.1741  0.4583
17148TIP3    H272936   2.663   3.155   4.044 -2.9011 -0.2211  0.2123
17149TIP3   OH272937   0.521   2.165  12.232 -0.6363  0.3276  0.2224
17149TIP3    H172938   0.552   2.254  12.215 -3.4675  0.9128 -2.8514
17149TIP3    H272939   0.586   2.109  12.191  0.3860  1.0212  0.8463
17150TIP3   OH272940   0.545   3.514   0.527 -0.1504 -0.4081 -0.1275
17150TIP3    H172941   0.568   3.531   0.619 -0.9598 -0.0337  0.0136
17150TIP3    H272942   0.503   3.428   0.529 -1.0127  0.0135 -0.0019
17151TIP3   OH272943   5.958   4.083   6.124 -0.0377  0.0323  0.1043
17151TIP3    H172944   5.868   4.084   6.093  0.1608 -0.8111 -0.5435
17151TIP3    H272945   5.984   3.991   6.119  1.0296  0.3337 -0.2127
17152TIP3   OH272946   3.316   5.079   3.508 -0.5299  0.2602  0.4105
17152TIP3    H172947   3.262   5.021   3.562  0.0655 -1.8670 -1.1215
17152TIP3    H272948   3.277   5.165   3.519 -2.5307 -0.7078  1.4908
17153TIP3   OH272949   6.135   1.088   2.759  0.1463  0.3142 -0.3339
17153TIP3    H172950   6.041   1.074   2.770 -0.1813  2.5369  0.3552
17153TIP3    H272951   6.142   1.148   2.685  0.9588  0.5652 -0.0667
17154TIP3   OH272952   5.706   6.264   4.298  0.6825 -0.3639 -0.5268
17154TIP3    H172953   5.743   6.340   4.253  0.0061 -0.1521 -0.7467
17154TIP3    H272954   5.632   6.300   4.348  0.3377 -0.8820 -0.6589
17155TIP3   OH272955   6.178   3.428  16.084 -0.3153  0.4597  0.2637
17155TIP3    H172956   6.207   3.406  16.173  0.0761  1.3662  0.3696
17155TIP3    H272957   6.207   3.354  16.031  0.1697  0.2866  0.7577
17156TIP3   OH272958   1.167   5.114  14.008  0.6527  0.4327  0.3200
17156TIP3    H172959   1.197   5.191  14.056 -0.2854  2.0233 -1.5404
17156TIP3    H272960   1.184   5.134  13.916 -0.7204 -1.0630 -0.3097
17157TIP3   OH272961   2.375   1.570   4.551 -0.2409  0.2605  0.3673
17157TIP3    H172962   2.369   1.542   4.459  1.0493  2.0026 -0.3189
17157TIP3    H272963   2.391   1.665   4.545 -0.2453  0.4176  2.4086
17158TIP3   OH272964   4.759   4.043   2.375 -0.3331  0.0315 -0.1601
17158TIP3    H172965   4.736   3.980   2.442  2.3249 -0.1046  0.7336
17158TIP3    H272966   4.764   4.127   2.421 -1.2610  0.4473 -0.7948
17159TIP3   OH272967   0.541   1.592  16.607 -0.2182 -0.6303 -0.6755
17159TIP3    H172968   0.475   1.576  16.673 -0.4487  0.7909 -0.5289
17159TIP3    H272969   0.494   1.587  16.524 -0.4782  0.1918 -0.5811
17160TIP3   OH272970   6.758   4.632  13.055  0.1074  0.1529  0.1404
17160TIP3    H172971   6.772   4.727  13.054  0.0723  0.1684  0.5935
17160TIP3    H272972   6.665   4.622  13.078  0.3337  0.0002  1.0184
17161TIP3   OH272973   4.723   2.989   1.492  0.2189  0.1151 -0.0412
17161TIP3    H172974   4.669   3.066   1.507 -0.0156  0.2802 -1.6158
17161TIP3    H272975   4.688   2.923   1.552 -0.3857  0.8315  0.4127
17162TIP3   OH272976   4.902   6.210  12.690  0.1943  0.4109 -1.2251
17162TIP3    H172977   4.948   6.287  12.723 -0.8635  0.4597  0.2342
17162TIP3    H272978   4.814   6.241  12.670 -0.9286 -0.7813  1.4399
17163TIP3   OH272979   3.669   2.367   1.347 -0.1756 -0.1639  0.0982
17163TIP3    H172980   3.580   2.331   1.337 -0.0682 -0.2129 -0.8457
17163TIP3    H272981   3.715   2.303   1.402 -0.2280 -1.0676 -0.8714
17164TIP3   OH272982   4.140   4.581   5.452  0.0170  0.5038  0.9760
17164TIP3    H172983   4.085   4.557   5.527  0.8950 -0.4304  1.3584
17164TIP3    H272984   4.129   4.675   5.443 -3.0073  0.1349 -0.0961
17165TIP3   OH272985   1.523   6.202  10.627  0.0408  0.1572  0.4427
17165TIP3    H172986   1.444   6.188  10.679  0.0629 -1.0981  0.1600
17165TIP3    H272987   1.492   6.221  10.539 -0.0555  3.6406  1.0619
17166TIP3   OH272988   1.049   5.478  15.971 -0.0636 -0.2410  0.0604
17166TIP3    H172989   0.975   5.421  15.953 -1.7644  0.6188  3.5582
17166TIP3    H272990   1.037   5.552  15.911 -0.6585 -1.1871 -1.0330
17167TIP3   OH272991   4.084   2.529   1.599  0.0458 -0.2562 -0.0941
17167TIP3    H172992   4.086   2.608   1.654  1.4919  0.3791 -1.0106
17167TIP3    H272993   4.174   2.496   1.601  0.3109  0.1235 -2.5063
17168TIP3   OH272994   4.874   2.274  16.816 -0.2390  0.1033 -0.0886
17168TIP3    H172995   4.855   2.194  16.766 -0.4715  0.6053 -0.8226
17168TIP3    H272996   4.969   2.274  16.826 -0.2476 -0.3157 -0.0063
17169TIP3   OH272997   0.881   6.762  16.170  0.0837  0.5997  0.6341
17169TIP3    H172998   0.893   6.697  16.101  0.9766  1.7843 -0.3903
17169TIP3    H272999   0.921   6.722  16.247 -2.0071 -1.2592  0.8681
17170TIP3   OH273000   5.625   1.780   1.707 -0.3921 -0.0250 -0.3730
17170TIP3    H173001   5.710   1.748   1.678  0.2710  1.2084  0.1600
17170TIP3    H273002   5.645   1.855   1.763 -1.7421 -0.7652  1.1865
17171TIP3   OH273003   1.944   6.162  15.448 -0.4058 -0.1531  0.0397
17171TIP3    H173004   1.918   6.081  15.492  0.6693 -0.7683 -0.4125
17171TIP3    H273005   1.976   6.219  15.519 -0.6375 -0.3402  0.2933
17172TIP3   OH273006   3.116   4.104   2.483  0.2331 -0.5879  0.4923
17172TIP3    H173007   3.035   4.133   2.524  0.9439  1.1817  0.7565
17172TIP3    H273008   3.094   4.094   2.390 -0.0244  1.1887  0.3202
17173TIP3   OH273009   6.384   2.658  14.570 -0.0454 -0.6470  0.3220
17173TIP3    H173010   6.384   2.629  14.662  0.1279  0.8841  0.8261
17173TIP3    H273011   6.369   2.752  14.574  0.0840 -0.5320 -1.2321
17174TIP3   OH273012   1.297   1.649  13.412 -0.2222  0.3006  0.2455
17174TIP3    H173013   1.271   1.708  13.341 -0.2084  1.2486  1.0035
17174TIP3    H273014   1.229   1.660  13.478 -2.5705 -3.6610 -1.2075
17175TIP3   OH273015   3.192   1.533  15.654 -0.1956 -0.4438 -0.3300
17175TIP3    H173016   3.184   1.439  15.670  2.0960 -0.5311  0.6575
17175TIP3    H273017   3.208   1.571  15.741  3.5519  0.2159 -1.1238
17176TIP3   OH273018   2.070   0.268   0.332  0.2628 -0.1807  0.2997
17176TIP3    H173019   2.088   0.249   0.240 -0.3813  0.7313 -0.0303
17176TIP3    H273020   2.097   0.360   0.343  1.0018 -0.4828  1.2116
17177TIP3   OH273021   1.689   6.164  15.769 -0.5209 -0.2295  0.0223
17177TIP3    H173022   1.726   6.239  15.722 -0.5802  0.2724  0.7775
17177TIP3    H273023   1.602   6.192  15.796 -0.3761 -0.4094  0.6895
17178TIP3   OH273024   5.906   6.773   2.280  0.1900  0.0481 -0.1750
17178TIP3    H173025   5.842   6.732   2.223  0.4448  0.1116 -0.5078
17178TIP3    H273026   5.854   6.812   2.351  0.0439 -2.8725  1.4877
17179TIP3   OH273027   2.889   6.036  13.603  0.1081  0.1153  0.2854
17179TIP3    H173028   2.818   6.009  13.545  0.4278  0.5466 -0.3200
17179TIP3    H273029   2.849   6.100  13.662 -0.1650 -0.1441  0.3807
17180TIP3   OH273030   6.837   0.869  11.453 -0.9064 -0.1893 -0.1015
17180TIP3    H173031   6.820   0.892  11.544 -2.7488  0.2927 -0.5268
17180TIP3    H273032   6.850   0.953  11.409  0.0205 -0.4206 -0.2837
17181TIP3   OH273033   4.099   3.278   0.814  0.0267  0.4636  0.3289
17181TIP3    H173034   4.098   3.202   0.872 -0.1389  0.5748  0.4706
17181TIP3    H273035   4.024   3.263   0.756 -0.3930  0.8400  0.7689
17182TIP3   OH273036   1.265   2.671  13.157 -0.8137  0.0375  0.4466
17182TIP3    H173037   1.335   2.735  13.166  0.2635 -0.9606 -0.4271
17182TIP3    H273038   1.269   2.643  13.065 -2.1401 -0.2947  0.4593
17183TIP3   OH273039   2.069   5.813  12.355 -0.3422 -0.5402 -0.1089
17183TIP3    H173040   1.998   5.750  12.338  0.0557 -1.1933  0.5873
17183TIP3    H273041   2.124   5.770  12.420  2.0639 -1.1283 -2.3408
17184TIP3   OH273042   1.241   0.408   4.703 -0.4033  0.2596  0.1654
17184TIP3    H173043   1.332   0.420   4.678 -0.4532  1.1106  0.3901
17184TIP3    H273044   1.221   0.482   4.760 -1.6636  0.9039 -1.0431
17185TIP3   OH273045   4.079   2.611  12.035 -0.1511  0.0811  0.5785
17185TIP3    H173046   4.038   2.607  11.949 -1.0466 -1.4979  1.0576
17185TIP3    H273047   4.022   2.668  12.086 -1.0570 -1.0442  0.8541
17186TIP3   OH273048   5.485   4.644   6.024 -0.1683  0.1077 -0.0791
17186TIP3    H173049   5.407   4.614   6.071  0.2585 -0.1630  0.4662
17186TIP3    H273050   5.482   4.739   6.032 -1.1018  0.1884 -1.1333
17187TIP3   OH273051   4.302   5.302   3.337  0.2818  0.4869  0.3986
17187TIP3    H173052   4.368   5.355   3.293  2.3008 -0.6135  1.9579
17187TIP3    H273053   4.242   5.365   3.376  0.7405  1.5219 -0.5302
17188TIP3   OH273054   6.663   3.708   0.811  0.1848 -0.6318  0.2842
17188TIP3    H173055   6.654   3.757   0.730  2.1493 -0.4509  0.1340
17188TIP3    H273056   6.607   3.632   0.799 -0.7042  0.1373 -0.6209
17189TIP3   OH273057   6.649   2.297  13.865  0.2347 -0.0716 -0.4505
17189TIP3    H173058   6.610   2.283  13.952 -0.2130  0.8984 -0.4745
17189TIP3    H273059   6.604   2.235  13.808  1.4577 -1.6607  0.2297
17190TIP3   OH273060   4.696   1.026   1.711 -0.2832 -0.5218 -0.6345
17190TIP3    H173061   4.714   1.053   1.801  1.5815  1.5977 -1.5458
17190TIP3    H273062   4.608   1.060   1.693 -0.6053 -0.8165  0.3238
17191TIP3   OH273063   1.710   6.129  13.254  0.2090  0.3844  0.4097
17191TIP3    H173064   1.651   6.175  13.194  1.9500 -0.3704 -2.0512
17191TIP3    H273065   1.783   6.189  13.267  0.7356 -0.1964  0.2124
17192TIP3   OH273066   1.965   4.048  15.888  0.4629  0.4554 -0.3916
17192TIP3    H173067   2.013   4.130  15.899  0.9102  0.1062  0.3201
17192TIP3    H273068   1.898   4.051  15.956  0.9229 -0.0753  0.0958
17193TIP3   OH273069   0.253   5.680   4.961  0.0931  0.4945 -0.7592
17193TIP3    H173070   0.296   5.712   4.882  3.1019 -2.2520 -0.4660
17193TIP3    H273071   0.318   5.693   5.031 -2.0498  1.8318  1.1147
17194TIP3   OH273072   5.168   5.081   1.888 -0.3121 -0.6773  0.0621
17194TIP3    H173073   5.235   5.104   1.953  2.8575  0.7136 -3.2733
17194TIP3    H273074   5.190   4.992   1.861 -0.3521 -0.5710 -0.3427
17195TIP3   OH273075   3.774   6.774   3.663  0.5308 -0.0114 -0.0271
17195TIP3    H173076   3.802   6.827   3.737  2.7924  0.6227 -1.2126
17195TIP3    H273077   3.692   6.814   3.633 -0.0725  0.1044  1.7030
17196TIP3   OH273078   4.559   2.779   1.694 -0.0919 -0.3100 -0.8496
17196TIP3    H173079   4.539   2.815   1.780 -1.7610 -1.0535 -0.8780
17196TIP3    H273080   4.617   2.705   1.712 -0.7079 -0.6735 -0.3161
17197TIP3   OH273081   0.429   0.368  16.067 -0.3005 -0.3598  0.0529
17197TIP3    H173082   0.334   0.357  16.057 -0.6177 -0.7214  2.7428
17197TIP3    H273083   0.467   0.293  16.020 -1.3978 -0.8458 -0.0890
17198TIP3   OH273084   0.436   3.104   2.894  0.1920  0.6166  0.4267
17198TIP3    H173085   0.461   3.192   2.921 -0.1454  1.1583 -0.9357
17198TIP3    H273086   0.502   3.079   2.829 -0.5685  0.5024 -0.3246
17199TIP3   OH273087   1.270   1.057   3.917 -0.1631 -0.3877  0.2245
17199TIP3    H173088   1.327   1.060   3.995  0.2560  2.3500 -0.0890
17199TIP3    H273089   1.299   1.131   3.864 -2.7901 -0.0653 -0.8754
17200TIP3   OH273090   0.950   6.334   2.281 -0.5023  0.2993  0.2078
17200TIP3    H173091   1.022   6.345   2.219 -1.7246  0.4759 -1.2256
17200TIP3    H273092   0.915   6.247   2.262 -0.6643  0.2070  0.9097
17201TIP3   OH273093   0.647   4.127  11.088 -0.0048 -0.3542  0.2591
17201TIP3    H173094   0.586   4.178  11.034  0.2811 -1.2228 -0.9137
17201TIP3    H273095   0.693   4.193  11.140 -2.2820  0.2956  1.5978
17202TIP3   OH273096   0.107   5.842   6.794 -0.2191 -0.1447 -0.4149
17202TIP3    H173097   0.032   5.783   6.793 -1.4332  1.3143  0.4099
17202TIP3    H273098   0.073   5.923   6.833  1.8707  0.4445  0.2859
17203TIP3   OH273099   1.846   3.758  13.712 -0.2120 -0.3929  0.4122
17203TIP3    H173100   1.866   3.781  13.622  1.9688 -0.6650  0.7841
17203TIP3    H273101   1.750   3.763  13.717 -0.3794 -0.2795 -1.8625
17204TIP3   OH273102   2.459   4.095   5.125  0.3564 -0.1383 -0.3395
17204TIP3    H173103   2.551   4.120   5.120  0.1213  0.5080 -2.1203
17204TIP3    H273104   2.442   4.050   5.042 -0.6607 -1.2958  0.4566
17205TIP3   OH273105   5.035   3.075  15.090  0.6705 -0.3704  0.1430
17205TIP3    H173106   5.061   2.993  15.047 -0.2101 -0.9016  0.5790
17205TIP3    H273107   4.976   3.047  15.160 -0.2661  0.6957 -0.1868
17206TIP3   OH273108   1.509   6.483   1.923  0.3509  0.0008 -0.3988
17206TIP3    H173109   1.569   6.428   1.973 -0.0892 -0.1519 -0.0314
17206TIP3    H273110   1.554   6.499   1.840  1.1658  0.3864  0.1038
17207TIP3   OH273111   0.233   4.652  13.888  0.3324 -0.1719  0.5363
17207TIP3    H173112   0.205   4.608  13.968 -0.3558  1.2721  1.1202
17207TIP3    H273113   0.212   4.590  13.818  0.1054 -1.0803  1.3836
17208TIP3   OH273114   5.918   4.990  11.737  0.2903  0.1325 -0.0617
17208TIP3    H173115   5.840   5.038  11.763  0.8974  2.1207 -1.6073
17208TIP3    H273116   5.938   4.933  11.811 -3.2130 -1.2839 -0.0557
17209TIP3   OH273117   3.095   4.086  12.534 -0.4181 -0.2102  0.2444
17209TIP3    H173118   3.020   4.064  12.590 -0.6836 -1.1655 -0.4696
17209TIP3    H273119   3.115   4.005  12.488  0.6564  0.2116 -0.0558
17210TIP3   OH273120   5.193   4.930   1.473 -0.4320 -0.0098 -0.3263
17210TIP3    H173121   5.254   4.996   1.440  0.6454 -0.3781  0.8643
17210TIP3    H273122   5.249   4.857   1.500 -1.3690 -0.2410  1.0750
17211TIP3   OH273123   2.489   0.211   3.659  0.2937 -0.1244  0.2567
17211TIP3    H173124   2.543   0.285   3.630 -1.2506  0.6963 -0.6351
17211TIP3    H273125   2.400   0.235   3.633 -0.5691 -1.2862  1.9719
17212TIP3   OH273126   6.404   3.334  16.593 -0.1382  0.1249  0.5456
17212TIP3    H173127   6.400   3.313  16.500  1.4376  0.6886  0.3117
17212TIP3    H273128   6.393   3.429  16.596  0.4188  0.1861  0.8643
17213TIP3   OH273129   1.435   0.201  10.986 -0.1527  0.6193 -0.3855
17213TIP3    H173130   1.379   0.141  10.937 -1.3577  0.0356  1.5655
17213TIP3    H273131   1.521   0.160  10.984 -0.5243 -0.1701 -0.7105
17214TIP3   OH273132   2.009   3.101   2.631  0.1067 -0.0161  0.5334
17214TIP3    H173133   2.082   3.146   2.590  1.6579 -1.9306  1.0213
17214TIP3    H273134   1.987   3.031   2.570 -0.5853 -0.1275  0.9063
17215TIP3   OH273135   0.530   1.232  12.212  0.4788 -0.6581  0.0838
17215TIP3    H173136   0.436   1.219  12.200  0.2444 -0.2961  1.3295
17215TIP3    H273137   0.571   1.177  12.146 -0.6330  2.0053 -3.0919
17216TIP3   OH273138   5.196   6.327   0.333 -0.2567 -0.0290 -0.1982
17216TIP3    H173139   5.219   6.302   0.423  1.7309  0.5614 -0.5044
17216TIP3    H273140   5.102   6.344   0.337 -0.9953 -3.5624  0.9086
17217TIP3   OH273141   2.804   0.039   4.521 -0.1820 -0.3932  0.0428
17217TIP3    H173142   2.742   0.097   4.564 -1.9260 -0.1723 -2.5958
17217TIP3    H273143   2.860   0.007   4.592 -2.1881  0.7619  2.2601
17218TIP3   OH273144   1.196   4.669  15.902  0.1191 -0.2037  0.5201
17218TIP3    H173145   1.240   4.703  15.980 -1.2434  2.0990  0.3926
17218TIP3    H273146   1.209   4.737  15.836 -0.4001 -1.2247 -0.6703
17219TIP3   OH273147   5.648   1.745  14.868  0.3120  0.1883 -0.5046
17219TIP3    H173148   5.688   1.728  14.783  2.0096 -1.5854  0.5696
17219TIP3    H273149   5.709   1.805  14.911  0.0448  0.1927 -0.1256
17220TIP3   OH273150   4.466   0.653   1.680 -0.3356 -0.1268  0.4332
17220TIP3    H173151   4.441   0.729   1.732 -1.8526 -1.1138  1.2387
17220TIP3    H273152   4.559   0.665   1.662 -0.0011  0.7841  2.4946
17221TIP3   OH273153   5.718   1.433   1.591 -0.2450 -0.3403 -0.4542
17221TIP3    H173154   5.790   1.495   1.595  0.6090 -1.2079 -1.8850
17221TIP3    H273155   5.651   1.476   1.538  0.0709 -0.3745 -0.8773
17222TIP3   OH273156   3.501   5.095  16.257 -0.7519 -0.2829  0.2903
17222TIP3    H173157   3.477   5.104  16.349 -1.1263  0.1890  0.1548
17222TIP3    H273158   3.596   5.097  16.257 -0.7437 -0.6196  0.6994
17223TIP3   OH273159   5.410   1.332  15.608  0.0965 -0.3922 -0.1022
17223TIP3    H173160   5.401   1.238  15.625 -0.3332 -0.4835 -0.7970
17223TIP3    H273161   5.366   1.345  15.524  2.7568 -0.1218 -1.5546
17224TIP3   OH273162   5.745   4.583  12.245  0.2829  0.9119 -0.1169
17224TIP3    H173163   5.804   4.562  12.317 -1.0813  0.2581  0.8431
17224TIP3    H273164   5.790   4.550  12.167  0.2297 -1.6623  0.8409
17225TIP3   OH273165   5.793   1.773  12.603  0.0322 -0.1303  0.3547
17225TIP3    H173166   5.837   1.836  12.546 -2.8610  1.2111 -0.5849
17225TIP3    H273167   5.703   1.804  12.607 -0.8638 -2.6868  2.1788
17226TIP3   OH273168   1.848   1.881  13.303 -0.1124  0.2415 -0.2944
17226TIP3    H173169   1.769   1.934  13.300 -0.9895 -1.0153 -0.4704
17226TIP3    H273170   1.858   1.849  13.213  0.8453  0.7177 -0.3675
17227TIP3   OH273171   6.507   0.379  14.410  0.1135  0.0592  0.0637
17227TIP3    H173172   6.509   0.400  14.504  0.7702 -0.1623  0.1036
17227TIP3    H273173   6.519   0.463  14.366 -0.1633  0.1598  0.1793
17228TIP3   OH273174   6.344   4.438   1.242  0.3899 -0.4228  0.5546
17228TIP3    H173175   6.256   4.405   1.262  0.7604 -1.8707 -0.0690
17228TIP3    H273176   6.350   4.520   1.290 -0.6729 -1.1530  2.0223
17229TIP3   OH273177   1.941   5.215  16.576  0.2922 -0.2486  0.0532
17229TIP3    H173178   1.963   5.279  16.643  0.5380 -2.4974  2.2303
17229TIP3    H273179   1.850   5.235  16.553 -0.2107 -0.1864  1.9636
17230TIP3   OH273180   4.201   1.761   1.607  0.3739  0.4729  0.0962
17230TIP3    H173181   4.217   1.668   1.622 -1.5432  0.1483  0.4438
17230TIP3    H273182   4.231   1.777   1.518  0.3211 -0.6052 -0.1273
17231TIP3   OH273183   5.718   6.017   4.552 -0.1568  0.0507  0.1922
17231TIP3    H173184   5.676   5.937   4.520  0.5815 -0.1736 -0.2363
17231TIP3    H273185   5.664   6.088   4.518  0.8316 -0.1555 -1.9574
17232TIP3   OH273186   0.508   5.056  16.074 -0.2555 -0.4547 -0.3028
17232TIP3    H173187   0.558   5.087  15.998  0.5497 -1.1217 -0.0537
17232TIP3    H273188   0.564   5.075  16.149 -1.0999  0.3116  0.1514
17233TIP3   OH273189   3.810   2.990  11.786 -0.0123 -0.4137 -0.4159
17233TIP3    H173190   3.786   2.996  11.693 -0.8240 -1.1153 -0.2685
17233TIP3    H273191   3.876   3.059  11.798  2.0786 -1.9679 -2.1073
17234TIP3   OH273192   5.186   1.000  11.953 -0.2822 -0.2717  0.0805
17234TIP3    H173193   5.155   1.006  12.044 -0.9557 -0.4375 -0.1270
17234TIP3    H273194   5.211   1.090  11.931  1.1550 -0.4620  0.8464
17235TIP3   OH273195   2.382   1.180  14.515  0.3284  0.0063 -0.0556
17235TIP3    H173196   2.457   1.215  14.563 -0.2054  0.8682  0.1674
17235TIP3    H273197   2.319   1.156  14.583  0.3434 -0.5814 -0.2481
17236TIP3   OH273198   3.298   0.195  12.886  0.2966  0.2884 -0.4495
17236TIP3    H173199   3.319   0.242  12.806 -1.0618  0.2461 -0.8649
17236TIP3    H273200   3.203   0.183  12.882  0.0606  1.0147  1.5585
17237TIP3   OH273201   3.545   4.472  14.739 -0.3091  0.3130  0.4110
17237TIP3    H173202   3.629   4.513  14.717 -0.8203  1.4761  0.5492
17237TIP3    H273203   3.515   4.520  14.816 -1.2436  0.1056  0.1832
17238TIP3   OH273204   0.296   2.171  15.292  0.7581  0.6657 -0.8271
17238TIP3    H173205   0.244   2.109  15.343  1.4009 -0.0119 -0.9735
17238TIP3    H273206   0.380   2.175  15.338  1.6585 -0.6233 -2.2678
17239TIP3   OH273207   3.346   0.145  14.602  0.1231 -0.1353 -0.7083
17239TIP3    H173208   3.344   0.077  14.669 -1.5767  1.5310  1.0631
17239TIP3    H273209   3.261   0.138  14.559  0.0844  0.6059 -0.7603
17240TIP3   OH273210   1.350   0.975   6.868  0.8576 -0.0285 -0.2433
17240TIP3    H173211   1.376   0.893   6.909  0.1080  0.1525  0.6419
17240TIP3    H273212   1.401   0.980   6.787  1.0193 -1.2844 -0.2267
17241TIP3   OH273213   2.501   4.243   0.542  0.1739 -0.2124  0.0359
17241TIP3    H173214   2.530   4.285   0.461 -1.1048  0.0818 -0.2789
17241TIP3    H273215   2.444   4.172   0.513  2.4677 -2.4297  0.5232
17242TIP3   OH273216   3.577   3.756   1.191  0.2789  0.4987 -0.1736
17242TIP3    H173217   3.544   3.843   1.167 -0.4686 -0.1607 -1.6723
17242TIP3    H273218   3.506   3.696   1.170  1.5932 -0.7223 -1.3693
17243TIP3   OH273219   6.394   3.246   2.483 -0.4116 -0.3428 -0.1542
17243TIP3    H173220   6.389   3.154   2.511  0.7827 -0.7209 -1.1193
17243TIP3    H273221   6.332   3.252   2.411  0.9949 -0.9439 -1.4608
17244TIP3   OH273222   3.783   4.207   3.640 -0.1842 -0.0250  0.0106
17244TIP3    H173223   3.809   4.116   3.625 -2.7173 -1.1201  1.7626
17244TIP3    H273224   3.859   4.247   3.682  1.5123 -0.8508 -2.0756
17245TIP3   OH273225   1.830   3.603   2.851 -0.2106 -0.0971  0.5365
17245TIP3    H173226   1.835   3.672   2.916  2.0112 -1.0565  1.4827
17245TIP3    H273227   1.839   3.522   2.901 -1.5866 -1.0364 -0.6633
17246TIP3   OH273228   0.154   1.818  16.861 -0.5378  0.2758 -0.3802
17246TIP3    H173229   0.104   1.883  16.812 -2.2720 -0.0746  0.8196
17246TIP3    H273230   0.212   1.869  16.917  1.6072  0.6838 -2.8002
17247TIP3   OH273231   3.339   1.689   3.866  0.6033  0.4078  0.4278
17247TIP3    H173232   3.315   1.713   3.955  1.0856  1.8828  0.1933
17247TIP3    H273233   3.275   1.734   3.811  0.0164 -0.8756  0.0261
17248TIP3   OH273234   5.156   3.727   4.584  0.3448  0.0419  0.4763
17248TIP3    H173235   5.082   3.769   4.540 -0.3228 -1.9207 -0.4051
17248TIP3    H273236   5.232   3.777   4.556 -0.4057  0.6845 -0.4901
17249TIP3   OH273237   0.052   4.570  11.322 -0.1181  0.0159  0.0620
17249TIP3    H173238   0.012   4.565  11.409 -0.1126 -2.9908 -0.0013
17249TIP3    H273239  -0.016   4.538  11.263  0.1863  1.1700 -0.9436
17250TIP3   OH273240   5.926   5.350  15.633  0.0891  0.0784 -0.4800
17250TIP3    H173241   5.923   5.386  15.722 -0.2885 -2.0669  0.4342
17250TIP3    H273242   6.017   5.322  15.621 -0.2853 -1.4398  0.0334
17251TIP3   OH273243   1.716   0.741   2.660  0.6541 -0.0090 -0.0432
17251TIP3    H173244   1.624   0.729   2.638  0.5960  2.2329 -1.3103
17251TIP3    H273245   1.741   0.823   2.616  3.0556 -0.1766  0.8586
17252TIP3   OH273246   3.195   2.456   3.917  0.4307  0.0019  0.1880
17252TIP3    H173247   3.149   2.455   4.001 -0.3557 -0.4560 -0.2342
17252TIP3    H273248   3.227   2.366   3.906 -1.0439 -0.4387 -0.8216
17253TIP3   OH273249   6.847   1.805  11.299 -0.0283  0.3041 -0.2505
17253TIP3    H173250   6.878   1.886  11.339  1.4477  0.0840 -0.8712
17253TIP3    H273251   6.926   1.752  11.286 -0.5541 -0.0877 -2.3723
17254TIP3   OH273252   2.834   3.809   2.372 -0.1791  0.6331 -0.1014
17254TIP3    H173253   2.773   3.785   2.303  0.0123 -0.6047  0.1344
17254TIP3    H273254   2.896   3.867   2.330  1.1439 -1.6734 -1.5672
17255TIP3   OH273255   1.775   5.204  11.202 -0.0632 -0.2288 -0.0315
17255TIP3    H173256   1.732   5.158  11.273 -0.0292 -0.4744 -0.1680
17255TIP3    H273257   1.739   5.165  11.122 -1.7743  1.5545 -0.2060
17256TIP3   OH273258   0.162   3.014   4.040  0.0361  0.0149 -0.1199
17256TIP3    H173259   0.168   2.948   4.108 -1.2612 -2.8439 -2.5353
17256TIP3    H273260   0.242   3.065   4.049  1.1202 -1.8848  1.9142
17257TIP3   OH273261   4.888   1.859  16.755 -0.5379  0.8841 -0.1178
17257TIP3    H173262   4.880   1.798  16.828 -0.6780  0.8446 -0.1649
17257TIP3    H273263   4.848   1.813  16.681  1.3234  0.1016 -0.7152
17258TIP3   OH273264   2.601   4.734   3.605  0.4322 -0.1095 -0.2987
17258TIP3    H173265   2.554   4.679   3.542 -2.3417 -0.0286  1.4989
17258TIP3    H273266   2.613   4.678   3.681 -1.3366  1.3041  1.1094
17259TIP3   OH273267   3.308   2.906  10.741  0.1050 -0.2082 -0.0144
17259TIP3    H173268   3.234   2.946  10.786  0.3590 -1.5581  1.7336
17259TIP3    H273269   3.275   2.821  10.711  1.9197 -3.0159  4.8640
17260TIP3   OH273270   5.878   4.170   2.418  0.1649  0.2438 -0.5171
17260TIP3    H173271   5.958   4.142   2.462  0.7021  1.4726 -0.6809
17260TIP3    H273272   5.859   4.099   2.356  1.3134  0.0907 -0.7098
17261TIP3   OH273273   4.820   6.862   3.350 -0.3528  0.0128  0.0450
17261TIP3    H173274   4.844   6.836   3.439 -0.1630 -0.4006 -0.1213
17261TIP3    H273275   4.816   6.957   3.353  0.0319  0.0240  0.4054
17262TIP3   OH273276   0.783   4.612   2.009  0.0979 -0.0330  0.1774
17262TIP3    H173277   0.739   4.654   2.082  0.0768  1.1169 -0.4882
17262TIP3    H273278   0.756   4.661   1.931  2.7162  0.9392 -0.2381
17263TIP3   OH273279   0.444   2.816   3.614 -0.1846  0.0239  0.3655
17263TIP3    H173280   0.455   2.730   3.572 -0.0290 -0.0312  0.5174
17263TIP3    H273281   0.532   2.853   3.615 -0.1517 -0.0646  0.8370
17264TIP3   OH273282   3.221   2.735   5.441  0.4603 -0.0821  0.8072
17264TIP3    H173283   3.178   2.793   5.378 -0.8851 -1.6834  0.1693
17264TIP3    H273284   3.274   2.676   5.387  0.8476 -0.2253  1.3372
17265TIP3   OH273285   4.881   2.374  11.452 -0.4821  0.8442  0.0830
17265TIP3    H173286   4.837   2.314  11.511 -1.8504  1.3534 -0.3588
17265TIP3    H273287   4.966   2.391  11.492 -0.6058 -0.3273  0.8780
17266TIP3   OH273288   2.246   5.200   1.260 -0.0746  0.3861  0.7532
17266TIP3    H173289   2.305   5.239   1.324  0.6515  1.1996 -0.3539
17266TIP3    H273290   2.243   5.264   1.189 -1.4476 -0.1377  0.2995
17267TIP3   OH273291   5.002   6.488   0.645 -0.5720 -0.4783 -0.2480
17267TIP3    H173292   5.089   6.467   0.610 -1.1480 -3.1734 -0.2632
17267TIP3    H273293   4.999   6.442   0.729 -2.8469 -2.6055 -1.3795
17268TIP3   OH273294   0.823   0.920   2.438 -0.0732  0.2848 -0.3423
17268TIP3    H173295   0.796   0.908   2.528  1.6970 -1.3276  0.0471
17268TIP3    H273296   0.757   0.978   2.400 -1.5684 -0.0368  1.6145
17269TIP3   OH273297   3.426   2.249  16.070  0.0414 -0.4241 -0.0630
17269TIP3    H173298   3.437   2.309  16.143  0.7764 -0.1420 -0.3951
17269TIP3    H273299   3.404   2.305  15.996  1.0378 -0.5118 -0.4430
17270TIP3   OH273300   1.390   3.882  13.425 -0.4062  0.4763  0.5229
17270TIP3    H173301   1.377   3.927  13.509 -1.8951 -1.6309  1.5345
17270TIP3    H273302   1.302   3.864  13.394  0.1017  2.0536 -2.0731
17271TIP3   OH273303   4.862   4.980  12.836  0.2235 -0.4906  0.0487
17271TIP3    H173304   4.945   4.942  12.863  0.4658  0.0292  0.0470
17271TIP3    H273305   4.848   5.053  12.896  0.9270  0.8835 -1.3956
17272TIP3   OH273306   5.046   1.952   3.989 -0.2099  0.1517 -0.0196
17272TIP3    H173307   5.021   2.005   4.065 -0.5004  1.1735 -0.8174
17272TIP3    H273308   4.964   1.920   3.953 -0.2153  1.2941 -1.0557
17273TIP3   OH273309   0.850   3.354   2.091  0.7181  0.2621  0.4538
17273TIP3    H173310   0.928   3.337   2.038  0.4455  0.2093  0.0686
17273TIP3    H273311   0.820   3.267   2.119 -0.0041  0.1780 -0.5528
17274TIP3   OH273312   0.608   3.569  16.945 -0.0733  0.1832 -0.0553
17274TIP3    H173313   0.607   3.604  16.856  2.0031  1.5690  0.3956
17274TIP3    H273314   0.600   3.646  17.002  0.8098 -0.4326  0.9517
17275TIP3   OH273315   1.288   5.698  15.715 -0.1824  0.6116  0.2722
17275TIP3    H173316   1.244   5.773  15.754  0.9829  0.3196  2.2866
17275TIP3    H273317   1.380   5.709  15.738  0.0734 -1.2309  0.3100
17276TIP3   OH273318   4.315   2.979   5.193 -0.6098  0.2892  0.2189
17276TIP3    H173319   4.284   2.890   5.174 -1.9319  0.7158  0.2698
17276TIP3    H273320   4.397   2.966   5.239  0.8926 -0.8586 -2.5567
17277TIP3   OH273321   2.500   6.485   5.048 -0.4192  0.1885  0.3662
17277TIP3    H173322   2.461   6.540   5.115  0.2325 -0.0632  0.9647
17277TIP3    H273323   2.583   6.457   5.085 -0.2591 -0.3345 -0.3600
17278TIP3   OH273324   4.134   4.397  15.974 -0.1017 -0.0216  0.6017
17278TIP3    H173325   4.164   4.321  16.025 -0.5659 -0.5991  0.0326
17278TIP3    H273326   4.204   4.413  15.911  0.0846  0.1476  0.8503
17279TIP3   OH273327   4.273   5.674  13.831  0.7637 -0.3161  0.2731
17279TIP3    H173328   4.213   5.601  13.839  1.0753 -0.6395 -0.2657
17279TIP3    H273329   4.346   5.652  13.890  0.8863 -0.4717  0.0649
17280TIP3   OH273330   1.221   2.355  12.226  0.1353 -0.3601  0.5979
17280TIP3    H173331   1.304   2.398  12.249  0.7261 -1.7907  1.2616
17280TIP3    H273332   1.217   2.279  12.283 -1.1708 -0.8573 -0.1193
17281TIP3   OH273333   5.172   4.589   4.147  0.1262  0.4586  0.5138
17281TIP3    H173334   5.230   4.645   4.198  0.5850 -0.0523  0.5511
17281TIP3    H273335   5.216   4.504   4.144 -0.8984 -0.1126  1.0727
17282TIP3   OH273336   2.304   2.253   2.494 -0.4328 -0.4857 -0.5866
17282TIP3    H173337   2.272   2.337   2.463 -0.6124 -1.0681 -2.0383
17282TIP3    H273338   2.228   2.213   2.538  0.1666  0.8733  1.8748
17283TIP3   OH273339   5.502   3.627   0.124  0.4559 -0.4651 -0.2018
17283TIP3    H173340   5.494   3.683   0.202  1.1598  1.2979 -1.3237
17283TIP3    H273341   5.596   3.617   0.111  0.3594 -0.2140 -1.1671
17284TIP3   OH273342   2.098   6.320  12.651 -0.4550  0.2486  0.3741
17284TIP3    H173343   2.107   6.408  12.613  0.8263 -0.6091 -1.4536
17284TIP3    H273344   2.055   6.269  12.582 -1.6656 -0.4870  1.6112
17285TIP3   OH273345   4.106   3.587   6.181  0.2724 -0.1157  0.2313
17285TIP3    H173346   4.041   3.612   6.115  2.5480  0.4553 -1.9361
17285TIP3    H273347   4.106   3.660   6.242  0.3104  0.8714 -0.9031
17286TIP3   OH273348   5.855   5.854  16.173  0.4540  0.4720 -0.2478
17286TIP3    H173349   5.778   5.907  16.195  1.0277  0.9546  0.6639
17286TIP3    H273350   5.864   5.793  16.246 -0.2178 -0.9585 -1.2974
17287TIP3   OH273351   3.633   2.221   4.133 -0.4444  0.0528  0.0526
17287TIP3    H173352   3.692   2.211   4.208  0.7558 -1.2399 -1.0043
17287TIP3    H273353   3.625   2.315   4.121  0.9739  0.2633  0.5861
17288TIP3   OH273354   1.875   1.782  15.870  0.1243  0.2565  0.1622
17288TIP3    H173355   1.921   1.714  15.820 -1.5828 -0.7821 -0.0663
17288TIP3    H273356   1.802   1.807  15.814 -0.8949  0.2376  1.4400
17289TIP3   OH273357   6.663   1.592  10.981 -0.3128  0.4503  0.0325
17289TIP3    H173358   6.585   1.646  10.994 -0.7087 -0.2316  0.5623
17289TIP3    H273359   6.726   1.651  10.940 -0.6592  1.3722  0.7861
17290TIP3   OH273360   1.608   4.906   0.931 -0.1698  0.3997  0.0497
17290TIP3    H173361   1.604   4.824   0.882 -0.6155  0.0547  0.6476
17290TIP3    H273362   1.686   4.897   0.986 -0.2250  0.3760  0.1234
17291TIP3   OH273363   6.727   3.251  17.088 -0.2136  0.1552 -0.0217
17291TIP3    H173364   6.726   3.263  16.993 -1.4944 -1.1187 -0.2055
17291TIP3    H273365   6.715   3.157  17.101  1.1525  0.1409  1.4037
17292TIP3   OH273366   0.108   0.729  11.807  0.7979 -0.2549  0.1679
17292TIP3    H173367   0.053   0.808  11.800  1.8296  0.4695 -0.0054
17292TIP3    H273368   0.197   0.761  11.793  1.0763 -1.7434 -1.7821
17293TIP3   OH273369   2.934   4.039   0.361  0.0509  0.0805 -0.4856
17293TIP3    H173370   2.911   4.026   0.270 -0.7018 -0.1151 -0.2727
17293TIP3    H273371   2.983   3.960   0.385  0.2350  0.1257 -0.7165
17294TIP3   OH273372   4.074   5.322   0.252  0.2550  0.0728 -0.2975
17294TIP3    H173373   4.056   5.298   0.161 -1.8121 -1.2605  0.3875
17294TIP3    H273374   4.085   5.417   0.250  2.8962 -0.1777 -2.2737
17295TIP3   OH273375   3.018   2.893  12.965 -0.5117  0.8790 -0.2647
17295TIP3    H173376   3.078   2.938  13.024  1.8617 -0.3508 -1.6135
17295TIP3    H273377   2.960   2.843  13.023  0.6775  0.9761  1.0481
17296TIP3   OH273378   4.788   5.487  12.637 -0.6842 -0.2377  0.7529
17296TIP3    H173379   4.775   5.392  12.631 -0.5250 -0.1965 -0.6236
17296TIP3    H273380   4.744   5.522  12.560  0.3498  0.6881  0.5558
17297TIP3   OH273381   5.787   3.107  16.250  0.1366  0.2539 -0.0034
17297TIP3    H173382   5.817   3.124  16.340  1.0873 -1.1407 -0.0430
17297TIP3    H273383   5.703   3.061  16.261 -0.5804  1.5319  0.1265
17298TIP3   OH273384   0.483   1.226  15.461  0.5222 -0.2291 -0.5786
17298TIP3    H173385   0.500   1.137  15.429 -0.2819  0.0361 -1.8429
17298TIP3    H273386   0.486   1.280  15.382 -1.0099  0.5504 -0.1323
17299TIP3   OH273387   4.089   2.979  12.096  0.0769  0.9258  0.0146
17299TIP3    H173388   4.062   3.071  12.108 -0.4910  0.6156  1.3485
17299TIP3    H273389   4.075   2.962  12.003 -2.4874  1.3992  0.2425
17300TIP3   OH273390   1.670   1.479  16.749  0.3851 -0.4641 -0.3361
17300TIP3    H173391   1.707   1.567  16.756 -0.2390 -0.1402 -1.0153
17300TIP3    H273392   1.718   1.427  16.814 -0.3814  0.7626  1.2797
17301TIP3   OH273393   2.398   5.698   1.687  0.3120 -0.0959 -0.3246
17301TIP3    H173394   2.399   5.793   1.674  0.7422 -0.0834 -0.2064
17301TIP3    H273395   2.317   5.682   1.736 -1.0353 -0.0852 -2.4174
17302TIP3   OH273396   5.688   4.781   4.565 -0.0912 -0.1669 -0.0769
17302TIP3    H173397   5.690   4.716   4.495 -1.7748  1.8866 -2.2078
17302TIP3    H273398   5.777   4.817   4.568  1.5430 -3.8073  2.6480
17303TIP3   OH273399   0.403   3.079   0.573 -0.4410 -0.0473 -0.1771
17303TIP3    H173400   0.481   3.134   0.574 -1.4181  1.3904  0.4893
17303TIP3    H273401   0.394   3.052   0.481  0.5001  0.2542 -0.3675
17304TIP3   OH273402   2.219   3.576  14.042  0.0270  0.0832 -0.2499
17304TIP3    H173403   2.226   3.520  13.964  1.1764 -0.3610  0.1501
17304TIP3    H273404   2.224   3.516  14.116  1.2851  0.6919  0.1903
17305TIP3   OH273405   4.928   4.336   5.054 -0.3535 -0.6372 -0.2324
17305TIP3    H173406   5.005   4.363   5.004 -0.6464 -1.7242 -1.3247
17305TIP3    H273407   4.860   4.399   5.028  0.1726  0.4115  0.8432
17306TIP3   OH273408   0.400   4.594   3.524 -0.5730  0.6892  0.2666
17306TIP3    H173409   0.322   4.596   3.469  0.2696  0.5910 -0.9868
17306TIP3    H273410   0.418   4.687   3.542 -0.4367  0.7733 -0.2702
17307TIP3   OH273411   2.759   0.568  12.842  0.3139 -0.1340 -0.5135
17307TIP3    H173412   2.688   0.544  12.783  1.4481 -0.8301 -1.6642
17307TIP3    H273413   2.823   0.612  12.785 -0.4044  3.2016  0.9635
17308TIP3   OH273414   1.347   6.307   3.711 -0.3511  0.0260  0.0343
17308TIP3    H173415   1.406   6.314   3.635  1.4658  0.7890  1.4272
17308TIP3    H273416   1.331   6.398   3.737 -0.1349 -0.2302  1.1176
17309TIP3   OH273417   2.801   5.758  11.916  0.0090  0.0378 -0.2984
17309TIP3    H173418   2.897   5.759  11.921 -0.0325 -0.6899  1.0121
17309TIP3    H273419   2.779   5.831  11.858  1.2967  1.0385  0.4404
17310TIP3   OH273420   3.267   1.233   4.459 -0.0985  0.5789 -0.2188
17310TIP3    H173421   3.182   1.208   4.496  0.5127  0.8581  1.4940
17310TIP3    H273422   3.263   1.328   4.451 -0.7214  0.4210 -2.2676
17311TIP3   OH273423   4.129   3.661   4.580  0.6470 -0.7412  0.6746
17311TIP3    H173424   4.224   3.650   4.588  0.4024 -2.3369  1.9708
17311TIP3    H273425   4.107   3.623   4.495  1.3720  1.5556 -0.6195
17312TIP3   OH273426   1.016   3.703   2.951 -0.3715 -0.5323 -0.0653
17312TIP3    H173427   1.107   3.691   2.926 -0.0927 -0.5667  0.8989
17312TIP3    H273428   0.997   3.794   2.929 -0.0638 -0.4899 -0.1637
17313TIP3   OH273429   0.668   4.505   4.930 -0.2998  0.0259 -0.3757
17313TIP3    H173430   0.720   4.437   4.886  1.7972  2.0098 -1.1592
17313TIP3    H273431   0.608   4.537   4.862  0.4334  0.6190 -0.7578
17314TIP3   OH273432   1.241   6.510   3.939  0.3217 -0.6077 -1.0237
17314TIP3    H173433   1.268   6.531   4.029  0.5786 -1.3153 -0.9241
17314TIP3    H273434   1.313   6.539   3.884  0.0138  0.1401 -1.0347
17315TIP3   OH273435   1.085   3.893  14.013 -0.4140  0.3015 -0.2120
17315TIP3    H173436   1.020   3.860  14.075 -0.7082  1.8595  0.3688
17315TIP3    H273437   1.118   3.815  13.969 -1.6471 -0.6615  0.4888
17316TIP3   OH273438   0.707   0.262   3.321 -0.6993 -0.3098  0.6684
17316TIP3    H173439   0.645   0.283   3.252  1.3328 -2.0428 -1.8441
17316TIP3    H273440   0.652   0.239   3.396 -2.9816  2.1589 -0.0844
17317TIP3   OH273441   0.161   1.532  14.710  0.4019 -0.0407  0.1908
17317TIP3    H173442   0.167   1.445  14.750 -0.4601 -0.4874 -0.6272
17317TIP3    H273443   0.240   1.539  14.656  0.2171 -0.5320 -0.1485
17318TIP3   OH273444   2.390   6.002   6.434 -0.2028  0.2696  0.1484
17318TIP3    H173445   2.320   6.050   6.390 -0.2010  0.5754  0.4729
17318TIP3    H273446   2.345   5.949   6.500 -0.2059 -0.1870 -0.2157
17319TIP3   OH273447   1.097   1.799  13.259 -0.2243 -0.2064  0.3563
17319TIP3    H173448   1.013   1.761  13.287 -0.6474  0.5317  0.1048
17319TIP3    H273449   1.114   1.869  13.322 -0.5884  0.6788 -0.4957
17320TIP3   OH273450   5.123   0.986  14.297  0.1901  0.3718 -0.2029
17320TIP3    H173451   5.176   0.945  14.365  0.5247  1.4436  0.2005
17320TIP3    H273452   5.051   0.925  14.282  1.6749 -1.2656 -0.9791
17321TIP3   OH273453   4.071   0.299   3.563 -0.2790 -0.1271  0.3077
17321TIP3    H173454   4.064   0.270   3.472  0.4257  0.8331 -0.0676
17321TIP3    H273455   4.164   0.296   3.583 -0.1214  2.0906  0.1459
17322TIP3   OH273456   5.436   5.810  14.857 -0.2006 -0.0014  0.2259
17322TIP3    H173457   5.479   5.809  14.771 -2.1327  0.7953 -0.8187
17322TIP3    H273458   5.504   5.840  14.917  0.1081  4.0470 -1.7833
17323TIP3   OH273459   6.392   0.802   4.858  0.5500 -0.0427 -0.1380
17323TIP3    H173460   6.484   0.827   4.860  0.8213  0.0548 -4.3128
17323TIP3    H273461   6.393   0.708   4.841  0.0296  0.2645 -2.1522
17324TIP3   OH273462   4.835   2.571  13.375 -0.3281 -0.1978 -0.1372
17324TIP3    H173463   4.846   2.555  13.469  1.6307  1.0627 -0.0791
17324TIP3    H273464   4.925   2.576  13.342 -0.9705  0.4883 -1.8644
17325TIP3   OH273465   6.393   5.755   5.369  0.6590 -0.1313 -0.2869
17325TIP3    H173466   6.349   5.797   5.443  0.8247 -1.4687  0.5928
17325TIP3    H273467   6.432   5.828   5.320  0.2290  0.8005  0.7228
17326TIP3   OH273468   6.738   5.306  11.466  0.3567 -0.1527 -0.6386
17326TIP3    H173469   6.783   5.351  11.395  0.3480 -0.5950 -0.9316
17326TIP3    H273470   6.711   5.375  11.526 -0.1065  0.2852 -1.3343
17327TIP3   OH273471   6.287   5.465  16.132  0.2057  0.2844 -0.9569
17327TIP3    H173472   6.222   5.437  16.068  1.6685 -0.7241 -2.0600
17327TIP3    H273473   6.292   5.393  16.195 -0.1479  0.6241 -0.5277
17328TIP3   OH273474   1.331   6.667   1.004  0.0766 -0.4228  0.0942
17328TIP3    H173475   1.239   6.690   1.015  0.0206 -0.0174 -1.0801
17328TIP3    H273476   1.378   6.747   1.027  0.0262 -0.0376 -1.0503
17329TIP3   OH273477   2.231   1.425   1.718  0.5093  0.4062 -0.0926
17329TIP3    H173478   2.259   1.487   1.786  1.4554  0.1653 -0.2395
17329TIP3    H273479   2.277   1.343   1.741  0.8014  0.3101 -0.9843
17330TIP3   OH273480   2.161   3.311   3.753  0.0287  0.0368 -1.0012
17330TIP3    H173481   2.236   3.254   3.769  1.4121  2.4409  2.3627
17330TIP3    H273482   2.085   3.261   3.784  0.8975 -0.7933 -0.1246
17331TIP3   OH273483   1.764   2.710  16.728 -0.2040 -0.4795  0.2558
17331TIP3    H173484   1.691   2.663  16.688  1.3023 -1.9581 -0.8865
17331TIP3    H273485   1.797   2.767  16.659 -1.8770  2.3116  1.5636
17332TIP3   OH273486   3.280   0.455   0.611 -0.2213 -0.2152 -0.5532
17332TIP3    H173487   3.292   0.547   0.587 -0.9395  0.4623  1.5256
17332TIP3    H273488   3.366   0.427   0.643  0.0550 -0.3531 -1.3922
17333TIP3   OH273489   2.790   5.182  14.074 -0.3248 -0.8054 -0.0407
17333TIP3    H173490   2.769   5.259  14.021  0.2050  1.5850  2.9567
17333TIP3    H273491   2.708   5.161  14.119  0.3495  0.4104  1.8902
17334TIP3   OH273492   2.957   1.393  15.740 -0.0282 -0.1508 -0.6355
17334TIP3    H173493   2.966   1.305  15.776  0.9938  0.4066  0.5710
17334TIP3    H273494   2.975   1.383  15.647  1.1413 -1.0722 -0.3343
17335TIP3   OH273495   5.260   0.636   5.152 -0.3988  0.0146  0.0332
17335TIP3    H173496   5.187   0.695   5.169  0.2617  0.4656  1.5203
17335TIP3    H273497   5.336   0.694   5.145 -0.1833 -0.4336 -1.6557
17336TIP3   OH273498   0.967   4.986  13.465  0.4300  0.4246 -0.1899
17336TIP3    H173499   0.966   4.909  13.523  1.5364  0.2009 -0.4427
17336TIP3    H273500   0.964   4.950  13.377 -0.2251  0.7291 -0.2996
17337TIP3   OH273501   2.387   6.323   2.114 -0.5327 -0.3006  0.1852
17337TIP3    H173502   2.474   6.307   2.149 -1.0139  0.7759  1.9603
17337TIP3    H273503   2.393   6.295   2.022  1.9557  0.6520 -0.0293
17338TIP3   OH273504   6.338   5.109   4.112  0.6629  0.0191 -0.5883
17338TIP3    H173505   6.405   5.166   4.152 -0.4935  0.4466  0.8215
17338TIP3    H273506   6.255   5.149   4.137 -0.2009 -2.2458  0.3703
17339TIP3   OH273507   5.873   0.800  16.806 -0.0696  0.3482 -0.0843
17339TIP3    H173508   5.884   0.737  16.878 -2.4025  1.0278  0.9733
17339TIP3    H273509   5.882   0.886  16.848 -3.1327  0.8052 -0.1421
17340TIP3   OH273510   6.508   1.703  16.279  0.4134 -0.4718  0.4866
17340TIP3    H173511   6.563   1.628  16.258  1.1593 -0.0055  0.7256
17340TIP3    H273512   6.530   1.724  16.370 -0.1384 -0.2497  0.5755
17341TIP3   OH273513   1.201   4.606   2.395  0.3244  0.6483 -0.5060
17341TIP3    H173514   1.136   4.635   2.458  0.2437  0.7380 -0.6299
17341TIP3    H273515   1.284   4.606   2.443  0.1735  0.1528 -0.2339
17342TIP3   OH273516   1.724   3.071   2.481 -0.6929 -0.4645 -0.2573
17342TIP3    H173517   1.792   3.004   2.482 -1.2498 -1.0442  0.8561
17342TIP3    H273518   1.693   3.075   2.572  0.5176  2.5491  0.1518
17343TIP3   OH273519   4.254   2.300  10.819  0.0962 -1.0166  0.0651
17343TIP3    H173520   4.297   2.278  10.736 -0.7004 -1.8993 -0.1434
17343TIP3    H273521   4.160   2.289  10.800 -0.2107  0.5641  0.5813
17344TIP3   OH273522   0.638   1.721  15.900  0.7749  0.2612  0.1971
17344TIP3    H173523   0.655   1.710  15.806 -0.5191 -1.1599  0.0871
17344TIP3    H273524   0.609   1.634  15.929  0.5732  0.8346  1.7933
17345TIP3   OH273525   5.625   4.922  13.562  0.1434 -0.2960 -0.3861
17345TIP3    H173526   5.579   4.842  13.588 -2.1143  0.4570 -1.7242
17345TIP3    H273527   5.563   4.992  13.582  0.4849  0.7567 -2.7235
17346TIP3   OH273528   3.658   4.432  12.035 -0.1063 -0.7679 -0.1784
17346TIP3    H173529   3.637   4.490  12.108  1.6637 -0.3437  0.0278
17346TIP3    H273530   3.693   4.353  12.076 -0.4265 -1.1069 -0.5379
17347TIP3   OH273531   1.384   5.314  15.270 -0.1965 -0.4948  0.5401
17347TIP3    H173532   1.424   5.243  15.220  0.3609 -0.6161  1.1469
17347TIP3    H273533   1.345   5.271  15.346  0.7634 -0.0785  1.2777
17348TIP3   OH273534   3.611   2.556   2.633 -0.0843 -0.2669 -0.6048
17348TIP3    H173535   3.671   2.482   2.635 -2.4666 -2.4001 -1.6439
17348TIP3    H273536   3.524   2.516   2.645 -1.2340  2.8441  3.2696
17349TIP3   OH273537   0.772   2.674   0.855 -0.6293  0.3577 -0.1348
17349TIP3    H173538   0.732   2.679   0.769  0.5055  2.3377 -0.6100
17349TIP3    H273539   0.702   2.698   0.916 -0.7052  1.8671 -0.7857
17350TIP3   OH273540   0.493   6.302  11.979 -0.3188 -0.0051 -0.4122
17350TIP3    H173541   0.433   6.339  11.914  0.8552  0.7738 -1.0712
17350TIP3    H273542   0.551   6.374  12.003 -0.1059 -0.5468  0.7949
17351TIP3   OH273543   3.656   3.265  13.617 -0.1279  0.3152 -0.1096
17351TIP3    H173544   3.611   3.346  13.643 -0.5207  0.3870 -0.9982
17351TIP3    H273545   3.663   3.215  13.698 -0.2170  1.0754  0.3789
17352TIP3   OH273546   5.927   5.966   2.851  0.1035  0.0541  0.2699
17352TIP3    H173547   5.967   6.047   2.818  0.7526  0.3989  1.7875
17352TIP3    H273548   5.845   5.995   2.891  0.0499 -0.1240  0.2895
17353TIP3   OH273549   5.601   5.648   6.045 -0.4712  0.1635 -0.1391
17353TIP3    H173550   5.586   5.554   6.036 -0.0228  0.0649  0.0825
17353TIP3    H273551   5.546   5.674   6.119 -1.1806  0.2266 -0.6828
17354TIP3   OH273552   3.677   5.993  10.801 -0.4464 -0.2039  0.0330
17354TIP3    H173553   3.698   5.905  10.769 -2.5637 -0.3104 -1.2954
17354TIP3    H273554   3.590   6.011  10.766  0.0602  2.5973 -0.0639
17355TIP3   OH273555   1.677   1.201   2.427 -0.0853  0.2817 -0.5739
17355TIP3    H173556   1.605   1.259   2.450  0.1706  0.1386  0.6729
17355TIP3    H273557   1.753   1.259   2.418 -0.2710  0.3900 -1.5361
17356TIP3   OH273558   2.190   3.043   3.028 -0.0242  0.3089 -0.4850
17356TIP3    H173559   2.236   2.986   2.966 -0.1641  0.4809 -0.7495
17356TIP3    H273560   2.201   3.131   2.993  0.0869  0.4342 -0.1430
17357TIP3   OH273561   3.641   6.591  14.753 -0.4793 -0.6705  0.5797
17357TIP3    H173562   3.626   6.636  14.837 -1.7212 -2.7524  1.5537
17357TIP3    H273563   3.683   6.508  14.778 -1.1780 -1.4744 -0.8217
17358TIP3   OH273564   1.815   2.333  14.805 -0.0921  0.2128  0.2609
17358TIP3    H173565   1.731   2.301  14.772 -1.1718  1.7000  1.4332
17358TIP3    H273566   1.825   2.289  14.890  0.8075 -0.6781 -0.2843
17359TIP3   OH273567   0.647   1.939   4.147  0.7228 -0.5543  0.4475
17359TIP3    H173568   0.614   1.896   4.226 -0.7143 -0.8808 -0.2792
17359TIP3    H273569   0.577   2.001   4.123 -0.1930 -2.3762 -2.0299
17360TIP3   OH273570   3.311   0.422   5.027  0.5857 -0.5542 -0.2209
17360TIP3    H173571   3.399   0.454   5.047  0.3524  0.4247 -0.6554
17360TIP3    H273572   3.258   0.448   5.103  0.8374 -1.9456  0.4526
17361TIP3   OH273573   5.710   6.023  15.632  0.2283 -0.3413 -0.0801
17361TIP3    H173574   5.639   5.972  15.671  0.2627  0.2435  0.7793
17361TIP3    H273575   5.697   6.014  15.538 -0.4580 -0.9663  0.0621
17362TIP3   OH273576   2.450   5.291   2.841  0.4906  0.1801  0.4519
17362TIP3    H173577   2.479   5.224   2.903 -1.1676 -2.6116 -1.5121
17362TIP3    H273578   2.363   5.316   2.872  0.4174  0.1606  0.2625
17363TIP3   OH273579   5.717   2.346   4.965 -0.0978  0.2552 -0.2551
17363TIP3    H173580   5.807   2.344   4.931 -0.0612  0.9851 -0.2159
17363TIP3    H273581   5.662   2.333   4.887  0.0432 -0.8017 -0.1972
17364TIP3   OH273582   2.366   6.361   4.854  0.2920  0.3255  0.2904
17364TIP3    H173583   2.304   6.425   4.819 -0.5118 -0.8571 -0.5091
17364TIP3    H273584   2.418   6.410   4.918  0.0655  1.9131 -0.6867
17365TIP3   OH273585   5.519   2.047  16.155  0.1057  0.0824 -0.8152
17365TIP3    H173586   5.580   2.064  16.083  0.1546  0.0154 -0.7889
17365TIP3    H273587   5.433   2.046  16.114  0.1571 -0.2353 -0.9167
17366TIP3   OH273588   2.336   6.056   6.137 -0.6714 -0.2679 -0.2875
17366TIP3    H173589   2.296   6.016   6.214 -2.5979 -0.2629 -1.2225
17366TIP3    H273590   2.418   6.008   6.125 -1.8263 -2.4395 -0.0576
17367TIP3   OH273591   3.463   2.263  14.185 -0.3406 -0.1815  0.2528
17367TIP3    H173592   3.550   2.232  14.209 -0.2936 -1.1769 -1.0284
17367TIP3    H273593   3.405   2.225  14.251 -0.1262 -2.0949 -0.5680
17368TIP3   OH273594   0.233   2.801  17.111 -0.5547  0.0693 -0.0445
17368TIP3    H173595   0.326   2.821  17.118 -0.4411  0.1034 -1.3069
17368TIP3    H273596   0.229   2.726  17.051 -1.3669  0.5785 -0.6567
17369TIP3   OH273597   1.323   1.441   4.493  0.1382  0.2053 -0.4384
17369TIP3    H173598   1.259   1.480   4.553  0.5748  0.2997 -0.0318
17369TIP3    H273599   1.370   1.515   4.456  0.3313  0.1085 -0.3836
17370TIP3   OH273600   0.151   3.909  11.566  0.4224 -0.1291 -0.0941
17370TIP3    H173601   0.075   3.939  11.616  2.2915  1.0788  2.1964
17370TIP3    H273602   0.139   3.814  11.560 -0.8041 -0.0852  1.0256
17371TIP3   OH273603   5.577   2.724  14.120  0.0149 -0.6003  0.3114
17371TIP3    H173604   5.490   2.765  14.116 -0.0039 -0.4447  1.8665
17371TIP3    H273605   5.638   2.797  14.124  0.1774 -0.7179  0.0265
17372TIP3   OH273606   4.715   2.734  12.353  0.4618  0.1356 -0.6234
17372TIP3    H173607   4.674   2.728  12.267  0.4453  0.6828 -0.6572
17372TIP3    H273608   4.750   2.823  12.357 -1.5084  0.9108  0.8055
17373TIP3   OH273609   5.701   5.772  12.904  0.0894  0.1782 -0.4081
17373TIP3    H173610   5.607   5.764  12.888 -0.1111  1.5762 -0.0816
17373TIP3    H273611   5.717   5.716  12.980 -0.7050  0.8040  0.2375
17374TIP3   OH273612   1.116   5.068  15.139 -0.4523  0.0984  0.5685
17374TIP3    H173613   1.097   5.068  15.233 -1.2629  2.2749  0.4750
17374TIP3    H273614   1.066   5.143  15.105 -0.3755 -0.7826 -1.6402
17375TIP3   OH273615   5.844   0.772  14.700 -0.2352  0.0433  0.2769
17375TIP3    H173616   5.842   0.736  14.611 -2.4602  0.0351  0.2664
17375TIP3    H273617   5.862   0.696  14.756 -2.0275 -0.6119  0.0351
17376TIP3   OH273618   2.707   4.404   0.605  0.3309  0.0469 -0.1232
17376TIP3    H173619   2.629   4.351   0.591  0.3743 -0.1294  0.2938
17376TIP3    H273620   2.685   4.462   0.677 -0.1085  1.3992 -1.3034
17377TIP3   OH273621   4.464   1.036   3.539  0.6005  0.4111  0.6647
17377TIP3    H173622   4.525   1.006   3.471 -0.1838 -0.3829  0.2791
17377TIP3    H273623   4.481   1.130   3.547  1.0996  0.4119 -0.2217
17378TIP3   OH273624   3.439   5.358  14.164 -0.8658 -0.9670  0.3631
17378TIP3    H173625   3.408   5.443  14.132  0.2582 -0.3736  0.7675
17378TIP3    H273626   3.403   5.351  14.252 -0.6854 -0.7415  0.4571
17379TIP3   OH273627   6.813   6.767   2.518 -0.2437 -0.3731  1.0873
17379TIP3    H173628   6.868   6.842   2.541  0.7680 -0.5369 -0.5687
17379TIP3    H273629   6.861   6.724   2.447 -2.7768 -0.1953 -0.8698
17380TIP3   OH273630   2.903   6.092   6.448 -0.8606  0.3285  0.4767
17380TIP3    H173631   2.939   6.008   6.419 -2.1569  0.4455 -1.6521
17380TIP3    H273632   2.833   6.069   6.509  0.3631 -0.0157  1.7922
17381TIP3   OH273633   3.759   3.864  10.198  0.2605  0.0543 -0.0059
17381TIP3    H173634   3.834   3.810  10.222  0.2219  0.0879  0.1998
17381TIP3    H273635   3.776   3.893  10.109  0.9006  0.7475  0.3323
17382TIP3   OH273636   5.953   2.099   2.760 -0.6090  0.0954 -0.3092
17382TIP3    H173637   5.937   2.155   2.836 -2.3708  0.4159 -0.8659
17382TIP3    H273638   5.880   2.038   2.760  0.7122 -1.5484 -0.3337
17383TIP3   OH273639   3.269   3.838  14.138 -0.1219 -0.3243  0.1734
17383TIP3    H173640   3.329   3.902  14.099 -1.1306  0.9028  0.5716
17383TIP3    H273641   3.247   3.875  14.223  0.1545 -1.7871  0.9155
17384TIP3   OH273642   3.397   2.523   5.344 -0.0004  0.1620  0.1904
17384TIP3    H173643   3.414   2.430   5.361  1.4005 -0.3480 -3.1966
17384TIP3    H273644   3.480   2.558   5.313 -0.8127  2.2528  0.1738
17385TIP3   OH273645   3.139   5.660  12.733  0.1896 -0.8415 -0.1262
17385TIP3    H173646   3.068   5.665  12.670  0.1922 -0.4920 -0.1015
17385TIP3    H273647   3.211   5.709  12.693  0.8191 -2.1696 -0.6691
17386TIP3   OH273648   2.357   0.379  15.396 -0.4314  0.4553 -0.2609
17386TIP3    H173649   2.267   0.413  15.391 -0.8864 -0.4351  1.2580
17386TIP3    H273650   2.346   0.284  15.397  0.4877  0.3454  0.4780
17387TIP3   OH273651   5.011   0.747  16.423  0.3565 -0.0342 -0.2350
17387TIP3    H173652   5.092   0.787  16.453  1.0640 -1.2907 -0.4022
17387TIP3    H273653   4.992   0.678  16.487 -0.1479 -0.2727 -0.6236
17388TIP3   OH273654   3.731   4.937   5.903 -0.4016  0.0551 -0.0844
17388TIP3    H173655   3.803   4.912   5.961 -0.6043 -0.0143  0.1412
17388TIP3    H273656   3.664   4.869   5.918 -0.5902  0.2259 -0.1491
17389TIP3   OH273657   5.707   5.144  11.829 -0.3527  0.7054 -0.6529
17389TIP3    H173658   5.646   5.195  11.776  0.2504  1.0800 -0.9978
17389TIP3    H273659   5.685   5.166  11.920 -0.2196  1.4365 -0.7945
17390TIP3   OH273660   5.328   1.666   1.513  0.1574  0.0835  0.1636
17390TIP3    H173661   5.328   1.713   1.596  0.8133 -0.8880  0.7308
17390TIP3    H273662   5.244   1.620   1.512 -1.0610  2.1906 -0.9718
17391TIP3   OH273663   4.057   4.608  14.876 -0.4141 -0.0707 -0.4316
17391TIP3    H173664   4.027   4.697  14.861 -0.0592 -0.3553 -3.2674
17391TIP3    H273665   3.977   4.558  14.892 -0.9295  0.2567 -1.8598
17392TIP3   OH273666   5.716   0.224  14.445  0.4441  0.2475  0.3130
17392TIP3    H173667   5.624   0.247  14.460  1.2866  2.8492  2.3553
17392TIP3    H273668   5.750   0.297  14.393  1.6797  0.0421  0.8071
17393TIP3   OH273669   5.177   1.062   0.484  0.2887  0.1103  0.1525
17393TIP3    H173670   5.201   1.029   0.571  0.0510 -0.1239  0.1318
17393TIP3    H273671   5.239   1.020   0.425  0.8910  0.8049  0.2829
17394TIP3   OH273672   4.322   4.663  13.221 -0.5766  1.3126  0.1330
17394TIP3    H173673   4.285   4.630  13.303 -0.1984 -3.1401 -1.2145
17394TIP3    H273674   4.417   4.659  13.234 -0.4719 -0.5400 -0.7179
17395TIP3   OH273675   1.077   5.233   4.077  0.6385 -0.5155 -0.2342
17395TIP3    H173676   1.091   5.294   4.005  2.2551 -0.1081  0.3892
17395TIP3    H273677   1.035   5.157   4.036  2.1747 -0.6016 -1.7670
17396TIP3   OH273678   6.719   0.816  17.046  0.5847  0.5915  0.1291
17396TIP3    H173679   6.663   0.740  17.031 -1.3152  1.8804  0.4198
17396TIP3    H273680   6.798   0.780  17.085  0.2770 -1.3637 -0.9217
17397TIP3   OH273681   2.071   3.465  13.464 -0.0666 -0.1743 -0.1906
17397TIP3    H173682   2.118   3.519  13.528 -0.1944 -1.2070  0.8233
17397TIP3    H273683   1.980   3.491  13.473 -0.0021  0.1281 -0.4107
17398TIP3   OH273684   5.528   1.971  15.868  0.3331 -0.1585 -0.3769
17398TIP3    H173685   5.592   1.920  15.820  1.0657  1.4665 -1.2227
17398TIP3    H273686   5.580   2.030  15.923 -0.4829 -1.0246  1.3907
17399TIP3   OH273687   4.544   0.734   5.287 -0.1638  0.5133  0.0675
17399TIP3    H173688   4.504   0.658   5.329  2.5837 -0.3690  1.2441
17399TIP3    H273689   4.495   0.744   5.205 -1.5943 -1.5526  0.6024
17400TIP3   OH273690   4.774   6.372  13.791 -0.2883  0.5872  0.3251
17400TIP3    H173691   4.679   6.371  13.778 -0.4209  2.1843  0.8457
17400TIP3    H273692   4.786   6.428  13.868  1.2000  2.4700 -1.1909
17401TIP3   OH273693   1.337   3.723   2.145 -0.5224 -0.0448  0.0287
17401TIP3    H173694   1.333   3.750   2.237  0.2063 -0.8668  0.3177
17401TIP3    H273695   1.332   3.627   2.148 -0.6527 -0.0703 -0.8019
17402TIP3   OH273696   5.826   4.579  10.965 -0.1644  0.4148  0.1137
17402TIP3    H173697   5.739   4.575  10.924  0.0829  1.5743 -0.5875
17402TIP3    H273698   5.853   4.488  10.973 -1.7714 -0.0208  1.0819
17403TIP3   OH273699   4.606   6.511  15.406 -0.2299 -0.3256  0.4481
17403TIP3    H173700   4.626   6.604  15.395  0.8226 -0.6490 -0.6138
17403TIP3    H273701   4.672   6.481  15.468  0.3267 -0.6385 -0.2788
17404TIP3   OH273702   1.418   3.233  12.368 -0.3930 -0.4852 -0.5948
17404TIP3    H173703   1.368   3.282  12.303 -1.1941 -0.5286 -0.0211
17404TIP3    H273704   1.352   3.186  12.419  0.2008 -0.1653  0.4837
17405TIP3   OH273705   6.751   2.146  15.070 -0.7642 -0.0556 -0.5262
17405TIP3    H173706   6.749   2.104  14.985 -1.4711 -1.4386  0.1402
17405TIP3    H273707   6.777   2.077  15.131  1.6438  1.3412  0.1871
17406TIP3   OH273708   2.910   6.432   3.728  0.0427 -0.0022 -0.2558
17406TIP3    H173709   2.980   6.440   3.663  0.5515  0.2925  0.3116
17406TIP3    H273710   2.906   6.339   3.748 -0.9729 -0.2815 -1.6121
17407TIP3   OH273711   0.038   3.325   4.997  0.1372  0.4317 -0.6619
17407TIP3    H173712   0.028   3.252   4.936 -1.4783 -0.7016  0.8529
17407TIP3    H273713   0.111   3.299   5.054 -1.8775 -1.2275  1.3482
17408TIP3   OH273714   0.098   3.602   2.599  0.0165 -0.6027  0.0606
17408TIP3    H173715   0.081   3.679   2.545 -0.1590  0.5485  1.7065
17408TIP3    H273716   0.176   3.562   2.559 -0.0309  0.2753 -0.9602
17409TIP3   OH273717   2.149   6.412  15.124 -0.0491 -0.0472  0.2629
17409TIP3    H173718   2.199   6.356  15.064 -0.9632 -0.7086  0.0936
17409TIP3    H273719   2.175   6.383  15.211  0.9188  0.5848  0.1926
17410TIP3   OH273720   4.350   5.933   1.259 -0.2592  0.1413  0.2461
17410TIP3    H173721   4.342   5.903   1.169 -1.4312 -0.0289  0.3852
17410TIP3    H273722   4.309   5.864   1.311  1.9750 -0.6074  1.1061
17411TIP3   OH273723   4.639   6.136  15.048  0.5911 -0.9355 -0.3123
17411TIP3    H173724   4.690   6.098  15.120 -0.3666  0.3891  1.1048
17411TIP3    H273725   4.683   6.103  14.969  2.5785 -1.2414  0.8388
17412TIP3   OH273726   4.639   0.003   1.847 -0.1092 -0.2546 -0.3312
17412TIP3    H173727   4.649  -0.042   1.931  1.2990  2.6561  1.2539
17412TIP3    H273728   4.729   0.023   1.820 -0.6212  0.4187 -1.5952
17413TIP3   OH273729   6.269   4.232  16.026 -0.0570  0.5447  0.5048
17413TIP3    H173730   6.310   4.148  16.046  0.2135  1.0366  2.1179
17413TIP3    H273731   6.210   4.212  15.952 -0.0757 -1.0754  0.9051
17414TIP3   OH273732   3.376   3.571   6.078 -0.2378  0.0151  0.1228
17414TIP3    H173733   3.404   3.605   5.992  1.5224 -0.3064  0.5353
17414TIP3    H273734   3.294   3.618   6.096 -1.3379 -0.8272 -2.2743
17415TIP3   OH273735   3.156   1.364   5.739  0.3980 -0.5019 -0.1563
17415TIP3    H173736   3.090   1.320   5.687  0.6597 -0.8722 -0.1772
17415TIP3    H273737   3.131   1.348   5.830  1.0322 -1.5416 -0.1465
17416TIP3   OH273738   2.643   6.143  10.223  0.0825 -0.4054 -1.0487
17416TIP3    H173739   2.725   6.108  10.258  0.2158 -0.0949 -1.0445
17416TIP3    H273740   2.639   6.232  10.259 -2.0700 -1.5829  2.0704
17417TIP3   OH273741   2.150   0.467   4.315 -0.1274 -0.1835 -0.3727
17417TIP3    H173742   2.111   0.503   4.394  1.4203 -1.3144  0.9929
17417TIP3    H273743   2.236   0.509   4.309  0.0384 -0.5966 -1.0583
17418TIP3   OH273744   1.502   1.273   2.004  0.0241  0.2924  0.1775
17418TIP3    H173745   1.476   1.361   1.977  0.5464  1.0328  1.9531
17418TIP3    H273746   1.423   1.236   2.045 -0.7719 -0.8335 -2.1776
17419TIP3   OH273747   6.482   6.693   3.529  0.3656 -0.2967  0.1999
17419TIP3    H173748   6.521   6.666   3.612  1.4987 -0.2532 -0.2904
17419TIP3    H273749   6.397   6.731   3.553  0.3334 -0.9928  1.2463
17420TIP3   OH273750   5.988   0.624  13.035 -0.0969  0.4192  0.3663
17420TIP3    H173751   5.920   0.645  13.099  0.1476 -0.4503  0.9203
17420TIP3    H273752   6.065   0.604  13.088 -0.6360 -3.1476 -0.0098
17421TIP3   OH273753   3.315   4.881   0.764 -0.0281  0.4460  0.1387
17421TIP3    H173754   3.341   4.942   0.696 -2.2508  1.5095  0.1774
17421TIP3    H273755   3.398   4.851   0.802  1.1824  1.3239 -1.6932
17422TIP3   OH273756   6.212   6.380  14.775 -0.3722 -0.2776  0.4176
17422TIP3    H173757   6.253   6.335  14.849 -2.0940 -0.0368  1.5782
17422TIP3    H273758   6.246   6.469  14.779 -1.2092  0.0124  1.5686
17423TIP3   OH273759   4.211   3.605  12.646  0.1694 -0.3078 -0.0567
17423TIP3    H173760   4.235   3.593  12.555  1.2448 -0.8798  0.2933
17423TIP3    H273761   4.223   3.699  12.662 -0.4228 -0.1317 -0.6001
17424TIP3   OH273762   4.256   2.551  13.018  0.3677 -0.6154  0.6314
17424TIP3    H173763   4.253   2.624  13.080  0.2967  1.8755 -2.0734
17424TIP3    H273764   4.283   2.476  13.071  0.5665  1.3424  3.5725
17425TIP3   OH273765   6.311   1.678   2.486 -0.0867 -0.5917 -0.0064
17425TIP3    H173766   6.304   1.650   2.395 -1.3261  1.9079 -0.7564
17425TIP3    H273767   6.224   1.711   2.509  0.9270  1.5610  1.0836
17426TIP3   OH273768   6.038   3.188  12.669  0.2399 -0.4751 -0.6824
17426TIP3    H173769   5.964   3.161  12.724  0.2631  1.9998  0.7270
17426TIP3    H273770   5.998   3.211  12.585 -0.7036  1.0146  0.1237
17427TIP3   OH273771   3.045   5.921  15.320  0.4733  0.1761 -0.2144
17427TIP3    H173772   3.098   5.989  15.361 -0.7627  0.9411  0.1955
17427TIP3    H273773   2.970   5.910  15.379  0.1080 -0.7724 -0.8224
17428TIP3   OH273774   4.071   5.171   2.249 -0.0826  0.3480  0.2961
17428TIP3    H173775   4.045   5.262   2.264  0.4783  0.2293  2.2875
17428TIP3    H273776   4.157   5.177   2.207  0.0236  0.7549  0.5602
17429TIP3   OH273777   5.681   1.427  11.147  0.5955 -0.2535  0.5679
17429TIP3    H173778   5.737   1.356  11.179 -0.7657 -1.4292  0.4089
17429TIP3    H273779   5.652   1.398  11.061 -0.1534  0.3904  0.5914
17430TIP3   OH273780   4.577   4.219  15.092 -0.4767 -0.3192 -0.4011
17430TIP3    H173781   4.534   4.279  15.031  1.0447  1.3939  0.1216
17430TIP3    H273782   4.662   4.202  15.053 -0.7671 -1.9455 -0.3863
17431TIP3   OH273783   5.517   2.648   5.625 -0.9666 -0.0359 -0.2171
17431TIP3    H173784   5.555   2.736   5.624 -0.4487 -0.2531  0.1065
17431TIP3    H273785   5.565   2.600   5.557 -0.1165 -0.5280  0.7014
17432TIP3   OH273786   0.618   3.464  13.282 -0.8448  0.5345 -0.2453
17432TIP3    H173787   0.654   3.465  13.194 -0.8006  1.2227 -0.2254
17432TIP3    H273788   0.639   3.377  13.316 -0.9377  0.2358 -0.9379
17433TIP3   OH273789   3.929   2.012  12.600  0.0235 -0.3428 -0.4251
17433TIP3    H173790   3.986   2.068  12.546 -0.8179  0.9128 -0.0680
17433TIP3    H273791   3.909   2.066  12.677 -0.5728 -1.2731  0.0927
17434TIP3   OH273792   3.340   5.701   3.976  0.0930 -0.7444 -0.4011
17434TIP3    H173793   3.300   5.749   4.049  0.1980 -1.6780  0.2855
17434TIP3    H273794   3.299   5.615   3.978 -0.6783 -0.4580 -2.1233
17435TIP3   OH273795   1.794   5.235   1.874  0.5173  0.1606  0.3622
17435TIP3    H173796   1.864   5.217   1.936 -0.3367  1.0897  1.6378
17435TIP3    H273797   1.718   5.189   1.910 -0.0885  1.0474  0.2433
17436TIP3   OH273798   3.866   0.666  11.592  0.2191  0.4679  0.5142
17436TIP3    H173799   3.827   0.579  11.596 -0.1284  0.6469  1.0810
17436TIP3    H273800   3.792   0.724  11.573  0.1125  0.8635  2.0061
17437TIP3   OH273801   2.871   3.094  16.107 -0.4724 -0.1648 -0.5027
17437TIP3    H173802   2.860   3.154  16.181  0.7639  0.9220 -1.1663
17437TIP3    H273803   2.784   3.056  16.094 -1.2119  1.2391  0.1459
17438TIP3   OH273804   5.231   5.468   0.402 -0.0671  0.4596  0.1385
17438TIP3    H173805   5.234   5.477   0.307 -1.0312 -0.6041 -0.0045
17438TIP3    H273806   5.246   5.557   0.434 -1.1832  1.1021 -1.0330
17439TIP3   OH273807   4.775   4.821   5.090 -0.8055 -0.2166 -0.0364
17439TIP3    H173808   4.699   4.769   5.115 -1.0847  0.0536 -0.3038
17439TIP3    H273809   4.851   4.768   5.115 -1.0825 -0.4771  0.2524
17440TIP3   OH273810   5.078   4.867   4.387 -0.2667  0.0108 -0.3576
17440TIP3    H173811   5.000   4.896   4.434 -1.2319 -0.3368 -1.6808
17440TIP3    H273812   5.046   4.841   4.301  1.2617 -0.5130 -0.8071
17441TIP3   OH273813   3.974   1.320   1.583 -0.4364 -0.4384 -0.2978
17441TIP3    H173814   3.968   1.400   1.532  0.2723 -1.6225 -2.3512
17441TIP3    H273815   4.054   1.331   1.635 -1.0924  0.7277  0.5042
17442TIP3   OH273816   2.212   0.718   5.236  0.3570  1.0545  0.1875
17442TIP3    H173817   2.299   0.715   5.198  0.8835  0.9066  1.3555
17442TIP3    H273818   2.227   0.729   5.330 -0.8827  1.2123  0.3875
17443TIP3   OH273819   0.208   4.080  10.800  0.6711  0.5754  0.2201
17443TIP3    H173820   0.209   4.174  10.779 -0.9141  0.4676 -0.4881
17443TIP3    H273821   0.294   4.049  10.775  1.2055  1.8297  0.4154
17444TIP3   OH273822   6.168   1.956   3.474  0.0376  0.1698 -0.0290
17444TIP3    H173823   6.254   1.993   3.495 -0.3360  1.6187 -0.9141
17444TIP3    H273824   6.107   2.028   3.488 -0.7055 -0.0305 -1.9376
17445TIP3   OH273825   0.225   3.163   5.487 -0.3175 -0.4325  0.6266
17445TIP3    H173826   0.199   3.074   5.464 -0.4111  0.2028 -2.1238
17445TIP3    H273827   0.145   3.204   5.519 -0.9052 -0.6417 -0.5222
17446TIP3   OH273828   1.426   5.540  12.517 -0.7138  0.5134 -0.0965
17446TIP3    H173829   1.489   5.509  12.451 -1.1176 -0.0725 -0.2112
17446TIP3    H273830   1.344   5.499  12.492 -0.9441  0.5569  0.5873
17447TIP3   OH273831   6.139   5.986  16.909  0.3606  0.1618 -0.1029
17447TIP3    H173832   6.190   6.066  16.921 -0.4256  0.5399  0.9738
17447TIP3    H273833   6.087   6.002  16.831  2.0676 -0.3542 -1.3956
17448TIP3   OH273834   6.156   1.285   1.511  0.3442  0.2662 -0.5653
17448TIP3    H173835   6.115   1.305   1.595  0.2902  0.6569 -0.6805
17448TIP3    H273836   6.085   1.292   1.447  0.6046  1.0968 -0.7852
17449TIP3   OH273837   0.776   2.076   2.394 -0.2048  0.3130  0.2161
17449TIP3    H173838   0.852   2.020   2.413  0.2374  0.4932 -0.9799
17449TIP3    H273839   0.728   2.029   2.326  0.9667  2.0188 -1.9208
17450TIP3   OH273840   4.597   4.323   4.683 -0.0516 -0.3213  0.3199
17450TIP3    H173841   4.508   4.356   4.669  0.7409  1.1963 -1.7276
17450TIP3    H273842   4.642   4.340   4.600  1.9928 -1.5994  1.0931
17451TIP3   OH273843   6.367   0.325  14.963  0.1860  0.2868  0.1455
17451TIP3    H173844   6.416   0.397  14.924  1.5571 -1.1171 -0.8361
17451TIP3    H273845   6.434   0.263  14.993 -0.8929 -2.0972 -2.0149
17452TIP3   OH273846   0.754   0.659  12.588  0.0524 -0.0185  0.6097
17452TIP3    H173847   0.845   0.673  12.560 -0.3160 -0.6810 -1.0814
17452TIP3    H273848   0.707   0.736  12.557  0.2625  1.0983  2.8921
17453TIP3   OH273849   0.973   2.967  13.352  0.0523  0.2660 -0.0160
17453TIP3    H173850   1.033   3.042  13.358 -0.2201  0.4229  0.8594
17453TIP3    H273851   0.965   2.951  13.258  2.6010 -0.6866 -0.1495
17454TIP3   OH273852   6.110   3.681   0.419  0.5981 -0.1235  0.0240
17454TIP3    H173853   6.082   3.591   0.400  1.2884 -0.3977  0.2883
17454TIP3    H273854   6.036   3.718   0.467 -0.6898  0.2208 -2.0839
17455TIP3   OH273855   0.921   3.531  13.266 -0.1818 -0.6376 -0.2041
17455TIP3    H173856   1.015   3.516  13.271 -0.3705 -2.9064 -1.9161
17455TIP3    H273857   0.913   3.623  13.240  1.3769  0.5176  2.8730
17456TIP3   OH273858   0.598   6.049   5.271 -0.6054 -0.4254  0.2337
17456TIP3    H173859   0.530   6.039   5.204 -0.3441  1.3253 -0.3507
17456TIP3    H273860   0.653   5.972   5.260 -1.4486 -0.9434 -0.5306
17457TIP3   OH273861   0.386   1.058  14.773 -0.2781  0.0006 -0.2903
17457TIP3    H173862   0.434   0.986  14.815  1.0069  2.4808  2.8460
17457TIP3    H273863   0.421   1.061  14.684  2.1260 -1.1114  0.5428
17458TIP3   OH273864   2.767   2.422  15.586 -0.2338 -0.5441  0.0810
17458TIP3    H173865   2.798   2.345  15.634 -0.0630 -1.1260 -0.9460
17458TIP3    H273866   2.792   2.406  15.495  1.7816  1.6741  0.1133
17459TIP3   OH273867   3.197   0.862   1.194 -0.2851 -0.4939 -0.2319
17459TIP3    H173868   3.122   0.914   1.223  0.2824  0.1375  0.1419
17459TIP3    H273869   3.265   0.879   1.260 -0.3705 -2.4537  0.4316
17460TIP3   OH273870   4.160   6.553   5.097  0.2665 -0.2952  0.0877
17460TIP3    H173871   4.124   6.489   5.158 -0.0639 -0.1692  0.0280
17460TIP3    H273872   4.128   6.525   5.011 -1.4920  1.0260  0.2585
17461TIP3   OH273873   3.389   1.343  14.134  0.0663 -0.2456 -0.7805
17461TIP3    H173874   3.308   1.388  14.160  0.4833  0.0550  0.0019
17461TIP3    H273875   3.382   1.256  14.172 -0.0748 -0.3660 -1.0741
17462TIP3   OH273876   0.371   4.063   3.788  0.0608  0.5206  0.0323
17462TIP3    H173877   0.455   4.089   3.827 -0.4183  0.4410  1.1496
17462TIP3    H273878   0.348   4.136   3.731  0.0996  1.3046  0.9880
17463TIP3   OH273879   4.906   2.143  14.132  0.4777  0.2316 -0.2832
17463TIP3    H173880   4.827   2.170  14.180  0.7894 -0.3249  0.5749
17463TIP3    H273881   4.882   2.151  14.040  0.0159  1.8310 -0.0544
17464TIP3   OH273882   1.895   6.143   5.036 -0.4682  0.9218  0.1588
17464TIP3    H173883   1.883   6.093   5.117  1.6046  1.3412  0.7763
17464TIP3    H273884   1.884   6.234   5.063  1.3144  1.1387  0.2279
17465TIP3   OH273885   4.294   5.940   2.117  0.4969  0.4026 -0.4155
17465TIP3    H173886   4.208   5.934   2.075 -0.1354 -1.9916  0.9972
17465TIP3    H273887   4.357   5.929   2.045 -0.4818 -0.9915 -1.1132
17466TIP3   OH273888   4.620   5.530   0.302 -0.1251  0.0143  0.4529
17466TIP3    H173889   4.693   5.530   0.241 -1.5676  1.6035 -1.4132
17466TIP3    H273890   4.577   5.445   0.288  0.1158 -0.0318 -0.0265
17467TIP3   OH273891   3.577   6.280  14.389  0.0338 -0.1306  0.0533
17467TIP3    H173892   3.625   6.206  14.351 -0.0947 -0.3065  0.2323
17467TIP3    H273893   3.552   6.333  14.313  1.2571  0.4263  0.0050
17468TIP3   OH273894   4.076   4.514   1.769 -0.0730  0.3167  0.4124
17468TIP3    H173895   4.101   4.422   1.761  2.4549  0.9765 -0.3389
17468TIP3    H273896   4.010   4.526   1.701  0.1357 -0.7854 -0.0244
17469TIP3   OH273897   3.227   4.350   1.745  0.0658 -0.1571 -0.5476
17469TIP3    H173898   3.139   4.336   1.781 -1.4973  0.6259 -3.6664
17469TIP3    H273899   3.220   4.434   1.699  2.6945  0.2310 -0.3777
17470TIP3   OH273900   1.619   1.951  16.684  0.4974 -0.2143 -0.0790
17470TIP3    H173901   1.592   2.016  16.620 -0.5343 -1.4950 -1.0030
17470TIP3    H273902   1.626   1.999  16.767  0.9815  1.2841 -0.9709
17471TIP3   OH273903   6.402   0.291  13.386 -0.4588  0.1227  0.5416
17471TIP3    H173904   6.427   0.374  13.428 -1.7657  1.5001 -1.2119
17471TIP3    H273905   6.485   0.255  13.355  0.0999  1.0469  0.8944
17472TIP3   OH273906   0.701   3.834   5.937  0.3189 -0.4909 -0.3964
17472TIP3    H173907   0.782   3.845   5.987 -0.1650  0.3162  0.2424
17472TIP3    H273908   0.707   3.746   5.900  1.1064 -0.7614  0.3342
17473TIP3   OH273909   3.503   3.334  13.124 -0.5555  0.3337  0.1272
17473TIP3    H173910   3.439   3.295  13.183  0.5643  1.9227  2.5554
17473TIP3    H273911   3.450   3.371  13.052 -2.2166  0.3624  1.3092
17474TIP3   OH273912   1.845   6.570  11.245  0.3924  0.1555  0.0600
17474TIP3    H173913   1.899   6.508  11.194  0.5655 -0.2528  0.7310
17474TIP3    H273914   1.898   6.589  11.323 -0.4518 -0.2703  0.7435
17475TIP3   OH273915   4.409   0.398  16.480  0.0139 -0.1035 -0.4980
17475TIP3    H173916   4.322   0.361  16.466 -0.6399  0.0297  2.3937
17475TIP3    H273917   4.402   0.441  16.566  2.2688  1.9997 -1.2700
17476TIP3   OH273918   6.758   5.153  16.072  0.2440 -0.1687 -0.4124
17476TIP3    H173919   6.830   5.093  16.094 -0.6044 -1.0125  0.1396
17476TIP3    H273920   6.745   5.141  15.978 -0.5018 -1.5312 -0.1531
17477TIP3   OH273921   2.824   0.980   5.930  0.6814 -0.4540 -0.5918
17477TIP3    H173922   2.876   0.900   5.933  0.5614 -0.6277 -2.1021
17477TIP3    H273923   2.763   0.967   5.857  0.7684  1.0580 -0.9859
17478TIP3   OH273924   1.926   1.899  14.974 -0.0823  0.3002 -0.2497
17478TIP3    H173925   1.974   1.818  14.958  2.1558  1.1739  1.5291
17478TIP3    H273926   1.963   1.934  15.055 -3.1978  1.5306  0.7781
17479TIP3   OH273927   1.632   1.678  14.320  0.2528  0.0093  0.2929
17479TIP3    H173928   1.660   1.757  14.366 -0.2309  1.5614 -1.9185
17479TIP3    H273929   1.537   1.682  14.321  0.2227 -0.5783  0.1825
17480TIP3   OH273930   4.913   6.807  10.880  0.3656 -0.4112 -0.0104
17480TIP3    H173931   4.872   6.725  10.906 -0.0938  0.1772  1.2156
17480TIP3    H273932   4.967   6.832  10.955 -0.0928  0.7771 -0.0542
17481TIP3   OH273933   3.802   6.015   1.181 -0.1771  0.2737  0.0639
17481TIP3    H173934   3.839   6.092   1.224  0.6628 -0.4330  0.6659
17481TIP3    H273935   3.828   6.024   1.089  0.1527  0.5809  0.1844
17482TIP3   OH273936   5.381   4.634   2.482 -0.1414  0.2143  0.3574
17482TIP3    H173937   5.345   4.678   2.559 -0.4300 -1.7895  1.4389
17482TIP3    H273938   5.472   4.616   2.505  0.5218  1.8169 -0.8235
17483TIP3   OH273939   0.737   5.876  10.952 -0.3985 -0.2207  0.0156
17483TIP3    H173940   0.661   5.828  10.984 -0.2532 -0.3980  0.0955
17483TIP3    H273941   0.802   5.808  10.931  1.1786  0.0219  3.4601
17484TIP3   OH273942   2.178   5.222  12.606 -0.1746 -0.0968  0.4343
17484TIP3    H173943   2.248   5.160  12.626  0.4755 -0.3556 -2.2428
17484TIP3    H273944   2.223   5.301  12.576 -1.0279  0.7723  1.3729
17485TIP3   OH273945   0.260   0.984  15.916  0.2723 -0.0859 -0.1035
17485TIP3    H173946   0.304   1.053  15.866 -0.8646 -1.4549 -3.1944
17485TIP3    H273947   0.181   1.026  15.950  0.1576  0.4408 -0.9952
17486TIP3   OH273948   2.184   1.477  16.867 -0.1808  0.3365  0.4453
17486TIP3    H173949   2.214   1.413  16.931  1.7342  2.4839  1.8724
17486TIP3    H273950   2.107   1.517  16.907 -0.8507 -0.4351 -0.0484
17487TIP3   OH273951   0.252   6.705   0.489  0.3411  0.3092 -0.1925
17487TIP3    H173952   0.161   6.734   0.493  0.2068 -0.1834  0.8489
17487TIP3    H273953   0.278   6.694   0.581  1.5391  0.6998 -0.4603
17488TIP3   OH273954   3.585   1.055   6.199 -0.1047  0.6689 -0.0747
17488TIP3    H173955   3.540   1.115   6.140 -1.0194  0.9115  0.8356
17488TIP3    H273956   3.549   1.074   6.285  0.6581 -0.1846  0.4581
17489TIP3   OH273957   2.332   0.957   0.311 -0.0550 -0.7920  0.5697
17489TIP3    H173958   2.278   0.912   0.377 -1.8674  0.2881 -0.1154
17489TIP3    H273959   2.363   1.036   0.356  0.8685 -1.3394  0.9166
17490TIP3   OH273960   5.775   3.576  14.674 -0.4175 -0.5375  0.1182
17490TIP3    H173961   5.732   3.491  14.690 -1.7322 -0.1303 -1.0432
17490TIP3    H273962   5.744   3.631  14.746  0.6935 -1.0987  1.0604
17491TIP3   OH273963   4.879   1.022  12.480  0.4592 -0.2527 -0.1350
17491TIP3    H173964   4.819   0.961  12.436  0.8346 -0.7256  0.0039
17491TIP3    H273965   4.950   0.967  12.512  0.7603  0.2507  0.0695
17492TIP3   OH273966   0.679   4.996  13.577  0.2637 -0.4469  0.0893
17492TIP3    H173967   0.719   4.989  13.663  0.2171  1.4814  0.3076
17492TIP3    H273968   0.754   5.006  13.517  0.2429 -0.6190  0.0324
17493TIP3   OH273969   2.364   2.901  15.687  0.0735  0.6918 -0.1315
17493TIP3    H173970   2.455   2.929  15.679 -0.1596  1.1500 -1.4052
17493TIP3    H273971   2.316   2.957  15.626 -1.0307  0.2986  0.3512
17494TIP3   OH273972   3.132   5.852  17.055  0.0409 -0.2095 -0.0599
17494TIP3    H173973   3.185   5.892  17.125  1.0704  0.3846 -1.1495
17494TIP3    H273974   3.048   5.833  17.097  0.3869  0.7965  1.1585
17495TIP3   OH273975   6.080   1.372   4.284 -0.4803  0.1453 -0.2217
17495TIP3    H173976   6.016   1.441   4.300 -0.7371 -0.2221  0.3918
17495TIP3    H273977   6.077   1.317   4.363 -1.7501 -1.7082 -1.4665
17496TIP3   OH273978   4.774   3.013  16.374 -0.2052  0.2576 -0.0847
17496TIP3    H173979   4.723   3.083  16.332  1.4720  0.8882 -1.2063
17496TIP3    H273980   4.820   2.970  16.301 -0.9338 -1.8338  0.6293
17497TIP3   OH273981   5.933   2.862   5.787  0.3068  0.5071  0.4865
17497TIP3    H173982   5.902   2.773   5.801 -2.5908  1.2825 -0.2093
17497TIP3    H273983   5.951   2.867   5.693  1.8895  0.3183  0.7450
17498TIP3   OH273984   0.496   5.738  10.194  0.4469  0.0413 -0.6189
17498TIP3    H173985   0.577   5.786  10.179  0.2764  0.1985 -1.0544
17498TIP3    H273986   0.523   5.646  10.193  0.3578 -0.0177 -2.7101
17499TIP3   OH273987   0.207   0.676  12.645  0.3455  0.3896 -0.8040
17499TIP3    H173988   0.226   0.586  12.671  2.7719  1.2864  0.9557
17499TIP3    H273989   0.113   0.686  12.660  0.1825 -1.5757 -0.2185
17500TIP3   OH273990   0.479   4.977  10.987  0.1639 -0.3468  0.6240
17500TIP3    H173991   0.439   4.934  10.911  2.0459  1.4597 -1.5627
17500TIP3    H273992   0.421   5.051  11.006  0.6481  0.2760 -0.2889
17501TIP3   OH273993   5.602   5.685   1.872 -0.1568 -0.2178  0.1278
17501TIP3    H173994   5.521   5.680   1.820  0.2278  1.0481 -0.6119
17501TIP3    H273995   5.596   5.768   1.918  1.2843  0.4807 -0.8925
17502TIP3   OH273996   3.129   1.618   0.071 -0.1824 -0.1972 -0.2677
17502TIP3    H173997   3.166   1.671   0.002 -0.7971 -1.1061 -1.3325
17502TIP3    H273998   3.180   1.537   0.069 -0.5829 -0.4592 -0.0530
17503TIP3   OH273999   1.560   6.608   0.781 -0.4811  0.6107  0.3468
17503TIP3    H174000   1.472   6.571   0.777  0.9962 -3.5159  0.6033
17503TIP3    H274001   1.594   6.599   0.692  0.1770  0.7759  0.5747
17504TIP3   OH274002   4.652   2.848   3.137  0.4240 -0.4218 -0.1959
17504TIP3    H174003   4.712   2.777   3.158 -0.3530 -0.7903  0.8251
17504TIP3    H274004   4.649   2.901   3.217  0.4266  0.3621 -0.7008
17505TIP3   OH274005   2.472   0.787   1.814 -0.4028 -0.5842 -0.0673
17505TIP3    H174006   2.540   0.723   1.791  0.7572  0.7960 -0.5932
17505TIP3    H274007   2.517   0.852   1.867 -1.6159 -0.2744  0.6293
17506TIP3   OH274008   1.654   3.040   0.526 -0.4913 -0.3882 -0.2485
17506TIP3    H174009   1.574   3.077   0.489  0.0219  0.4169 -0.5646
17506TIP3    H274010   1.722   3.105   0.508 -0.0292 -0.4146  1.2281
17507TIP3   OH274011   2.839   3.350   4.649  0.1637  0.8709  0.1508
17507TIP3    H174012   2.849   3.255   4.641  0.6846  1.0502 -1.6367
17507TIP3    H274013   2.746   3.362   4.671  0.1036 -0.0387  0.4624
17508TIP3   OH274014   4.901   6.654  13.627 -0.2882 -0.1857  0.0379
17508TIP3    H174015   4.851   6.727  13.590  0.1230  0.1627  0.1625
17508TIP3    H274016   4.962   6.629  13.558 -0.9560 -0.9290 -0.2909
17509TIP3   OH274017   4.803   1.338   1.770  0.5337  0.3911  0.3978
17509TIP3    H174018   4.710   1.315   1.758  0.9374 -0.6436 -1.0163
17509TIP3    H274019   4.848   1.294   1.698  2.2145  0.4277  1.3794
17510TIP3   OH274020   2.321   0.753  15.508  0.1627  0.3992 -0.4680
17510TIP3    H174021   2.278   0.668  15.502 -0.3989  0.6315  0.0816
17510TIP3    H274022   2.352   0.758  15.598  0.5942  0.5840 -0.6264
17511TIP3   OH274023   4.459   5.589  14.023 -0.7131  0.7536  0.2354
17511TIP3    H174024   4.433   5.533  14.096 -0.5427 -0.5366 -0.6753
17511TIP3    H274025   4.494   5.529  13.957  0.3222  2.0115 -0.4068
17512TIP3   OH274026   3.959   1.168  13.728 -0.2060 -0.2955  0.5070
17512TIP3    H174027   3.985   1.180  13.819  0.5696  0.3703  0.2102
17512TIP3    H274028   4.021   1.221  13.678 -1.8905  1.0483 -0.2686
17513TIP3   OH274029   3.623   2.811  13.608 -0.3229  0.4261 -0.5411
17513TIP3    H174030   3.619   2.827  13.514 -1.5962  1.3281 -0.3593
17513TIP3    H274031   3.591   2.721  13.618  1.2065 -0.2108 -1.0657
17514TIP3   OH274032   5.120   4.203   5.741  0.2405  0.8111  0.1690
17514TIP3    H174033   5.129   4.205   5.837 -0.3361  2.1787  0.2151
17514TIP3    H274034   5.204   4.169   5.710  0.1642 -0.3515  1.1895
17515TIP3   OH274035   0.547   2.335   0.225 -0.3706 -0.5886 -0.0371
17515TIP3    H174036   0.607   2.404   0.254 -0.4893 -0.2281 -0.6268
17515TIP3    H274037   0.589   2.253   0.253  0.5027 -0.3506 -0.6124
17516TIP3   OH274038   5.843   2.647  14.857  0.8135 -0.5713 -0.5393
17516TIP3    H174039   5.785   2.614  14.926 -0.3606  0.1358 -1.1686
17516TIP3    H274040   5.785   2.689  14.794  2.1533  2.3928  0.0099
17517TIP3   OH274041   3.909   6.252  14.230  0.6424 -0.3113 -0.1812
17517TIP3    H174042   3.878   6.312  14.297 -0.9419  0.8461 -1.8441
17517TIP3    H274043   3.970   6.303  14.178 -1.2331  0.2084 -2.0210
17518TIP3   OH274044   4.657   6.028   2.287 -0.2986 -0.2860  0.1367
17518TIP3    H174045   4.572   6.059   2.254 -0.8018 -0.4812  1.1828
17518TIP3    H274046   4.689   6.101   2.340 -0.0936 -0.4338  0.2152
17519TIP3   OH274047   0.169   3.565   6.570 -0.5964 -0.5216  0.1248
17519TIP3    H174048   0.119   3.627   6.623 -1.5534  0.2172 -1.5809
17519TIP3    H274049   0.125   3.481   6.584 -1.7476 -0.0586 -0.6001
17520TIP3   OH274050   6.712   0.380   5.608 -0.0257  0.0639 -0.4443
17520TIP3    H174051   6.654   0.454   5.628 -0.8194 -0.6389 -0.0881
17520TIP3    H274052   6.712   0.376   5.512 -0.3306  0.2528 -0.4566
17521TIP3   OH274053   0.424   2.487   6.481 -0.2707  0.2275 -0.1577
17521TIP3    H174054   0.416   2.425   6.554  0.9764 -1.9425 -1.7754
17521TIP3    H274055   0.354   2.461   6.420 -1.3606  2.0779  0.2221
17522TIP3   OH274056   5.151   3.822   3.144 -0.4052 -0.3630 -0.1218
17522TIP3    H174057   5.176   3.819   3.052 -0.7402  0.7470 -0.2728
17522TIP3    H274058   5.061   3.854   3.143 -0.6491 -0.9972  0.5664
17523TIP3   OH274059   4.121   1.177  13.316  0.8619  0.3040 -0.2500
17523TIP3    H174060   4.094   1.267  13.334  0.2948 -0.0485  0.7368
17523TIP3    H274061   4.198   1.164  13.372 -1.2917 -1.0102  2.6942
17524TIP3   OH274062   1.948   4.619   1.171  0.7505  0.0307  0.2995
17524TIP3    H174063   2.020   4.678   1.195  0.1358  1.2867 -0.8272
17524TIP3    H274064   1.942   4.559   1.245  2.1568  0.6555  0.9770
17525TIP3   OH274065   1.495   2.641   6.057 -0.4426 -0.8107 -0.2074
17525TIP3    H174066   1.584   2.623   6.085 -0.3664  0.3907  0.3962
17525TIP3    H274067   1.449   2.666   6.137 -1.2657 -1.2080 -0.5480
17526TIP3   OH274068   6.277   6.740   3.299 -0.2751 -0.5503 -0.1186
17526TIP3    H174069   6.333   6.772   3.228  0.5159  1.4760  1.3339
17526TIP3    H274070   6.331   6.676   3.345  0.6767  0.8392  0.8123
17527TIP3   OH274071   6.501   4.715  14.916  0.4931  0.7557  0.2672
17527TIP3    H174072   6.535   4.757  14.995 -0.4720 -0.9232  1.6438
17527TIP3    H274073   6.553   4.635  14.907  1.2048  1.3648 -1.3638
17528TIP3   OH274074   6.334   1.525   1.977  0.7836 -0.0627  0.2391
17528TIP3    H174075   6.293   1.571   1.904  2.1471 -0.5139 -0.8366
17528TIP3    H274076   6.346   1.435   1.946  1.8829 -0.1291  0.8068
17529TIP3   OH274077   1.523   6.137   3.349  0.6827  0.1152  0.6730
17529TIP3    H174078   1.585   6.160   3.417  0.4418  0.0636  0.9111
17529TIP3    H274079   1.561   6.060   3.307  2.4501  1.9328 -1.3508
17530TIP3   OH274080   1.385   3.973   0.437 -0.0723 -0.2107  0.0892
17530TIP3    H174081   1.408   4.047   0.494 -2.1233  0.7877 -0.2697
17530TIP3    H274082   1.312   3.930   0.483 -1.7266  0.5772 -1.6801
17531TIP3   OH274083   2.594   2.365   2.426 -0.4373  0.7488  0.1205
17531TIP3    H174084   2.501   2.363   2.451 -0.3558 -0.1790  0.4041
17531TIP3    H274085   2.637   2.310   2.492  0.0101 -0.5255 -1.1764
17532TIP3   OH274086   2.685   3.872   0.817  0.5454  0.2212 -0.4931
17532TIP3    H174087   2.665   3.877   0.724  0.5810  1.1081 -0.4631
17532TIP3    H274088   2.616   3.923   0.859 -0.9217 -2.1822  0.2178
17533TIP3   OH274089   4.409   5.992  13.459  0.3381 -0.5084 -0.1035
17533TIP3    H174090   4.345   5.994  13.531  1.3330  1.8796  0.8100
17533TIP3    H274091   4.483   5.942  13.493  0.4421 -0.1441  0.2056
17534TIP3   OH274092   2.278   4.873  15.576 -0.2805  0.2353 -0.0770
17534TIP3    H174093   2.241   4.937  15.636  1.1819  1.0937 -0.0480
17534TIP3    H274094   2.271   4.914  15.490 -2.3820 -0.9918 -0.5756
17535TIP3   OH274095   3.178   6.256   4.531 -0.6696 -0.1491  0.0991
17535TIP3    H174096   3.091   6.245   4.570 -0.7088  0.9779  0.3545
17535TIP3    H274097   3.169   6.332   4.472  0.2708  0.3157  0.5355
17536TIP3   OH274098   0.222   1.004   4.946  0.2066  0.2851 -0.0169
17536TIP3    H174099   0.291   1.002   4.879  1.4735  1.8126  1.1634
17536TIP3    H274100   0.219   0.915   4.980 -0.1018 -0.3985 -1.6993
17537TIP3   OH274101   4.845   3.510  16.798 -0.4545 -0.1391  0.2822
17537TIP3    H174102   4.766   3.469  16.764 -1.2629  1.6984 -0.1722
17537TIP3    H274103   4.819   3.545  16.883 -0.0164  0.1338  0.3080
17538TIP3   OH274104   5.556   4.142   4.232 -0.0161  0.0580  0.2396
17538TIP3    H174105   5.650   4.155   4.243  0.0670 -0.2692 -0.0503
17538TIP3    H274106   5.516   4.220   4.270  0.4472  1.2138 -1.5238
17539TIP3   OH274107   6.722   2.880   1.300 -0.5487  0.1893 -0.4188
17539TIP3    H174108   6.762   2.935   1.368 -0.4350 -0.9272  0.4602
17539TIP3    H274109   6.774   2.897   1.222  0.7048 -0.0730  0.3161
17540TIP3   OH274110   5.964   3.276   1.462 -0.5351  0.2077  0.1309
17540TIP3    H174111   6.045   3.227   1.473  0.4307  1.8078  0.5373
17540TIP3    H274112   5.959   3.293   1.368  0.0809  0.8611  0.2101
17541TIP3   OH274113   5.871   1.639   1.677  0.3831  0.0715  0.5024
17541TIP3    H174114   5.926   1.715   1.658 -0.2751  0.1328 -1.3832
17541TIP3    H274115   5.917   1.592   1.746  0.8436  2.1361  1.6800
17542TIP3   OH274116   2.092   2.348  12.640  0.3372  0.7308  0.0373
17542TIP3    H174117   2.069   2.359  12.548  1.4621  2.0663 -0.1128
17542TIP3    H274118   2.182   2.379  12.647  0.9660 -1.1868  1.2303
17543TIP3   OH274119   3.104   6.171  12.232 -0.5309 -0.6843  0.0995
17543TIP3    H174120   3.138   6.150  12.146 -0.9919  0.4345 -0.3832
17543TIP3    H274121   3.039   6.239  12.216 -2.2137 -1.9691  1.0898
17544TIP3   OH274122   2.674   3.214   1.129 -0.7292 -0.8559  0.3403
17544TIP3    H174123   2.755   3.223   1.180 -0.7494 -0.6915  0.3437
17544TIP3    H274124   2.609   3.184   1.193 -0.3219 -2.5086  0.0371
17545TIP3   OH274125   5.509   4.701  14.969  0.2884 -0.4018  0.1157
17545TIP3    H174126   5.448   4.774  14.976 -1.1457 -1.5845  0.4365
17545TIP3    H274127   5.502   4.655  15.053  1.8063 -0.4460  0.2479
17546TIP3   OH274128   2.689   2.077  11.365 -0.0718  0.2786  0.1168
17546TIP3    H174129   2.694   1.982  11.370 -0.3846  0.3025  1.1368
17546TIP3    H274130   2.595   2.096  11.361 -0.0156  0.4656 -2.7904
17547TIP3   OH274131   1.224   5.541  15.293 -0.3182  0.1014  0.0217
17547TIP3    H174132   1.140   5.498  15.280 -0.0278 -0.2375 -0.8213
17547TIP3    H274133   1.289   5.476  15.265  0.1203  1.1292 -1.5149
17548TIP3   OH274134   6.593   1.538   6.513  0.2860 -0.2884 -0.1556
17548TIP3    H174135   6.564   1.620   6.553 -0.2716 -1.5709  2.2636
17548TIP3    H274136   6.514   1.485   6.508  1.0733 -1.6284  0.8621
17549TIP3   OH274137   0.663   3.857   5.109 -0.1467  0.3600 -0.3626
17549TIP3    H174138   0.639   3.948   5.093 -1.0777  0.1768 -0.0983
17549TIP3    H274139   0.615   3.808   5.042  0.6819  0.0916 -0.7708
17550TIP3   OH274140   4.017   2.024   3.479  0.3198  0.0965  0.0599
17550TIP3    H174141   3.992   1.964   3.409 -0.2654  0.3127  0.0778
17550TIP3    H274142   3.944   2.019   3.542  1.0084 -0.3962  0.8507
17551TIP3   OH274143   5.971   0.395  16.246 -0.2410 -0.5393  0.1142
17551TIP3    H174144   5.929   0.480  16.261  1.7295  0.8978 -1.9637
17551TIP3    H274145   5.978   0.388  16.151  0.4055 -2.6793  0.2626
17552TIP3   OH274146   3.321   0.869  16.203  0.1685  0.5585 -0.2070
17552TIP3    H174147   3.243   0.867  16.149  0.1649 -0.0927 -0.1891
17552TIP3    H274148   3.335   0.962  16.222 -0.3802  0.7100 -0.5206
17553TIP3   OH274149   1.995   3.220  15.572 -0.2447 -0.0682  0.5737
17553TIP3    H174150   2.085   3.198  15.547 -0.5902 -0.1399 -0.6480
17553TIP3    H274151   1.989   3.315  15.560 -0.2808 -0.0334  0.8541
17554TIP3   OH274152   3.635   0.931  12.926 -0.1640 -0.7656 -0.3216
17554TIP3    H174153   3.580   0.968  12.995 -1.1689 -1.2492 -0.8375
17554TIP3    H274154   3.716   0.981  12.930 -2.0075  2.6752 -2.0956
17555TIP3   OH274155   2.615   0.864   0.487  0.5079  0.4022 -0.1437
17555TIP3    H174156   2.628   0.928   0.556 -1.1820  1.7829 -1.0393
17555TIP3    H274157   2.664   0.899   0.412  0.4507  0.0873 -0.3332
17556TIP3   OH274158   3.639   5.730  12.987 -0.1772  0.4974 -0.2163
17556TIP3    H174159   3.675   5.767  12.907  1.1197 -0.0204  0.1159
17556TIP3    H274160   3.568   5.672  12.957 -0.8989  1.6710 -0.8555
17557TIP3   OH274161   1.191   2.012  14.606 -0.2891 -0.1015  0.5393
17557TIP3    H174162   1.105   2.033  14.643 -0.8970 -0.7521 -0.4562
17557TIP3    H274163   1.253   2.046  14.670 -1.2317  2.1341  0.3774
17558TIP3   OH274164   5.160   1.213   4.978  0.1721 -0.5718  0.3176
17558TIP3    H174165   5.165   1.223   4.883 -0.2869 -0.5078  0.2990
17558TIP3    H274166   5.078   1.255   5.003 -0.3632 -1.7373  0.5860
17559TIP3   OH274167   6.665   6.332  14.836 -0.1222  0.0843 -0.0933
17559TIP3    H174168   6.617   6.414  14.839 -1.8114 -0.8715  0.0550
17559TIP3    H274169   6.599   6.265  14.851  0.9981 -1.3931 -1.4344
17560TIP3   OH274170   1.231   3.941   3.326  0.3964  0.3237  0.1136
17560TIP3    H174171   1.317   3.903   3.303  0.0460 -0.7619  0.5163
17560TIP3    H274172   1.252   4.026   3.365  1.3090 -0.0160  0.3987
17561TIP3   OH274173   2.846   3.077   4.630 -0.1323  0.3308  0.9479
17561TIP3    H174174   2.786   3.084   4.556  2.1941  0.9304 -1.0242
17561TIP3    H274175   2.874   2.986   4.630 -0.6331  0.1686  1.5549
17562TIP3   OH274176   1.303   0.453  15.599 -0.3673 -0.4477  0.3740
17562TIP3    H174177   1.296   0.548  15.587 -1.8127 -0.4566  0.9562
17562TIP3    H274178   1.350   0.422  15.521  1.5561  0.9086  0.9226
17563TIP3   OH274179   5.170   2.145   3.762  0.2878  0.2109 -0.0018
17563TIP3    H174180   5.113   2.102   3.699  1.2906  0.2747 -0.9786
17563TIP3    H274181   5.173   2.084   3.837  1.2319 -1.1640 -1.1197
17564TIP3   OH274182   2.938   4.720   0.277  0.3337 -0.2294  0.0885
17564TIP3    H174183   2.913   4.784   0.344  0.7166  0.1081 -0.0870
17564TIP3    H274184   2.934   4.636   0.322 -0.0965 -0.0759  0.3441
17565TIP3   OH274185   2.929   5.278  11.446  0.1413  0.8846  0.0437
17565TIP3    H174186   2.957   5.263  11.355 -0.3844 -1.4304  0.2210
17565TIP3    H274187   2.963   5.203  11.494  0.3535  2.0505  1.7983
17566TIP3   OH274188   1.803   5.900  12.516  0.4808  0.3809  0.2826
17566TIP3    H174189   1.817   5.827  12.457 -1.4480  0.1097  0.0918
17566TIP3    H274190   1.740   5.867  12.580 -3.4614  2.8141 -1.9272
17567TIP3   OH274191   5.555   0.162   2.663  0.5989  0.2707  0.2454
17567TIP3    H174192   5.485   0.110   2.704  1.9172 -2.6829 -0.9374
17567TIP3    H274193   5.619   0.175   2.734  0.0668  0.6498  0.6608
17568TIP3   OH274194   0.888   2.159   4.314  0.4023  0.1180 -1.1704
17568TIP3    H174195   0.862   2.185   4.226  3.6153  1.3601 -1.8922
17568TIP3    H274196   0.974   2.199   4.326  0.1746 -0.1878  2.4855
17569TIP3   OH274197   2.155   2.533  13.819  0.0758  0.3503  0.0776
17569TIP3    H174198   2.089   2.514  13.753 -0.8400 -0.5524  1.2064
17569TIP3    H274199   2.236   2.496  13.784 -1.1854 -4.1096  1.2191
17570TIP3   OH274200   4.001   0.634  13.815 -0.3529  0.2279  0.5473
17570TIP3    H174201   3.924   0.577  13.817 -0.9642  1.0657  1.5726
17570TIP3    H274202   4.063   0.587  13.759 -1.2084 -0.9649  0.5528
17571TIP3   OH274203   2.439   2.503   3.473 -0.0628 -0.2495  0.6168
17571TIP3    H174204   2.392   2.557   3.410 -1.4519 -1.0646  0.9187
17571TIP3    H274205   2.435   2.551   3.555 -1.1118 -0.6837  0.8346
17572TIP3   OH274206   5.248   3.992   4.375  0.3030 -0.0057 -0.6580
17572TIP3    H174207   5.310   4.034   4.435  0.1025  0.1647 -0.5717
17572TIP3    H274208   5.226   4.060   4.312 -0.7237  0.3028  0.0099
17573TIP3   OH274209   2.837   2.782  10.460 -0.6093 -0.0971 -0.5123
17573TIP3    H174210   2.744   2.768  10.445 -1.1808  1.9600  0.7016
17573TIP3    H274211   2.848   2.877  10.456  1.7656 -0.3433 -2.2210
17574TIP3   OH274212   4.116   4.162  13.477  0.1911  0.2416 -0.0029
17574TIP3    H174213   4.071   4.078  13.488 -0.3182  0.4226 -0.6116
17574TIP3    H274214   4.209   4.142  13.488  0.1685 -0.5982 -1.1881
17575TIP3   OH274215   0.524   5.414  11.338 -0.0411  0.5493  0.9538
17575TIP3    H174216   0.568   5.338  11.375  0.9647  0.3584 -0.5458
17575TIP3    H274217   0.432   5.389  11.332  0.5075 -1.2977 -1.1517
17576TIP3   OH274218   6.626   0.179  12.824  0.2963  0.0727 -0.2115
17576TIP3    H174219   6.578   0.169  12.742 -0.5220  2.8044 -0.1492
17576TIP3    H274220   6.566   0.226  12.882  1.4215 -0.4363  1.4580
17577TIP3   OH274221   5.276   4.806   1.832  0.0923  0.0155  0.0933
17577TIP3    H174222   5.316   4.816   1.745  1.6323 -2.6402  0.4029
17577TIP3    H274223   5.222   4.727   1.825 -0.9978  0.6200  1.1902
17578TIP3   OH274224   0.288   3.646   5.432  0.3494 -0.3946  0.1396
17578TIP3    H174225   0.307   3.553   5.419 -0.9927 -0.9113  1.5642
17578TIP3    H274226   0.199   3.648   5.469  0.3538  1.4541  0.1646
17579TIP3   OH274227   5.489   3.730  14.498 -0.6235 -0.7339 -0.3610
17579TIP3    H174228   5.394   3.726  14.482 -0.4066 -1.4183 -1.6081
17579TIP3    H274229   5.497   3.765  14.587 -1.9953  1.3087 -0.9613
17580TIP3   OH274230   5.879   2.806   6.571 -0.1105 -0.0406 -0.4392
17580TIP3    H174231   5.838   2.893   6.574  3.2409  1.6672  0.0910
17580TIP3    H274232   5.819   2.750   6.621 -1.2654  2.5032  1.2705
17581TIP3   OH274233   2.626   0.679   4.088 -0.0862  0.1127  0.0482
17581TIP3    H174234   2.628   0.669   3.993  0.2378  0.5389  0.0109
17581TIP3    H274235   2.665   0.764   4.105  0.0398 -0.0441  0.5774
17582TIP3   OH274236   6.451   3.652  15.386  0.1838  0.0005  0.1589
17582TIP3    H174237   6.391   3.589  15.346  1.6531 -1.1673 -0.3307
17582TIP3    H274238   6.426   3.736  15.349  0.0823 -0.7473 -1.5603
17583TIP3   OH274239   3.962   2.074   1.187  0.1046  0.4524  0.4364
17583TIP3    H174240   3.952   2.169   1.178 -1.7446  0.2740  0.0420
17583TIP3    H274241   3.914   2.039   1.112  0.2687 -0.8076  0.9125
17584TIP3   OH274242   5.337   0.308  16.373 -0.3540 -0.5294 -0.0667
17584TIP3    H174243   5.408   0.271  16.320  0.6477 -0.5989  1.2624
17584TIP3    H274244   5.257   0.289  16.324  0.6225  0.8224 -2.3627
17585TIP3   OH274245   1.408   4.713  14.992  0.1974 -0.0137 -0.0433
17585TIP3    H174246   1.373   4.671  14.914  1.8272  1.0068 -1.4043
17585TIP3    H274247   1.403   4.807  14.973  1.3627  0.2212  0.6998
17586TIP3   OH274248   3.524   3.484   3.598  0.2791  0.5119 -0.2606
17586TIP3    H174249   3.461   3.427   3.554 -1.0467 -1.3043  3.5568
17586TIP3    H274250   3.607   3.467   3.554 -0.2505 -3.6974 -0.0254
17587TIP3   OH274251   6.496   2.484  11.083  0.3302  0.1228  0.2928
17587TIP3    H174252   6.451   2.487  11.168  0.9987  0.2737  0.6483
17587TIP3    H274253   6.448   2.417  11.033  0.1624 -0.2381  0.9248
17588TIP3   OH274254   1.495   2.943   4.984 -0.1120  0.2308 -0.1834
17588TIP3    H174255   1.545   3.010   5.032 -1.8549  0.1840  1.8360
17588TIP3    H274256   1.416   2.929   5.037 -0.2594 -2.7732 -0.9943
17589TIP3   OH274257   4.010   4.252   2.997  0.7624 -0.3750 -0.6296
17589TIP3    H174258   3.927   4.221   3.033  2.4145 -3.7977  0.6852
17589TIP3    H274259   3.992   4.341   2.968 -2.5123  0.2418  2.5700
17590TIP3   OH274260   1.082   6.774   0.945 -0.6622  0.3509 -0.3248
17590TIP3    H174261   1.110   6.785   0.854  1.0759 -0.6943  0.0465
17590TIP3    H274262   1.075   6.864   0.979  2.8840  0.7308 -0.3017
17591TIP3   OH274263   5.659   1.339   5.706  0.2506  0.3148  0.1835
17591TIP3    H174264   5.627   1.310   5.791 -0.4314 -0.8310 -0.4320
17591TIP3    H274265   5.580   1.369   5.660  0.2092 -1.2583 -0.8621
17592TIP3   OH274266   5.155   0.745   5.831 -0.4000  0.7284 -0.0859
17592TIP3    H174267   5.217   0.728   5.902  0.3729  0.2581 -0.8610
17592TIP3    H274268   5.194   0.704   5.754 -2.0760 -0.3245 -0.4329
17593TIP3   OH274269   1.190   0.390  15.129 -0.7705 -0.1705  0.2689
17593TIP3    H174270   1.098   0.416  15.136 -1.1995 -0.3414 -3.1490
17593TIP3    H274271   1.192   0.300  15.161 -1.6406  0.0626  1.0272
17594TIP3   OH274272   6.803   0.524   1.436 -0.2624  0.1566 -0.0686
17594TIP3    H174273   6.796   0.519   1.340 -2.5254  0.1669  0.0346
17594TIP3    H274274   6.829   0.436   1.463  1.6549  0.4629 -0.7113
17595TIP3   OH274275   1.836   5.516   4.032 -0.6100  0.7922  0.1326
17595TIP3    H174276   1.777   5.520   4.107 -0.8642 -0.6943  0.0390
17595TIP3    H274277   1.783   5.480   3.961  0.0226  0.7975 -0.3545
17596TIP3   OH274278   3.981   4.471  16.483  0.6531 -0.5317  0.6088
17596TIP3    H174279   4.040   4.499  16.553  0.4953  1.7815 -0.1094
17596TIP3    H274280   3.989   4.539  16.416 -1.7621 -0.8709 -0.1191
17597TIP3   OH274281   5.100   0.170  16.293 -0.0403 -0.4035  0.2426
17597TIP3    H174282   5.063   0.082  16.287 -1.1639  0.0765 -0.0873
17597TIP3    H274283   5.082   0.197  16.383 -0.3473 -0.2370  0.1328
17598TIP3   OH274284   1.016   1.245   4.005 -0.6271 -0.5851 -0.0696
17598TIP3    H174285   1.021   1.311   4.075  1.5383 -1.6040  0.8366
17598TIP3    H274286   1.022   1.161   4.051 -0.0707 -1.3151 -1.4299
17599TIP3   OH274287   5.767   5.309  12.453  0.3485  0.1865 -0.6545
17599TIP3    H174288   5.850   5.349  12.428  0.5077 -0.1092 -0.5949
17599TIP3    H274289   5.744   5.253  12.378  0.3194  0.0880 -0.5721
17600TIP3   OH274290   4.527   2.598  14.125  0.6230 -0.2192 -0.0730
17600TIP3    H174291   4.581   2.671  14.158 -1.7667  1.9005 -0.5700
17600TIP3    H274292   4.501   2.626  14.037  1.2447 -2.6596 -1.1140
17601TIP3   OH274293   5.879   3.253  14.329  0.5062  0.0171  0.7806
17601TIP3    H174294   5.818   3.196  14.376  0.8500 -1.3988 -0.4185
17601TIP3    H274295   5.926   3.300  14.398 -0.7906 -0.0750  1.7601
17602TIP3   OH274296   0.321   3.250   6.361  0.0639  0.2049  0.3290
17602TIP3    H174297   0.375   3.195   6.304  1.3861  0.7450  1.0050
17602TIP3    H274298   0.231   3.233   6.333  0.5983 -0.4234 -1.1177
17603TIP3   OH274299   3.808   4.130  12.587 -0.5027 -0.0953 -0.5489
17603TIP3    H174300   3.848   4.087  12.512 -0.9544 -2.1289  0.3030
17603TIP3    H274301   3.869   4.114  12.659 -1.3236 -0.4989  0.0724
17604TIP3   OH274302   4.212   3.766  15.006  0.2557  0.1578 -0.0748
17604TIP3    H174303   4.298   3.807  14.997  0.5309 -0.2912  0.4235
17604TIP3    H274304   4.231   3.679  15.040 -0.4018  0.0566  0.0442
17605TIP3   OH274305   1.311   4.900   3.381 -0.3555  0.1977  0.2344
17605TIP3    H174306   1.272   4.822   3.421 -2.2223  0.6063 -0.7014
17605TIP3    H274307   1.320   4.878   3.288 -0.0364  0.7795  0.1200
17606TIP3   OH274308   4.093   0.261  16.810  0.0216 -0.0440 -0.6904
17606TIP3    H174309   4.118   0.309  16.731 -0.3712 -1.3617 -1.6587
17606TIP3    H274310   4.173   0.254  16.861  0.4699  0.1226 -1.3643
17607TIP3   OH274311   1.078   4.821  14.720 -0.4186 -0.2888 -0.1462
17607TIP3    H174312   1.158   4.863  14.689  0.0042 -1.4916 -0.7382
17607TIP3    H274313   1.059   4.754  14.654 -0.3504 -1.8842  1.3675
17608TIP3   OH274314   1.699   3.558   6.313  0.3156  0.3541 -0.0350
17608TIP3    H174315   1.642   3.589   6.242  0.3482 -0.6933 -0.5340
17608TIP3    H274316   1.707   3.633   6.371 -1.7293  0.4824  0.1635
17609TIP3   OH274317   4.248   1.058  11.769 -0.3561 -0.6424  0.0375
17609TIP3    H174318   4.342   1.072  11.759 -0.4607  0.8025  0.8521
17609TIP3    H274319   4.221   1.021  11.684  0.8987 -0.9346 -0.2618
17610TIP3   OH274320   6.295   2.645   1.354  0.2042  0.0225  0.0207
17610TIP3    H174321   6.347   2.667   1.277 -0.9101 -0.9851 -1.0639
17610TIP3    H274322   6.212   2.612   1.319 -2.1019  3.4571  1.6642
17611TIP3   OH274323   0.011   3.548  13.288  0.0194  0.1325  0.3501
17611TIP3    H174324   0.034   3.461  13.256 -0.6045 -0.1901  0.7407
17611TIP3    H274325   0.087   3.603  13.269  1.0981 -0.8779  1.5848
17612TIP3   OH274326   1.873   3.080   3.415  0.2207 -0.0844  0.1594
17612TIP3    H174327   1.872   2.997   3.367  0.1404  0.4207 -0.7241
17612TIP3    H274328   1.943   3.130   3.374  1.2306 -0.2458  1.6227
17613TIP3   OH274329   1.878   3.288  16.762  0.2231  0.1128 -0.1073
17613TIP3    H174330   1.847   3.199  16.779 -1.5083  0.2823 -1.8641
17613TIP3    H274331   1.893   3.290  16.667 -1.5538  2.1209 -0.4465
17614TIP3   OH274332   3.586   0.230   4.180 -0.4557  0.0525  0.3903
17614TIP3    H174333   3.594   0.251   4.273 -1.3874 -1.4646  0.8536
17614TIP3    H274334   3.602   0.136   4.175 -1.3051 -0.0571 -0.8424
17615TIP3   OH274335   5.927   4.650  14.406 -0.3423  0.0254 -0.2605
17615TIP3    H174336   5.994   4.588  14.378 -0.2864  0.1464 -0.4012
17615TIP3    H274337   5.977   4.725  14.440 -0.4101 -0.4962  1.0285
17616TIP3   OH274338   2.457   4.009  12.569  0.0322 -0.2131 -0.4916
17616TIP3    H174339   2.550   4.009  12.593  0.3068  2.6490 -1.0883
17616TIP3    H274340   2.454   4.057  12.486 -1.7455 -2.6169 -1.9402
17617TIP3   OH274341   6.566   2.138   6.211 -0.4517 -0.1645 -0.8038
17617TIP3    H174342   6.648   2.091   6.228 -1.1353 -1.4447 -0.9182
17617TIP3    H274343   6.510   2.074   6.166 -1.3097  0.8690 -1.2724
17618TIP3   OH274344   3.959   0.700   1.733 -0.2446 -0.2080  0.0485
17618TIP3    H174345   4.038   0.669   1.689 -0.5587 -1.3151  0.2153
17618TIP3    H274346   3.991   0.747   1.809  0.2751 -1.6912  0.7995
17619TIP3   OH274347   2.820   4.365  14.696  0.2103  0.0657 -0.2546
17619TIP3    H174348   2.876   4.442  14.696 -1.4500  1.3490 -1.5680
17619TIP3    H274349   2.813   4.341  14.789  1.8563  0.6468  0.0434
17620TIP3   OH274350   6.277   0.019  13.866 -0.3614  0.3831 -0.8865
17620TIP3    H174351   6.254   0.051  13.778 -0.1518  1.1550 -0.6695
17620TIP3    H274352   6.218   0.066  13.925 -1.4515 -1.1418 -0.7010
17621TIP3   OH274353   2.831   6.417  16.451  0.3695  0.1664 -0.4288
17621TIP3    H174354   2.825   6.384  16.540 -1.1463 -0.2065 -0.6395
17621TIP3    H274355   2.803   6.344  16.396 -0.5253  0.9562 -1.0738
17622TIP3   OH274356   5.479   3.694   1.481 -0.0963  0.0384  0.7614
17622TIP3    H174357   5.398   3.643   1.485 -1.4254  1.7449 -1.6500
17622TIP3    H274358   5.466   3.754   1.407  3.4496  0.2974  0.1729
17623TIP3   OH274359   3.614   3.675   0.227  0.3565  0.1155  0.1690
17623TIP3    H174360   3.555   3.600   0.230  0.9657 -0.3643  0.5518
17623TIP3    H274361   3.563   3.748   0.261 -0.0692 -0.2553  0.3312
17624TIP3   OH274362   5.578   5.243   0.116 -0.3005 -0.2750 -0.0880
17624TIP3    H174363   5.564   5.337   0.114  1.5160  0.0973  1.6071
17624TIP3    H274364   5.629   5.224   0.037 -1.0777  0.0474 -0.6813
17625TIP3   OH274365   1.165   6.256   2.939 -1.1036  0.1681 -0.1859
17625TIP3    H174366   1.181   6.187   3.004 -1.6790 -1.2142 -1.4482
17625TIP3    H274367   1.216   6.228   2.863  2.1041  3.3181  0.5333
17626TIP3   OH274368   1.410   4.051   5.481  0.2142 -0.1033 -0.5769
17626TIP3    H174369   1.359   4.126   5.511 -1.0590 -0.6625 -1.2328
17626TIP3    H274370   1.424   4.067   5.387  2.2741  0.5853 -0.2045
17627TIP3   OH274371   1.726   3.829  12.190 -0.5498  0.0389  0.0228
17627TIP3    H174372   1.707   3.919  12.218  0.7545 -0.3076  2.2258
17627TIP3    H274373   1.788   3.840  12.117 -0.5997  0.9221  0.0977
17628TIP3   OH274374   3.754   0.459   3.359  0.8773  0.0345  0.4222
17628TIP3    H174375   3.706   0.378   3.380 -0.8224  1.0783  0.7395
17628TIP3    H274376   3.809   0.436   3.284  0.0234 -1.2784  0.1672
17629TIP3   OH274377   0.996   5.721   6.160 -0.4878  0.1689 -0.1372
17629TIP3    H174378   1.048   5.690   6.086 -0.3225 -0.2917  0.1671
17629TIP3    H274379   0.919   5.663   6.160 -0.9264  0.7430 -0.4872
17630TIP3   OH274380   1.274   2.782   5.424  0.6249 -0.4246  0.7001
17630TIP3    H174381   1.327   2.706   5.402 -1.2392 -1.3639 -0.9501
17630TIP3    H274382   1.322   2.826   5.494  3.8293 -0.8311 -1.0510
17631TIP3   OH274383   1.345   4.974  14.969  0.3137 -0.2062  0.2335
17631TIP3    H174384   1.267   5.018  15.003  0.1620 -0.9293  0.8475
17631TIP3    H274385   1.399   5.045  14.935  0.1382  0.4751  1.3260
17632TIP3   OH274386   5.043   4.169  12.401 -0.0309 -0.0853  0.1860
17632TIP3    H174387   5.124   4.119  12.390  0.4631  0.3876  1.4637
17632TIP3    H274388   4.974   4.111  12.368  0.9065 -0.0349 -2.0782
17633TIP3   OH274389   6.857   1.973  15.840 -0.4187  0.0917 -0.3956
17633TIP3    H174390   6.807   1.924  15.905 -1.6907  0.0949 -1.3374
17633TIP3    H274391   6.835   2.064  15.856 -0.3761  0.1276 -0.5404
17634TIP3   OH274392   6.121   4.078   4.387  0.3257 -0.0217 -0.5631
17634TIP3    H174393   6.215   4.098   4.390 -0.0172  1.8982 -1.1710
17634TIP3    H274394   6.094   4.073   4.479  0.8196  0.5034 -0.3873
17635TIP3   OH274395   4.299   2.489  12.206 -0.1662 -0.0898 -1.0466
17635TIP3    H174396   4.236   2.452  12.269  0.8630  0.2819  0.2462
17635TIP3    H274397   4.253   2.564  12.169  0.0035  1.1003  1.0055
17636TIP3   OH274398   4.079   3.844   2.838 -0.5770  0.0304  0.3144
17636TIP3    H174399   4.116   3.907   2.899 -1.0874  2.0688 -1.3370
17636TIP3    H274400   4.153   3.816   2.784 -0.5432  0.1509  0.2979
17637TIP3   OH274401   4.204   5.881   4.178  0.8637 -0.0962  0.1639
17637TIP3    H174402   4.180   5.795   4.145 -0.4550  0.4009 -0.2220
17637TIP3    H274403   4.218   5.868   4.272 -1.1246 -0.4019  0.4578
17638TIP3   OH274404   1.350   3.173   2.318 -0.4276  0.8300  0.5205
17638TIP3    H174405   1.428   3.212   2.358 -1.1066  1.3148  1.4012
17638TIP3    H274406   1.385   3.109   2.255  0.6814  0.3752  1.5583
17639TIP3   OH274407   5.665   2.392  11.701  0.2199 -0.0350  0.3976
17639TIP3    H174408   5.757   2.390  11.726  0.3374 -0.2520 -0.0423
17639TIP3    H274409   5.632   2.305  11.724  0.3783 -0.3048 -0.3744
17640TIP3   OH274410   2.297   5.631  10.272  0.1188 -0.2480 -0.2590
17640TIP3    H174411   2.270   5.547  10.310 -0.3703 -1.4874 -3.0486
17640TIP3    H274412   2.255   5.697  10.327 -1.5840 -1.9191  0.5569
17641TIP3   OH274413   1.983   2.441  12.065 -0.5035 -0.4111  0.1692
17641TIP3    H174414   2.019   2.353  12.077 -1.9945 -1.0897 -0.1587
17641TIP3    H274415   1.960   2.445  11.972 -1.2845 -0.0096  0.3719
17642TIP3   OH274416   1.960   6.731  16.662 -0.0633  0.0812  0.3027
17642TIP3    H174417   1.868   6.729  16.637 -0.1023  0.6897  0.3954
17642TIP3    H274418   1.987   6.822  16.650  0.1826  0.1833  1.5074
17643TIP3   OH274419   1.435   1.595   3.255  0.3640  0.0497  0.3221
17643TIP3    H174420   1.526   1.569   3.247  0.2727 -0.2492  0.2579
17643TIP3    H274421   1.427   1.671   3.196 -0.3938 -2.3461 -2.9539
17644TIP3   OH274422   1.101   3.597   6.237  0.3798  0.0170 -0.2818
17644TIP3    H174423   1.041   3.570   6.307  0.4454 -0.4772 -0.4100
17644TIP3    H274424   1.163   3.525   6.230  1.0367  0.5538 -0.1053
17645TIP3   OH274425   4.122   6.244  16.115 -0.4517 -0.5534  0.0517
17645TIP3    H174426   4.083   6.195  16.043 -1.3356 -1.6093  1.2118
17645TIP3    H274427   4.082   6.208  16.193  1.1795 -0.0781  1.1557
17646TIP3   OH274428   1.378   4.607  11.496  0.1594 -0.2881  0.2552
17646TIP3    H174429   1.416   4.670  11.434  0.6719 -1.0914 -0.2729
17646TIP3    H274430   1.287   4.596  11.466  0.1149  0.0708  0.2526
17647TIP3   OH274431   6.350   2.599  14.852 -0.0625 -0.5182 -0.2311
17647TIP3    H174432   6.299   2.519  14.859 -0.7093 -0.1627 -0.7356
17647TIP3    H274433   6.387   2.613  14.939 -2.7675  0.4786  0.8526
17648TIP3   OH274434   6.532   1.766   5.102  0.1771  0.3632  0.0974
17648TIP3    H174435   6.498   1.746   5.189  2.6147 -1.8925  0.6688
17648TIP3    H274436   6.522   1.685   5.053 -1.1943  1.6097 -1.8307
17649TIP3   OH274437   3.904   3.753   5.081  0.1118 -0.4325 -0.7203
17649TIP3    H174438   3.942   3.754   5.169 -0.5624 -0.4277 -0.4206
17649TIP3    H274439   3.979   3.744   5.022  0.7244  1.2532 -0.2436
17650TIP3   OH274440   0.185   0.390  11.414 -0.0114  0.5366  0.1438
17650TIP3    H174441   0.097   0.375  11.377  0.0645 -0.0033  0.1770
17650TIP3    H274442   0.201   0.483  11.398  0.7502  0.0137 -2.8431
17651TIP3   OH274443   0.644   6.341   3.032 -0.3414  0.6412 -0.4328
17651TIP3    H174444   0.733   6.324   3.000  1.2477  0.9364  3.3604
17651TIP3    H274445   0.622   6.427   2.997 -0.0229 -0.2186 -2.9907
17652TIP3   OH274446   2.297   3.912  14.427 -0.6920 -0.0601 -0.2610
17652TIP3    H174447   2.202   3.905  14.418 -0.6572  1.4408 -2.3012
17652TIP3    H274448   2.316   4.004  14.412  1.1704 -0.4715 -0.6297
17653TIP3   OH274449   1.152   4.625   5.605  0.0657 -0.3752 -0.3009
17653TIP3    H174450   1.231   4.571   5.604  0.8134  0.6355  1.1011
17653TIP3    H274451   1.183   4.713   5.628 -1.2035  0.5268 -1.8228
17654TIP3   OH274452   1.931   0.848  11.073 -0.2940 -0.4131  0.3730
17654TIP3    H174453   1.896   0.898  11.000 -1.2650 -0.1476  0.9938
17654TIP3    H274454   1.868   0.862  11.144 -1.4818 -3.7798  0.1346
17655TIP3   OH274455   4.292   3.524  14.555 -0.4929  0.5618  0.3404
17655TIP3    H174456   4.218   3.574  14.589  0.8048  2.2220  0.8522
17655TIP3    H274457   4.365   3.586  14.554  1.0700 -1.1672  0.4498
17656TIP3   OH274458   4.517   5.827   0.270  0.1012 -0.0521 -0.1524
17656TIP3    H174459   4.492   5.865   0.186  1.1477  1.3676  0.1298
17656TIP3    H274460   4.565   5.747   0.248 -0.9785 -0.5271 -0.8282
17657TIP3   OH274461   0.494   3.841   0.859 -0.1966 -0.2196  0.1894
17657TIP3    H174462   0.431   3.796   0.804 -1.6610 -0.0271  1.6312
17657TIP3    H274463   0.441   3.883   0.927  1.3148  1.5768  0.3475
17658TIP3   OH274464   5.329   5.646   0.899  0.8344 -0.7587  0.7159
17658TIP3    H174465   5.269   5.580   0.864 -0.2711 -0.2312  1.5542
17658TIP3    H274466   5.381   5.673   0.824 -0.2851 -0.9110 -0.1447
17659TIP3   OH274467   0.979   5.977  14.394  0.7256  0.0996 -0.1817
17659TIP3    H174468   0.987   5.883  14.377  0.1619  0.0860 -0.3799
17659TIP3    H274469   0.902   5.985  14.450 -0.5024  0.6215 -1.8594
17660TIP3   OH274470   6.315   1.422   5.570  0.1745 -0.3083 -0.4797
17660TIP3    H174471   6.389   1.393   5.517  0.7421 -0.9227  0.6025
17660TIP3    H274472   6.303   1.352   5.634 -1.4262 -0.2594 -0.7035
17661TIP3   OH274473   0.973   0.919  16.989  0.3223 -0.4265 -0.0014
17661TIP3    H174474   1.024   0.918  16.907  2.2826 -3.6689  1.0667
17661TIP3    H274475   0.901   0.858  16.972  0.2929 -0.5074  0.4216
17662TIP3   OH274476   1.525   3.127  16.753 -0.4073 -1.0898 -0.0636
17662TIP3    H174477   1.603   3.082  16.785  0.3815 -0.8924 -1.6330
17662TIP3    H274478   1.531   3.215  16.791 -0.8498 -1.6157  1.2900
17663TIP3   OH274479   3.916   4.279   0.305 -0.8226  0.3078 -0.2485
17663TIP3    H174480   3.932   4.216   0.236 -1.2512  1.8661 -1.8433
17663TIP3    H274481   3.834   4.251   0.346  0.5557 -1.8970  1.2016
17664TIP3   OH274482   1.939   2.677   5.019 -0.2325  0.0153 -0.4926
17664TIP3    H174483   1.873   2.692   4.952 -1.9927  3.6426  1.7552
17664TIP3    H274484   1.895   2.621   5.084 -0.1024  0.1205 -0.3122
17665TIP3   OH274485   4.054   6.754  17.022 -0.0665  0.4247 -0.2820
17665TIP3    H174486   4.038   6.663  17.050 -0.2675  0.3031 -0.7890
17665TIP3    H274487   4.027   6.807  17.097 -0.9464  0.1180 -0.3703
17666TIP3   OH274488   6.444   6.403   0.263 -0.1887 -0.5326  0.0712
17666TIP3    H174489   6.406   6.363   0.341  1.3094 -3.1716 -0.4105
17666TIP3    H274490   6.531   6.432   0.291  0.3771 -1.5417 -0.5679
17667TIP3   OH274491   5.364   6.377  11.820 -0.0623  0.3678 -0.3694
17667TIP3    H174492   5.404   6.464  11.820 -0.6104  0.6183 -0.5388
17667TIP3    H274493   5.333   6.364  11.910 -0.0617  0.3819 -0.3675
17668TIP3   OH274494   2.932   3.955  12.732  0.0025  0.0644  0.4751
17668TIP3    H174495   2.926   3.866  12.767  0.9542 -0.4215 -0.5155
17668TIP3    H274496   2.994   3.999  12.790 -1.1074  0.3608  1.4710
17669TIP3   OH274497   1.690   6.452   2.639 -0.5546  0.0759 -0.3080
17669TIP3    H174498   1.672   6.405   2.558  3.4169 -1.0670 -0.7259
17669TIP3    H274499   1.667   6.390   2.708 -0.2102 -0.4936 -0.6967
17670TIP3   OH274500   3.283   1.800  14.043 -0.2677  0.1213 -0.2048
17670TIP3    H174501   3.346   1.771  14.109 -0.9476 -1.0967 -0.0640
17670TIP3    H274502   3.214   1.842  14.093 -0.0630  0.5597 -0.2808
17671TIP3   OH274503   5.273   1.870  12.501  0.0418 -0.0668  0.1991
17671TIP3    H174504   5.276   1.775  12.485  1.8635  0.0758 -0.4210
17671TIP3    H274505   5.232   1.877  12.588 -0.7208 -1.3645 -0.0106
17672TIP3   OH274506   1.920   5.415  12.191  0.2187  0.4375  0.1790
17672TIP3    H174507   2.009   5.439  12.166 -0.4754  1.5500 -1.4432
17672TIP3    H274508   1.884   5.370  12.114 -0.5719 -0.1070  0.8506
17673TIP3   OH274509   1.670   5.878  17.112 -0.2564  0.6460  0.6700
17673TIP3    H174510   1.743   5.844  17.164 -0.2196 -0.7779 -0.2435
17673TIP3    H274511   1.663   5.970  17.138  2.8721  1.3022 -0.2838
17674TIP3   OH274512   1.049   2.569  15.551 -0.1374 -0.0785 -0.6160
17674TIP3    H174513   0.991   2.608  15.485  0.4301  0.0795 -1.0277
17674TIP3    H274514   1.124   2.628  15.555 -0.9000  0.8212  1.3915
17675TIP3   OH274515   4.478   0.879  14.874 -0.2295 -0.4429  0.0346
17675TIP3    H174516   4.387   0.896  14.850 -1.3242 -3.8937  1.2322
17675TIP3    H274517   4.485   0.912  14.964  0.1796  1.0723 -0.5205
17676TIP3   OH274518   3.645   1.975  16.961 -0.0258  0.3340  0.3247
17676TIP3    H174519   3.589   1.995  16.886  0.6089  0.7141 -0.0552
17676TIP3    H274520   3.586   1.937  17.026 -0.0758 -3.5170 -1.6694
17677TIP3   OH274521   1.987   2.082   4.130  0.6658  0.3262  0.1107
17677TIP3    H174522   1.922   2.012   4.137 -1.4695  2.2810  1.3123
17677TIP3    H274523   2.010   2.085   4.037 -2.5042  0.7811 -0.7698
17678TIP3   OH274524   1.347   4.479   5.686  1.0276 -0.4277 -0.5861
17678TIP3    H174525   1.395   4.532   5.750  0.3917 -0.8794  0.2886
17678TIP3    H274526   1.361   4.389   5.713  1.7258 -0.7024 -1.8021
17679TIP3   OH274527   0.089   3.711   0.859 -0.0266 -0.0215 -0.3282
17679TIP3    H174528   0.011   3.724   0.805  0.3891  0.5824 -0.7964
17679TIP3    H274529   0.157   3.763   0.816  0.1083  1.1833  1.2481
17680TIP3   OH274530   5.499   5.203  13.625  0.1847 -0.2328 -0.0918
17680TIP3    H174531   5.479   5.280  13.679  0.4719 -0.1575 -0.0918
17680TIP3    H274532   5.571   5.231  13.569  0.7897 -0.7302  0.4263
17681TIP3   OH274533   5.059   3.571  15.027  0.6344 -0.0294 -0.1918
17681TIP3    H174534   5.083   3.494  15.079  2.0525  1.0469  0.8472
17681TIP3    H274535   4.989   3.613  15.077  0.9249  0.1662  0.0574
17682TIP3   OH274536   4.988   3.881  12.636 -0.0356  0.3316  0.5935
17682TIP3    H174537   5.048   3.895  12.563  2.9961  1.0006  3.0043
17682TIP3    H274538   4.933   3.959  12.639  0.0662  0.4629 -0.6977
17683TIP3   OH274539   4.411   6.835   5.514 -0.2389 -0.1738  0.3533
17683TIP3    H174540   4.400   6.795   5.600 -1.0052 -0.5777  0.0787
17683TIP3    H274541   4.323   6.863   5.489 -0.2363 -1.1067 -0.7939
17684TIP3   OH274542   5.725   1.751  13.780  0.3160 -0.1303  0.1181
17684TIP3    H174543   5.777   1.808  13.723 -0.3248  0.0377 -0.3141
17684TIP3    H274544   5.653   1.807  13.810  0.9781 -0.0457  1.5960
17685TIP3   OH274545   5.524   3.227   5.791 -0.8662  0.2395 -0.2239
17685TIP3    H174546   5.431   3.241   5.774 -0.9735  0.0336  0.1805
17685TIP3    H274547   5.530   3.135   5.819 -0.3078 -0.2794 -1.8982
17686TIP3   OH274548   2.526   1.254  13.132  0.2538  0.1356 -0.5798
17686TIP3    H174549   2.533   1.215  13.219 -0.7270 -0.2498 -0.6621
17686TIP3    H274550   2.616   1.259  13.101  0.4323 -2.2332 -0.6260
17687TIP3   OH274551   6.592   5.216   1.352 -0.5402 -0.0616  0.3480
17687TIP3    H174552   6.500   5.229   1.332 -0.2486  2.5956  0.4538
17687TIP3    H274553   6.635   5.209   1.267 -0.6748 -0.0838  0.2818
17688TIP3   OH274554   2.753   5.913   3.245 -0.0796  0.5370  0.5064
17688TIP3    H174555   2.801   5.924   3.327 -2.3912  0.0107  2.0376
17688TIP3    H274556   2.707   5.830   3.256  0.0251  0.1554 -1.6251
17689TIP3   OH274557   4.425   5.182  10.310 -0.0281  0.1451  0.0321
17689TIP3    H174558   4.372   5.121  10.361 -1.0130  1.5069  0.6888
17689TIP3    H274559   4.396   5.169  10.219 -2.0581  1.3557  0.4561
17690TIP3   OH274560   3.471   4.966   3.321 -0.3393 -0.4385 -0.3341
17690TIP3    H174561   3.502   4.890   3.370 -2.3025 -0.3240  1.2030
17690TIP3    H274562   3.439   5.026   3.388 -1.1176  0.6888 -1.6657
17691TIP3   OH274563   3.463   1.438  12.993  0.0861 -0.1414  0.6354
17691TIP3    H174564   3.494   1.352  12.962  0.9722 -0.3149  1.9259
17691TIP3    H274565   3.540   1.495  12.987 -0.9674  1.1481 -2.0716
17692TIP3   OH274566   0.890   0.553   6.357  0.2943  0.0555 -0.7638
17692TIP3    H174567   0.824   0.495   6.395 -0.2139 -0.3579 -2.1769
17692TIP3    H274568   0.966   0.497   6.343  1.1241  0.6201  1.2120
17693TIP3   OH274569   6.281   6.010  10.197 -0.0558  0.4918  0.5550
17693TIP3    H174570   6.238   6.069  10.135  0.5378  0.0508 -0.2842
17693TIP3    H274571   6.230   6.019  10.278 -3.0656 -1.5270 -0.9395
17694TIP3   OH274572   3.086   6.196  15.059 -0.3532 -0.1718 -0.1325
17694TIP3    H174573   3.178   6.185  15.084 -0.2222  0.3571 -0.3767
17694TIP3    H274574   3.080   6.157  14.972 -0.2077  0.3838 -0.3964
17695TIP3   OH274575   3.902   1.700  14.108 -0.0551 -0.4942  0.1058
17695TIP3    H174576   3.966   1.748  14.055 -0.2478  0.3486  0.6138
17695TIP3    H274577   3.821   1.704  14.057 -0.6095  1.5284  1.0421
17696TIP3   OH274578   6.495   6.019  12.080  0.3829 -0.4337 -0.4986
17696TIP3    H174579   6.513   5.959  12.152  0.4140 -0.4980 -0.5602
17696TIP3    H274580   6.562   5.998  12.014 -0.1876 -0.9812 -0.9194
17697TIP3   OH274581   6.559   4.946   1.972 -0.1875  0.3154 -0.6403
17697TIP3    H174582   6.484   4.909   2.018 -0.5727  0.4515 -1.1406
17697TIP3    H274583   6.635   4.918   2.022 -0.6529  1.3242  0.6735
17698TIP3   OH274584   4.354   4.456   4.350  0.8409 -0.1771 -0.5032
17698TIP3    H174585   4.311   4.539   4.368  0.1670 -0.2939 -1.5119
17698TIP3    H274586   4.439   4.481   4.314 -0.0750  0.1394 -2.5787
17699TIP3   OH274587   4.649   6.385   0.678 -0.2217 -0.1434 -0.0469
17699TIP3    H174588   4.701   6.328   0.734  1.1392  1.3968  0.3346
17699TIP3    H274589   4.646   6.469   0.724 -2.4496  0.0476 -0.4248
17700TIP3   OH274590   4.606   3.702   0.227  0.1816  0.1718 -0.1516
17700TIP3    H174591   4.592   3.618   0.270  0.0015 -0.5569 -1.5650
17700TIP3    H274592   4.691   3.694   0.185 -0.8573 -0.2847 -2.3460
17701TIP3   OH274593   6.158   6.216  10.581 -0.3478 -0.4103  0.1808
17701TIP3    H174594   6.162   6.171  10.666 -1.5389  1.0425  1.0733
17701TIP3    H274595   6.064   6.233  10.568 -0.1778 -0.5634 -1.4172
17702TIP3   OH274596   5.285   5.180  13.042 -0.3740  0.2184  0.1627
17702TIP3    H174597   5.296   5.117  12.971  0.3323  1.9900 -1.3907
17702TIP3    H274598   5.213   5.237  13.012 -0.0506  1.0077  0.8432
17703TIP3   OH274599   5.005   3.338  11.358 -0.1114 -0.2847 -0.4919
17703TIP3    H174600   5.093   3.336  11.396 -0.3690  0.4343  0.1764
17703TIP3    H274601   4.955   3.273  11.407  0.1858 -1.1075 -1.2587
17704TIP3   OH274602   5.249   0.888   0.276  0.0451  0.2554 -0.3096
17704TIP3    H174603   5.308   0.936   0.217  0.0921 -2.1097 -2.3435
17704TIP3    H274604   5.161   0.919   0.253  0.1325 -0.0033 -0.9981
17705TIP3   OH274605   0.074   6.641   3.574 -0.2796 -0.0081 -0.3678
17705TIP3    H174606   0.083   6.597   3.659  0.6321  0.8263 -0.0187
17705TIP3    H274607   0.002   6.702   3.587  0.3226  0.6224  0.0302
17706TIP3   OH274608   0.461   3.737   4.967 -0.1641 -0.4413  0.0496
17706TIP3    H174609   0.510   3.655   4.979 -0.4352 -0.4340  1.2630
17706TIP3    H274610   0.393   3.735   5.034 -0.1649  0.7889  0.1015
17707TIP3   OH274611   6.314   3.184  15.134  0.0359 -0.3498 -0.1812
17707TIP3    H174612   6.259   3.109  15.156 -2.0492  1.3023  0.5116
17707TIP3    H274613   6.264   3.232  15.068  1.0891  0.7116 -0.2432
17708TIP3   OH274614   3.929   6.712  16.781 -0.5566 -0.2171 -0.1965
17708TIP3    H174615   3.903   6.800  16.752  0.0641 -0.2129 -0.7768
17708TIP3    H274616   3.972   6.727  16.866  1.4919  0.3493 -1.2603
17709TIP3   OH274617   4.818   3.674   5.484 -0.1048 -0.3436  0.6977
17709TIP3    H174618   4.910   3.684   5.508 -0.5016  2.2830  1.3723
17709TIP3    H274619   4.780   3.624   5.557  0.8509 -2.0406  0.1002
17710TIP3   OH274620   6.739   4.240   0.727 -0.3971  0.1080  0.5890
17710TIP3    H174621   6.824   4.250   0.684 -0.5306 -0.3366  0.2127
17710TIP3    H274622   6.691   4.319   0.702  0.4483  1.1688  2.1246
17711TIP3   OH274623   5.538   0.690  15.761  0.1959 -0.3958 -0.0444
17711TIP3    H174624   5.522   0.596  15.764  0.9206 -0.6528 -2.4236
17711TIP3    H274625   5.564   0.707  15.671 -1.1137  2.2981 -0.0097
17712TIP3   OH274626   5.318   3.249  14.991  0.4515 -0.0520  0.5286
17712TIP3    H174627   5.409   3.241  15.017  0.4211  0.6935  0.9044
17712TIP3    H274628   5.276   3.293  15.064 -0.0589  0.2560  0.0605
17713TIP3   OH274629   3.228   0.547  12.198 -0.4438 -0.3640 -0.5175
17713TIP3    H174630   3.222   0.586  12.285 -0.9551  0.9407 -1.0997
17713TIP3    H274631   3.314   0.504  12.197 -0.1053  0.2547  0.3727
17714TIP3   OH274632   4.619   2.771   4.277 -0.1660 -0.1922  0.0569
17714TIP3    H174633   4.544   2.792   4.333 -0.1714 -0.6532  0.2265
17714TIP3    H274634   4.669   2.852   4.273 -0.6549  0.1070 -0.0245
17715TIP3   OH274635   1.937   5.727   5.372  0.1590 -0.2754  0.3394
17715TIP3    H174636   1.989   5.659   5.331 -1.2586 -0.5202 -1.1299
17715TIP3    H274637   1.847   5.696   5.368 -0.3494  0.9768  1.0884
17716TIP3   OH274638   3.649   1.765   0.859  0.3302  0.1951 -0.3083
17716TIP3    H174639   3.727   1.718   0.830  1.4522  0.5412  1.8919
17716TIP3    H274640   3.622   1.719   0.938  0.7506  2.4219  1.2268
17717TIP3   OH274641   4.792   3.208   5.930  0.3552  0.7502 -0.3806
17717TIP3    H174642   4.719   3.218   5.991  2.2403  1.7500  1.9264
17717TIP3    H274643   4.837   3.129   5.960  1.4874  1.4323 -0.2057
17718TIP3   OH274644   1.886   3.265  16.497 -0.6266  0.1270 -0.2124
17718TIP3    H174645   1.896   3.359  16.481 -2.5239  0.5089  0.5877
17718TIP3    H274646   1.965   3.226  16.459  0.4078  2.0667 -0.1822
17719TIP3   OH274647   0.861   2.956   2.306 -0.1229 -0.5634 -0.6333
17719TIP3    H174648   0.909   3.009   2.242  0.3324  0.5883  0.5907
17719TIP3    H274649   0.884   2.996   2.391  0.5909 -3.0031  0.4162
17720TIP3   OH274650   4.584   5.946  12.466  0.1331  0.2938  0.3152
17720TIP3    H174651   4.514   6.008  12.446  0.3475  1.0447  1.7890
17720TIP3    H274652   4.566   5.871  12.409  0.0169  1.7615 -1.7086
17721TIP3   OH274653   2.376   1.185  11.878 -0.2309  0.1732 -0.2517
17721TIP3    H174654   2.451   1.133  11.904  0.0216 -0.3608 -1.9572
17721TIP3    H274655   2.300   1.131  11.902  0.0159 -0.7534 -1.4543
17722TIP3   OH274656   5.131   6.434   5.692  0.4418 -0.3116  0.4083
17722TIP3    H174657   5.078   6.423   5.771  0.7900 -1.1681  0.5325
17722TIP3    H274658   5.169   6.521   5.701 -0.1919 -0.0691  0.7773
17723TIP3   OH274659   1.105   6.190  13.040 -0.1435 -0.0654  0.2412
17723TIP3    H174660   1.011   6.199  13.056 -0.1227  1.3143 -0.2842
17723TIP3    H274661   1.130   6.112  13.090 -1.4758 -0.2128  0.7343
17724TIP3   OH274662   5.655   1.744  15.574 -0.1958  0.1285 -0.3398
17724TIP3    H174663   5.705   1.667  15.549 -1.1124 -0.5810 -0.0862
17724TIP3    H274664   5.584   1.749  15.510 -0.0137  0.9072 -0.4942
17725TIP3   OH274665   5.380   0.025  17.084  0.0575 -0.0749  0.6936
17725TIP3    H174666   5.318   0.084  17.128 -1.8816 -1.3365 -0.1998
17725TIP3    H274667   5.341  -0.062  17.094  0.4569 -0.6173 -1.9396
17726TIP3   OH274668   3.703   1.314  12.110  0.0625  0.8995 -0.0562
17726TIP3    H174669   3.651   1.352  12.182  0.4909  0.9322  0.2378
17726TIP3    H274670   3.664   1.228  12.096 -1.1332  1.5595 -0.9509
17727TIP3   OH274671   0.130   5.754  16.355  0.2538  0.0328 -0.7616
17727TIP3    H174672   0.139   5.699  16.276  0.8735 -2.2631  0.8102
17727TIP3    H274673   0.174   5.836  16.332 -1.3211  0.2732 -3.4754
17728TIP3   OH274674   3.950   6.715  16.318 -0.2416  0.1185  0.0746
17728TIP3    H174675   3.928   6.712  16.225 -2.2261 -0.1848  0.4974
17728TIP3    H274676   4.012   6.643  16.330 -0.6343 -0.4019 -0.8725
17729TIP3   OH274677   6.741   4.738  11.888 -0.3317 -0.5801 -0.5337
17729TIP3    H174678   6.768   4.750  11.979  0.2037  0.6241 -0.8358
17729TIP3    H274679   6.798   4.796  11.838 -1.1601 -0.6177 -1.5598
17730TIP3   OH274680   2.091   0.770   4.228 -0.1854  0.2817  0.3047
17730TIP3    H174681   2.039   0.700   4.268  0.6091 -0.6776 -0.3105
17730TIP3    H274682   2.026   0.825   4.184 -0.6081 -2.0487 -2.2481
17731TIP3   OH274683   3.832   4.712  12.042 -0.0386 -0.1208 -0.1684
17731TIP3    H174684   3.826   4.617  12.030 -1.9037  0.1274 -1.9861
17731TIP3    H274685   3.775   4.731  12.116 -0.9215 -0.3169 -0.7763
17732TIP3   OH274686   0.345   6.541   6.086  0.4394  0.0708 -0.3175
17732TIP3    H174687   0.322   6.589   6.007  0.4855  1.3204  0.3997
17732TIP3    H274688   0.261   6.525   6.130  0.4227 -0.5322 -0.5584
17733TIP3   OH274689   2.341   1.399  12.070  0.6359  0.0895  0.2524
17733TIP3    H174690   2.299   1.361  12.147  1.4411  0.6436  0.9857
17733TIP3    H274691   2.316   1.341  11.998 -0.0274 -0.5087  0.9431
17734TIP3   OH274692   5.312   6.695   4.105 -0.0500  0.1586  0.7063
17734TIP3    H174693   5.223   6.701   4.140 -0.5906  0.6551 -0.6767
17734TIP3    H274694   5.315   6.609   4.063  0.3253 -0.1082  1.2839
17735TIP3   OH274695   4.320   6.326   1.999 -0.3788 -0.6094  0.0915
17735TIP3    H174696   4.391   6.348   2.059  0.3165 -1.2543 -0.4812
17735TIP3    H274697   4.309   6.404   1.945  0.6770 -0.8986 -0.5675
17736TIP3   OH274698   6.338   1.458  14.849 -0.1249 -0.1911  0.1997
17736TIP3    H174699   6.251   1.423  14.867 -0.2632  1.0201  2.1935
17736TIP3    H274700   6.326   1.553  14.850  0.9364 -0.0144 -1.2059
17737TIP3   OH274701   2.522   5.682  14.462  0.5874  0.2211  0.0218
17737TIP3    H174702   2.523   5.770  14.425  2.4950 -0.6724 -2.3814
17737TIP3    H274703   2.562   5.691  14.548 -0.1969  1.8371  0.2397
17738TIP3   OH274704   3.082   5.233   1.604  1.2037  0.0598 -0.0632
17738TIP3    H174705   3.043   5.289   1.536  0.5295 -0.8410 -0.4433
17738TIP3    H274706   3.115   5.157   1.556  1.9934  0.0605  0.4594
17739TIP3   OH274707   6.285   2.383   5.267 -0.2915  0.2877 -0.2016
17739TIP3    H174708   6.210   2.352   5.318  1.1668 -1.5202  1.0121
17739TIP3    H274709   6.302   2.313   5.205  2.1086 -0.7811  1.5093
17740TIP3   OH274710   1.872   4.605  12.497 -0.5934  0.1134 -0.2561
17740TIP3    H174711   1.875   4.681  12.440 -0.7728  1.3410  1.2971
17740TIP3    H274712   1.805   4.627  12.563  0.7086 -0.5265  1.3578
17741TIP3   OH274713   4.887   0.852  14.217  0.0390  0.4179  0.3936
17741TIP3    H174714   4.875   0.907  14.139 -2.0602 -1.6730 -0.8758
17741TIP3    H274715   4.805   0.860  14.265  0.8633  0.7325  1.8258
17742TIP3   OH274716   3.800   5.135   4.877  0.3094  0.2737 -0.0021
17742TIP3    H174717   3.876   5.148   4.821 -0.0003  0.9915 -0.2725
17742TIP3    H274718   3.823   5.178   4.959  0.5856 -0.3897  0.2772
17743TIP3   OH274719   5.887   0.695   4.691 -0.4360  0.2681 -0.6482
17743TIP3    H174720   5.942   0.734   4.623  1.0890 -0.1106  0.3188
17743TIP3    H274721   5.798   0.712   4.662  0.1656  0.3429 -2.6033
17744TIP3   OH274722   1.957   5.209   0.564  0.4689  0.0598  0.2258
17744TIP3    H174723   1.873   5.168   0.582  0.7215 -0.2837  0.6295
17744TIP3    H274724   2.014   5.138   0.536  1.0074  0.0544  1.2628
17745TIP3   OH274725   2.656   1.798  11.635  0.1748 -0.1617  0.0426
17745TIP3    H174726   2.592   1.868  11.622 -0.7804 -0.6952  1.5594
17745TIP3    H274727   2.644   1.771  11.726 -0.8991 -3.6254 -0.9687
17746TIP3   OH274728   1.008   0.883  11.848  0.5078 -0.0231 -0.2496
17746TIP3    H174729   1.015   0.848  11.760  0.5319 -0.4416 -0.0836
17746TIP3    H274730   0.966   0.813  11.898 -0.9007  0.7736 -0.2600
17747TIP3   OH274731   1.631   2.421  12.163  0.0832 -0.2681 -0.5425
17747TIP3    H174732   1.578   2.432  12.084  0.3110  0.7183 -0.5804
17747TIP3    H274733   1.643   2.327  12.172 -0.7484 -0.4392 -1.1484
17748TIP3   OH274734   5.129   2.571   4.039 -0.2177 -0.1828 -0.4602
17748TIP3    H174735   5.157   2.535   3.955 -2.3241 -0.3644 -1.1500
17748TIP3    H274736   5.069   2.642   4.016 -2.1644 -1.3062  0.8039
17749TIP3   OH274737   3.838   3.842  11.909 -0.4883 -0.1751  0.2980
17749TIP3    H174738   3.795   3.876  11.987 -1.4617  1.1335 -0.7542
17749TIP3    H274739   3.767   3.827  11.846  0.1848 -1.9727 -0.1006
17750TIP3   OH274740   1.809   3.617   0.397  0.0742 -0.2488 -0.2355
17750TIP3    H174741   1.725   3.634   0.354  0.6638 -0.8764 -1.7370
17750TIP3    H274742   1.786   3.579   0.481 -1.1578 -0.6748 -0.7385
17751TIP3   OH274743   2.183   0.003   2.289 -0.7788 -0.3621 -0.5852
17751TIP3    H174744   2.106   0.032   2.338 -1.2721 -2.0649 -0.2930
17751TIP3    H274745   2.248  -0.016   2.356 -0.4395  0.1233 -0.7749
17752TIP3   OH274746   0.758   4.466  15.250  0.3425 -0.5418  0.6880
17752TIP3    H174747   0.781   4.465  15.157 -1.8325  1.3156  0.0116
17752TIP3    H274748   0.663   4.479  15.250  0.1988 -1.1408  3.1978
17753TIP3   OH274749   1.591   0.850  16.767  0.0714 -0.4876 -0.0126
17753TIP3    H174750   1.503   0.823  16.739 -0.0437 -0.9977  0.8329
17753TIP3    H274751   1.642   0.769  16.769  1.0157  0.0016 -2.0294
17754TIP3   OH274752   3.700   1.647   4.125  0.5376 -0.1542  0.4399
17754TIP3    H174753   3.610   1.617   4.129  0.0740  1.2392  1.6332
17754TIP3    H274754   3.698   1.722   4.065  0.6660  0.5198  1.2501
17755TIP3   OH274755   2.888   3.964  10.116  0.2476 -0.4572 -0.2949
17755TIP3    H174756   2.849   4.049  10.093 -0.0024 -1.2475 -3.1898
17755TIP3    H274757   2.848   3.903  10.055  0.2665 -2.7591  1.8624
17756TIP3   OH274758   6.669   0.727  10.598 -0.0349  0.4804 -0.1416
17756TIP3    H174759   6.688   0.804  10.545  1.5442 -0.0508 -0.4269
17756TIP3    H274760   6.620   0.669  10.539  0.2903  0.5602 -0.4954
17757TIP3   OH274761   2.065   1.730   5.372 -0.0901  0.3980  0.4313
17757TIP3    H174762   2.145   1.777   5.350  0.8800 -0.5317  1.8311
17757TIP3    H274763   2.085   1.683   5.453 -1.2070 -1.8860 -0.5147
17758TIP3   OH274764   0.449   6.305  16.756 -0.4096  0.4738 -0.0041
17758TIP3    H174765   0.498   6.366  16.810  1.8025 -0.1089 -1.2228
17758TIP3    H274766   0.430   6.231  16.814  0.0929  0.7392  0.5056
17759TIP3   OH274767   4.381   3.512  13.922  0.2098  0.0033  0.6794
17759TIP3    H174768   4.355   3.487  14.011 -0.4579 -0.1595  0.4479
17759TIP3    H274769   4.402   3.605  13.927 -2.0105  0.5612  0.5625
17760TIP3   OH274770   3.561   3.164   3.541 -0.5260  0.0370  0.1527
17760TIP3    H174771   3.552   3.165   3.636  0.1986 -1.8381  0.2883
17760TIP3    H274772   3.511   3.086   3.513 -1.9395  1.3540 -1.1738
17761TIP3   OH274773   0.172   4.830   5.345  0.4156  0.2647 -0.1634
17761TIP3    H174774   0.222   4.769   5.290  0.5890 -0.7086  1.0175
17761TIP3    H274775   0.202   4.810   5.434 -0.7598  0.9348  0.3946
17762TIP3   OH274776   1.672   0.402  13.833  0.9432  0.0427 -0.2710
17762TIP3    H174777   1.744   0.349  13.867  0.6972  0.9420  1.7727
17762TIP3    H274778   1.687   0.489  13.869 -1.7632  0.0093  1.2098
17763TIP3   OH274779   0.374   1.160  11.235  0.5926  0.6754  0.3814
17763TIP3    H174780   0.379   1.167  11.140  2.9321  1.5984  0.5242
17763TIP3    H274781   0.384   1.066  11.252 -0.4020  0.4311 -0.2668
17764TIP3   OH274782   4.887   0.236   4.925 -0.1845 -0.2249  0.1175
17764TIP3    H174783   4.925   0.321   4.944  1.4022 -0.9108  0.1547
17764TIP3    H274784   4.913   0.217   4.835 -1.8137 -0.0398 -0.4338
17765TIP3   OH274785   6.226   5.183  11.206 -0.0904  0.8665  0.1718
17765TIP3    H174786   6.240   5.089  11.212 -1.6963  0.5638 -0.3188
17765TIP3    H274787   6.223   5.202  11.112 -0.8413  1.2166  0.2562
17766TIP3   OH274788   1.920   3.355   4.036  0.1263 -0.3667 -0.6745
17766TIP3    H174789   1.970   3.305   4.100  0.3738 -0.8892 -1.2631
17766TIP3    H274790   1.960   3.441   4.035  0.2285 -0.4108 -0.2485
17767TIP3   OH274791   2.858   4.033  10.702 -0.1712  0.3448  0.3163
17767TIP3    H174792   2.911   4.066  10.630 -0.7203  1.3396  0.3515
17767TIP3    H274793   2.801   3.967  10.662  0.5881 -0.2289  0.1500
17768TIP3   OH274794   2.388   3.005  15.373  0.3093  0.4823 -0.6487
17768TIP3    H174795   2.357   3.037  15.289 -1.6286  0.4921  0.0280
17768TIP3    H274796   2.480   3.032  15.377  0.7700 -0.4472 -3.1794
17769TIP3   OH274797   0.580   3.181  13.036  0.2622 -0.0901  0.1948
17769TIP3    H174798   0.661   3.232  13.027  0.9364 -1.2788 -0.7578
17769TIP3    H274799   0.606   3.104  13.087  0.0208 -1.0355 -1.0572
17770TIP3   OH274800   1.711   3.912  13.035 -0.5724  0.3463  0.8511
17770TIP3    H174801   1.780   3.845  13.038 -0.9005 -0.1962 -1.5335
17770TIP3    H274802   1.653   3.884  12.965 -2.2449  1.7634  1.5818
17771TIP3   OH274803   1.679   4.251  15.229 -0.6032  0.2960  0.0738
17771TIP3    H174804   1.648   4.173  15.274  0.2722  0.0434  0.2569
17771TIP3    H274805   1.773   4.238  15.219 -0.7030  0.5303 -1.4816
17772TIP3   OH274806   4.168   2.239   3.228  0.0261 -0.6218  0.0856
17772TIP3    H174807   4.202   2.185   3.299  1.8015  2.2758  1.6472
17772TIP3    H274808   4.099   2.292   3.270 -0.4620 -0.4266 -0.9313
17773TIP3   OH274809   6.265   1.452   0.068  0.0536  0.2794 -0.7855
17773TIP3    H174810   6.169   1.449   0.074 -0.0724  3.2510  0.9692
17773TIP3    H274811   6.294   1.374   0.115 -1.5366  0.4403  0.5685
17774TIP3   OH274812   6.339   4.944   5.989 -0.3564  0.0040 -0.1798
17774TIP3    H174813   6.318   4.988   5.907 -0.0472  1.4869  0.4972
17774TIP3    H274814   6.295   4.996   6.056  0.8283 -0.1293  0.7420
17775TIP3   OH274815   4.545   6.184  16.607 -0.5031  0.4104 -0.5756
17775TIP3    H174816   4.568   6.137  16.527 -2.2013  0.7004 -1.2750
17775TIP3    H274817   4.491   6.122  16.656  1.6403 -0.2693  1.0392
17776TIP3   OH274818   6.768   2.139   4.632  0.2346  0.4645  0.2526
17776TIP3    H174819   6.735   2.122   4.543  0.8720  2.6255 -0.4567
17776TIP3    H274820   6.862   2.125   4.625  0.2533  0.3660  0.6815
17777TIP3   OH274821   5.145   1.429   3.816  0.1002 -0.2251  0.3360
17777TIP3    H174822   5.131   1.523   3.800 -1.1262 -0.5826 -0.9915
17777TIP3    H274823   5.235   1.413   3.787  0.6750  0.7004  1.5092
17778TIP3   OH274824   5.991   1.410   0.090  0.2152 -0.1147 -0.2248
17778TIP3    H174825   5.966   1.502   0.097  0.4342 -0.0633 -0.0834
17778TIP3    H274826   5.921   1.370   0.039  0.6709  0.3562 -1.2567
17779TIP3   OH274827   3.628   1.517  11.320  1.1382  0.8823  0.3812
17779TIP3    H174828   3.558   1.556  11.269  0.3714  0.3423  1.0020
17779TIP3    H274829   3.709   1.545  11.276  0.5114  0.5745 -1.0213
17780TIP3   OH274830   3.647   2.070  14.302 -0.0473  0.0322  0.3300
17780TIP3    H174831   3.644   1.986  14.349 -1.7919  1.1007  2.2769
17780TIP3    H274832   3.653   2.136  14.370 -0.1438  1.5919 -1.0977
17781TIP3   OH274833   6.729   0.751  15.503  0.6671  0.7944  0.2845
17781TIP3    H174834   6.800   0.745  15.440  0.2333  0.0634 -0.1479
17781TIP3    H274835   6.702   0.661  15.518 -0.7987  1.1120 -0.2900
17782TIP3   OH274836   2.576   0.499  11.900  0.8335  0.3454  0.0350
17782TIP3    H174837   2.497   0.500  11.845  1.6338 -2.2399 -1.3034
17782TIP3    H274838   2.594   0.592  11.916 -0.4405  1.1668 -2.6276
17783TIP3   OH274839   5.440   3.715  14.144  0.1876  0.0036 -0.2953
17783TIP3    H174840   5.352   3.724  14.182 -0.1699  2.3373 -1.5155
17783TIP3    H274841   5.480   3.800  14.156  1.7760 -0.6095 -1.0260
17784TIP3   OH274842   5.299   0.067  14.242 -0.7414 -0.2016  0.2565
17784TIP3    H174843   5.321   0.043  14.152 -1.0831 -0.2900  0.1981
17784TIP3    H274844   5.304  -0.015  14.291  0.2782 -0.0234  0.4917
17785TIP3   OH274845   6.121   6.546   2.313  0.3123 -0.2862 -0.0877
17785TIP3    H174846   6.056   6.602   2.271  0.8242 -0.6827 -1.4510
17785TIP3    H274847   6.083   6.459   2.312 -0.9950  0.0894  3.0698
17786TIP3   OH274848   2.005   0.365  15.034 -1.1429 -0.3096 -0.1196
17786TIP3    H174849   2.025   0.314  15.113 -0.0809 -1.2061 -0.9454
17786TIP3    H274850   1.984   0.300  14.968  1.7038  0.1365 -1.6110
17787TIP3   OH274851   3.180   3.437   2.313 -0.2313  0.6641  0.9150
17787TIP3    H174852   3.148   3.376   2.379  1.1134 -0.5995  0.4631
17787TIP3    H274853   3.102   3.465   2.265 -0.9315 -0.3163  1.4552
17788TIP3   OH274854   0.405   1.794  14.420  0.3818  0.2134 -0.4409
17788TIP3    H174855   0.324   1.843  14.436 -0.3583 -0.9450 -0.4980
17788TIP3    H274856   0.417   1.799  14.325  1.0265  1.3414 -0.3206
17789TIP3   OH274857   4.438   3.198   4.851 -0.4313  0.2324  0.4269
17789TIP3    H174858   4.417   3.285   4.817 -0.0311  0.0218 -0.3668
17789TIP3    H274859   4.362   3.175   4.906 -1.1025  0.5580 -0.3426
17790TIP3   OH274860   4.070   1.957  16.867 -0.0650  0.0347 -0.8732
17790TIP3    H174861   4.027   1.991  16.789 -0.2105  0.0586 -0.7823
17790TIP3    H274862   4.081   1.864  16.849 -0.1700  0.0252 -0.8895
17791TIP3   OH274863   0.238   4.458   0.338 -0.2801 -0.1431  0.4115
17791TIP3    H174864   0.204   4.428   0.422 -0.0832  1.0089  0.9195
17791TIP3    H274865   0.185   4.536   0.317 -0.0948 -0.2110 -0.3610
17792TIP3   OH274866   1.776   4.047   5.419 -0.6427 -0.7148 -0.4456
17792TIP3    H174867   1.859   4.093   5.402 -1.8317  2.6061  1.6993
17792TIP3    H274868   1.735   4.041   5.332  1.1183 -0.9644 -1.3138
17793TIP3   OH274869   0.915   5.075  14.150 -0.2553 -0.1874 -0.3194
17793TIP3    H174870   0.844   5.030  14.106 -0.7714 -1.0021  1.2563
17793TIP3    H274871   0.985   5.079  14.085 -1.8534  1.0414 -2.0599
17794TIP3   OH274872   6.791   4.939   0.745 -0.3035 -0.0897  0.0383
17794TIP3    H174873   6.714   4.930   0.801  0.1295  0.9826  0.8446
17794TIP3    H274874   6.862   4.961   0.805  0.4524 -0.1984 -0.7921
17795TIP3   OH274875   6.285   1.507   0.633 -0.2387 -0.2647  0.3223
17795TIP3    H174876   6.375   1.478   0.644  0.8858  1.4865 -2.8342
17795TIP3    H274877   6.284   1.598   0.664 -0.7526 -0.0778 -0.2105
17796TIP3   OH274878   0.645   1.445  12.702  0.0348  0.1534 -0.6446
17796TIP3    H174879   0.721   1.388  12.695  0.4794  0.7185 -0.5397
17796TIP3    H274880   0.673   1.527  12.661 -0.2359  0.6344  0.1101
17797TIP3   OH274881   1.483   2.858   2.526  0.2676  0.3851 -0.6297
17797TIP3    H174882   1.576   2.836   2.528  0.1834 -0.1831 -1.7489
17797TIP3    H274883   1.480   2.951   2.550  0.9090 -0.0648  1.3558
17798TIP3   OH274884   1.838   0.964   5.642  0.1027  0.0388  0.1909
17798TIP3    H174885   1.872   0.965   5.552  0.2482  0.4865  0.2443
17798TIP3    H274886   1.832   1.057   5.666 -1.7922  0.0102 -0.0405
17799TIP3   OH274887   5.438   4.420   2.297  0.3304 -0.4050 -0.1784
17799TIP3    H174888   5.393   4.466   2.368  0.9015 -0.7109  0.3853
17799TIP3    H274889   5.400   4.457   2.217 -1.1216 -0.8439  0.2742
17800TIP3   OH274890   3.594   5.364  15.191 -0.2131  0.2346 -0.5565
17800TIP3    H174891   3.568   5.358  15.100  0.4088  0.6005 -0.7664
17800TIP3    H274892   3.688   5.345  15.191 -0.6845 -2.6158  0.3674
17801TIP3   OH274893   3.732   0.115   0.206 -0.9404 -0.2254 -0.1688
17801TIP3    H174894   3.733   0.211   0.197 -0.3977 -0.3211 -1.2184
17801TIP3    H274895   3.733   0.101   0.301  0.3273  0.8077  0.0108
17802TIP3   OH274896   1.320   1.844   3.177  0.3457  0.1059 -0.7509
17802TIP3    H174897   1.408   1.879   3.160  0.6119  0.2525  0.7495
17802TIP3    H274898   1.280   1.908   3.237 -1.1044  0.4524 -2.0176
17803TIP3   OH274899   6.125   5.147  10.121  0.5776  0.4187 -0.5380
17803TIP3    H174900   6.176   5.080  10.166  0.9407  0.9135 -0.2106
17803TIP3    H274901   6.189   5.196  10.069  0.6216  1.7204  0.6982
17804TIP3   OH274902   1.588   5.463  12.304 -0.0707 -0.2062  0.2813
17804TIP3    H174903   1.540   5.389  12.269  1.3836  0.1677 -2.9222
17804TIP3    H274904   1.621   5.509  12.226  1.2693  2.3176  2.1716
17805TIP3   OH274905   2.409   6.408  16.194 -0.4539 -0.2914  0.1009
17805TIP3    H174906   2.360   6.476  16.148 -1.9822  0.2867  2.3989
17805TIP3    H274907   2.366   6.401  16.280  2.7761 -0.6037  1.8425
17806TIP3   OH274908   0.580   1.225   1.318 -0.4265  0.0773 -0.0723
17806TIP3    H174909   0.629   1.181   1.248  0.0283  0.8679 -0.2585
17806TIP3    H274910   0.498   1.176   1.323 -0.1941 -0.4004 -0.7122
17807TIP3   OH274911   1.788   0.873   1.074  0.1300 -0.3632  0.0994
17807TIP3    H174912   1.731   0.935   1.120  0.4936  0.0490  0.0040
17807TIP3    H274913   1.850   0.843   1.140 -0.8025 -1.5797  0.4544
17808TIP3   OH274914   6.612   6.695   1.548  0.6843  0.1963 -0.2147
17808TIP3    H174915   6.704   6.712   1.532  0.2806  0.0759 -3.1800
17808TIP3    H274916   6.609   6.602   1.572  1.2077 -0.3898 -2.2182
17809TIP3   OH274917   3.434   2.739   4.793 -0.1839 -0.5071 -0.1115
17809TIP3    H174918   3.344   2.720   4.820 -0.7939 -1.8379 -2.7334
17809TIP3    H274919   3.425   2.809   4.729  0.4613 -1.3888 -1.2101
17810TIP3   OH274920   2.413   1.822   2.369 -0.2977 -0.2171 -0.7358
17810TIP3    H174921   2.466   1.775   2.304  1.8831 -0.5503  1.1627
17810TIP3    H274922   2.436   1.914   2.357  1.2598 -0.4121  0.4623
17811TIP3   OH274923   5.371   2.271   2.890  0.2967  0.0280  0.2577
17811TIP3    H174924   5.382   2.301   2.800 -1.7167 -1.6935 -0.6583
17811TIP3    H274925   5.285   2.306   2.916  1.0505  0.8956  1.7242
17812TIP3   OH274926   4.108   0.559  11.840 -0.1594  0.8313 -0.5340
17812TIP3    H174927   4.165   0.564  11.762  0.5134 -0.9245 -0.1908
17812TIP3    H274928   4.127   0.640  11.888 -2.1283  3.0383 -3.1402
17813TIP3   OH274929   5.582   1.146   3.167  0.3789 -0.5509  0.1898
17813TIP3    H174930   5.668   1.120   3.201  0.0482 -0.9587  0.7167
17813TIP3    H274931   5.578   1.106   3.080  1.2135  0.4716 -0.3544
17814TIP3   OH274932   2.611   0.014  14.973  0.3811 -0.5658  0.3369
17814TIP3    H174933   2.579   0.083  15.031  0.4419  1.2305 -1.6771
17814TIP3    H274934   2.660   0.060  14.905  0.3159 -2.5833 -1.1582
17815TIP3   OH274935   4.130   3.519   2.309 -0.3750 -0.2494  0.3224
17815TIP3    H174936   4.043   3.538   2.273  0.1448 -0.2698 -1.0021
17815TIP3    H274937   4.118   3.524   2.404 -1.7532  0.0407  0.1591
17816TIP3   OH274938   3.920   3.544   0.576 -0.0838 -0.2689 -0.4021
17816TIP3    H174939   3.892   3.602   0.647 -1.7351 -0.4901 -0.8533
17816TIP3    H274940   3.993   3.591   0.535 -1.6588  1.7411 -1.0573
17817TIP3   OH274941   2.759   6.090  14.007 -0.2873  0.7226 -0.0914
17817TIP3    H174942   2.788   6.006  13.971 -0.3889  0.8241 -0.4173
17817TIP3    H274943   2.766   6.151  13.933 -1.0240  0.8178 -0.0921
17818TIP3   OH274944   5.667   6.238  11.909  0.1840 -0.7933 -0.4687
17818TIP3    H174945   5.628   6.258  11.825 -1.0813 -0.2658  0.2250
17818TIP3    H274946   5.697   6.323  11.943 -0.0204 -0.8826 -0.0526
17819TIP3   OH274947   1.393   0.506  13.260 -0.0397 -0.1122 -1.1908
17819TIP3    H174948   1.453   0.520  13.334 -1.5250 -1.3990  0.3379
17819TIP3    H274949   1.362   0.594  13.237 -0.1775  0.2463  0.2915
17820TIP3   OH274950   4.234   2.757  12.666  0.4449 -0.2964  0.5932
17820TIP3    H174951   4.154   2.735  12.716  0.4218  1.2733  1.3115
17820TIP3    H274952   4.201   2.796  12.585  0.4854 -0.0173  0.7117
17821TIP3   OH274953   0.766   0.779   6.176 -0.3325  0.6990 -0.0378
17821TIP3    H174954   0.703   0.782   6.105  0.3022  1.4168 -0.5828
17821TIP3    H274955   0.806   0.692   6.169 -1.7368 -0.0361  0.7553
17822TIP3   OH274956   3.897   4.507  12.348  0.0840 -0.4655 -0.2981
17822TIP3    H174957   3.936   4.470  12.269 -2.6598  0.3244 -2.1680
17822TIP3    H274958   3.952   4.583  12.369 -0.4818  0.8057 -2.9962
17823TIP3   OH274959   1.036   6.737   6.046  0.3771  0.3010  0.3336
17823TIP3    H174960   1.062   6.680   6.119 -0.5665  2.4672  2.4956
17823TIP3    H274961   0.940   6.732   6.045  0.2460  2.0794  0.8418
17824TIP3   OH274962   5.960   6.454   4.247  0.3151 -0.0751 -0.2862
17824TIP3    H174963   5.930   6.499   4.169  1.3673  2.1784  0.5143
17824TIP3    H274964   5.913   6.496   4.319  0.8610 -0.7159  0.4680
17825TIP3   OH274965   3.130   6.126   1.938 -0.5773 -0.5880  0.0093
17825TIP3    H174966   3.050   6.178   1.938  0.6803  1.4699  1.0673
17825TIP3    H274967   3.125   6.073   2.017 -0.0551  1.0120  1.1613
17826TIP3   OH274968   6.227   6.033   1.092  0.3254  0.1749  0.3737
17826TIP3    H174969   6.158   6.002   1.033 -0.6652 -0.7785  1.9485
17826TIP3    H274970   6.304   5.982   1.067  0.8148  1.9624 -2.0711
17827TIP3   OH274971   1.002   4.330  11.693  0.4758  0.3484  0.2568
17827TIP3    H174972   0.920   4.370  11.665 -0.7841 -2.4117 -0.2759
17827TIP3    H274973   1.026   4.270  11.623  1.2780 -1.1990  1.7809
17828TIP3   OH274974   1.352   2.793   2.287 -0.7428  0.3332  0.1129
17828TIP3    H174975   1.407   2.851   2.234 -0.4236  0.8127  0.9497
17828TIP3    H274976   1.402   2.780   2.368 -1.7897  0.6503  0.8311
17829TIP3   OH274977   4.434   6.250  13.215 -0.1640 -0.0173 -0.6886
17829TIP3    H174978   4.465   6.329  13.170 -1.8196  0.5676 -0.8528
17829TIP3    H274979   4.383   6.204  13.149  0.9484 -1.3730 -0.6554
17830TIP3   OH274980   1.031   4.994   0.043 -0.0595  0.2506 -0.1447
17830TIP3    H174981   1.015   4.966  -0.047  1.5754  0.7029 -0.6206
17830TIP3    H274982   0.976   4.937   0.097 -1.4830  0.3440 -1.4420
17831TIP3   OH274983   4.224   3.993   5.511  0.5909 -0.7753 -0.9365
17831TIP3    H174984   4.237   4.000   5.605  0.2850 -1.1802 -0.8604
17831TIP3    H274985   4.230   4.083   5.479 -0.8032 -0.4303 -0.3298
17832TIP3   OH274986   0.634   3.130   1.167  0.4587  0.1486 -0.0504
17832TIP3    H174987   0.547   3.112   1.203  0.4361 -0.4791 -0.4013
17832TIP3    H274988   0.687   3.152   1.243  0.5280 -1.6152  0.4549
17833TIP3   OH274989   0.123   4.599  10.567 -0.5345  0.1894 -0.6205
17833TIP3    H174990   0.053   4.621  10.506 -0.8301  0.4261 -0.2035
17833TIP3    H274991   0.082   4.607  10.653  0.2583  1.2595 -0.3247
17834TIP3   OH274992   0.267   3.074  12.976 -0.5265 -0.1343 -0.0136
17834TIP3    H174993   0.278   3.118  12.892 -0.1069 -1.2416 -0.5665
17834TIP3    H274994   0.326   3.119  13.036 -0.1540  0.0865 -0.5434
17835TIP3   OH274995   1.778   3.235  14.846  0.4268 -0.1473 -0.1287
17835TIP3    H174996   1.779   3.166  14.913  2.0047 -0.7170 -0.6841
17835TIP3    H274997   1.701   3.288  14.867 -0.2779 -1.5101  0.8961
17836TIP3   OH274998   3.538   6.366   2.049  0.2159  0.0297 -0.1993
17836TIP3    H174999   3.593   6.343   2.124  0.5210  1.6923  0.1295
17836TIP3    H275000   3.568   6.309   1.978  1.2464 -0.2199  0.4240
17837TIP3   OH275001   0.184   4.029  13.521 -0.2128  0.1310  0.6993
17837TIP3    H175002   0.238   4.091  13.472 -1.5417  0.3426 -0.5599
17837TIP3    H275003   0.171   3.956  13.461 -1.3997  0.1422  0.9187
17838TIP3   OH275004   0.975   5.758   5.385 -0.2799  0.4401  0.0981
17838TIP3    H175005   1.015   5.744   5.470  0.2893  2.4202  0.2205
17838TIP3    H275006   1.027   5.704   5.325 -0.7071 -0.9879  0.9799
17839TIP3   OH275007   1.347   2.129  14.828  0.4590 -0.8942  0.0369
17839TIP3    H175008   1.294   2.206  14.849  1.3757 -0.1555 -0.2760
17839TIP3    H275009   1.376   2.096  14.913  0.0578 -0.9127  0.1716
17840TIP3   OH275010   4.563   6.226  14.749 -0.0697  0.6313  1.1819
17840TIP3    H175011   4.650   6.199  14.778  0.2688  2.3335  1.8337
17840TIP3    H275012   4.532   6.153  14.694  1.5704 -0.1810  1.2912
17841TIP3   OH275013   1.527   4.215   2.568 -0.2101 -0.7524  0.4517
17841TIP3    H175014   1.540   4.231   2.474  1.2571 -1.1988  0.5544
17841TIP3    H275015   1.442   4.253   2.587 -0.9174 -1.3575 -1.2422
17842TIP3   OH275016   2.423   6.643   0.484  0.1636 -0.4389 -0.1738
17842TIP3    H175017   2.442   6.698   0.560 -2.8001 -1.7914  1.7158
17842TIP3    H275018   2.490   6.574   0.487  0.0982 -0.4771  1.2440
17843TIP3   OH275019   1.065   5.128  15.733 -0.1728  0.1129  0.0131
17843TIP3    H175020   0.982   5.142  15.688  0.2289 -0.3794 -0.9129
17843TIP3    H275021   1.050   5.161  15.822 -0.9984  1.0589 -0.4579
17844TIP3   OH275022   5.412   3.970  11.515  0.4195  0.1219 -0.7328
17844TIP3    H175023   5.347   3.988  11.447 -0.5713 -0.6977 -0.0379
17844TIP3    H275024   5.429   4.056  11.555 -1.3268  0.1648 -0.0000
17845TIP3   OH275025   0.854   4.056   3.728 -0.3722 -1.0923  0.7606
17845TIP3    H175026   0.861   4.121   3.799  0.9547  0.5500 -0.7769
17845TIP3    H275027   0.766   4.068   3.693  0.5932  1.7271 -1.0554
17846TIP3   OH275028   3.641   3.766   3.991 -0.6967 -0.4366  0.5341
17846TIP3    H175029   3.570   3.790   3.930  0.9342 -0.1351 -1.3327
17846TIP3    H275030   3.697   3.707   3.941  2.5367  2.3936  0.4581
17847TIP3   OH275031   3.497   5.119   4.382  0.2632  0.5847 -0.3158
17847TIP3    H175032   3.527   5.156   4.465 -0.9819  0.6583  0.1122
17847TIP3    H275033   3.578   5.102   4.333  0.9838  1.0556  0.6819
17848TIP3   OH275034   4.384   4.026  14.681  0.7706  0.4377 -0.2903
17848TIP3    H175035   4.468   4.071  14.666  0.9499 -0.0171 -0.6885
17848TIP3    H275036   4.318   4.092  14.662  1.0386  0.8146  0.0594
17849TIP3   OH275037   2.900   6.558  10.454  0.3258 -0.1875 -0.5118
17849TIP3    H175038   2.964   6.521  10.392  0.2343  0.6654 -1.1529
17849TIP3    H275039   2.953   6.586  10.528  0.4796 -0.9545 -0.3235
17850TIP3   OH275040   0.139   4.278  10.360  0.4178 -0.7653 -0.2514
17850TIP3    H175041   0.121   4.336  10.287 -0.4213 -1.5270 -0.6713
17850TIP3    H275042   0.235   4.276  10.367  0.4818 -0.2096 -0.9242
17851TIP3   OH275043   5.436   3.294  11.849 -0.7577  0.1682  0.3731
17851TIP3    H175044   5.453   3.369  11.793 -1.6086  0.8766  1.0347
17851TIP3    H275045   5.354   3.257  11.816  0.0871 -1.0196 -0.4964
17852TIP3   OH275046   6.030   2.661  12.228  0.6049 -0.1584  0.4496
17852TIP3    H175047   6.114   2.705  12.214 -0.6512  2.4563  0.4939
17852TIP3    H275048   6.044   2.606  12.305  2.6709 -1.0078 -0.4596
17853TIP3   OH275049   1.473   1.885  12.253  0.0683 -0.7426 -0.3461
17853TIP3    H175050   1.408   1.842  12.198  0.8105 -1.5082 -0.6451
17853TIP3    H275051   1.435   1.885  12.341 -0.8594 -0.0601 -0.7327
17854TIP3   OH275052   4.842   3.211  16.852  0.2191 -0.0705 -0.3521
17854TIP3    H175053   4.839   3.174  16.763 -0.6444 -0.5231 -0.1470
17854TIP3    H275054   4.829   3.136  16.910  2.6151 -0.0995  0.2804
17855TIP3   OH275055   4.130   1.221   5.823 -0.1046  0.5766 -0.2034
17855TIP3    H175056   4.190   1.277   5.872  0.1230 -0.8844  1.2980
17855TIP3    H275057   4.051   1.217   5.877  0.1948 -1.1622  0.1748
17856TIP3   OH275058   1.610   1.979   5.965  0.0339  0.2930 -0.4263
17856TIP3    H175059   1.541   1.947   6.024 -0.1045  1.4868  0.0918
17856TIP3    H275060   1.605   2.074   5.971  2.5567  0.4529  0.6369
17857TIP3   OH275061   3.383   3.949  11.714  0.5279  0.3402  0.5923
17857TIP3    H175062   3.451   3.985  11.657  0.8922 -0.6925  0.3528
17857TIP3    H275063   3.301   3.981  11.677  0.8246  0.6815  0.2255
17858TIP3   OH275064   3.013   3.642   2.521 -0.1129  0.2686 -0.2317
17858TIP3    H175065   2.966   3.683   2.448  1.0033 -0.9938 -1.7253
17858TIP3    H275066   3.047   3.560   2.485  0.8635 -0.1841  1.5921
17859TIP3   OH275067   5.731   3.566   5.265 -0.1804 -0.4245  0.5896
17859TIP3    H175068   5.652   3.566   5.320 -1.8360  1.5738 -1.6360
17859TIP3    H275069   5.738   3.476   5.234 -1.8446 -0.5465  0.4941
17860TIP3   OH275070   5.375   3.881   3.667  0.1584 -0.1086  0.1805
17860TIP3    H175071   5.383   3.793   3.703 -1.7155 -0.9574 -1.3135
17860TIP3    H275072   5.328   3.869   3.584 -1.5871  2.4720  0.6896
17861TIP3   OH275073   5.350   3.838   1.011 -0.0912  0.1953 -0.1707
17861TIP3    H175074   5.283   3.773   0.990 -2.2596  1.9658  0.8370
17861TIP3    H275075   5.423   3.816   0.953 -0.6013 -3.1985  0.2523
17862TIP3   OH275076   0.233   5.059  12.195  0.3470  0.0662 -0.0380
17862TIP3    H175077   0.260   5.150  12.212 -0.0209  0.3217 -0.7811
17862TIP3    H275078   0.156   5.047  12.250  0.2143  0.3123 -0.1649
17863TIP3   OH275079   4.193   3.857  10.853 -0.0032 -0.3278  0.8806
17863TIP3    H175080   4.162   3.923  10.791 -0.1616  0.1895  1.5026
17863TIP3    H275081   4.287   3.871  10.857 -0.2421  1.1125  2.4080
17864TIP3   OH275082   1.247   2.360  17.029  0.1894 -0.9214  0.0120
17864TIP3    H175083   1.226   2.390  16.940  2.4756 -0.7680 -0.5437
17864TIP3    H275084   1.260   2.265  17.019 -3.4023 -1.6796  1.0446
17865TIP3   OH275085   4.385   3.165   5.768 -0.2068  0.0240  0.4083
17865TIP3    H175086   4.326   3.182   5.695 -0.1095 -0.1365  0.2912
17865TIP3    H275087   4.424   3.251   5.788  1.4992 -0.3043 -1.2303
17866TIP3   OH275088   4.684   0.970   5.234  0.6752  0.0067 -0.4036
17866TIP3    H175089   4.626   1.046   5.230  1.2727  0.6845  2.2074
17866TIP3    H275090   4.624   0.895   5.242  0.1100  0.5987  1.1695
17867TIP3   OH275091   5.255   4.156   6.262  0.1046  0.3727  0.1518
17867TIP3    H175092   5.324   4.222   6.271  0.7170 -0.1753 -0.4680
17867TIP3    H275093   5.286   4.082   6.314 -0.2617  0.3047  0.2797
17868TIP3   OH275094   0.993   1.058   5.850  0.0728  0.4127  0.1368
17868TIP3    H175095   0.970   1.043   5.942 -0.2994  0.2938  0.0275
17868TIP3    H275096   0.914   1.033   5.801  0.3381  0.2757 -0.2288
17869TIP3   OH275097   0.420   0.646   3.707 -0.3385 -0.1584  0.1436
17869TIP3    H175098   0.500   0.647   3.656  0.5159 -0.4140  1.4340
17869TIP3    H275099   0.448   0.626   3.796 -1.8183 -0.1039  0.6563
17870TIP3   OH275100   3.545   2.934  12.530  0.1117  0.0954 -0.1785
17870TIP3    H175101   3.467   2.981  12.499  0.4323  0.1441 -0.9232
17870TIP3    H275102   3.546   2.853  12.479  0.2471 -0.1579  0.2240
17871TIP3   OH275103   0.396   6.714  12.757  0.1208  0.5475  0.3547
17871TIP3    H175104   0.443   6.652  12.812 -0.4604  0.3214  0.6100
17871TIP3    H275105   0.464   6.762  12.710  0.6127 -2.2446 -2.0741
17872TIP3   OH275106   3.125   2.193  17.116  0.4519  0.4597  0.1634
17872TIP3    H175107   3.205   2.222  17.159  0.1561  0.3862  0.7799
17872TIP3    H275108   3.085   2.132  17.179  0.4654 -0.3626 -0.6039
17873TIP3   OH275109   4.679   3.182  11.151  0.0361  0.3932 -0.9141
17873TIP3    H175110   4.768   3.200  11.118  0.8020  0.4705  1.0714
17873TIP3    H275111   4.692   3.119  11.221 -1.2051  2.0688  0.9256
17874TIP3   OH275112   2.564   2.042  14.206 -0.2563  0.0288  0.3656
17874TIP3    H175113   2.495   2.104  14.230 -0.7251  0.3209 -1.5686
17874TIP3    H275114   2.580   2.058  14.113  1.8369 -0.6331  0.5592
17875TIP3   OH275115   3.639   5.116  14.430 -0.4257 -0.0050  0.9567
17875TIP3    H175116   3.547   5.094  14.444 -0.7304  0.3374 -0.4021
17875TIP3    H275117   3.651   5.113  14.335  0.9229  0.1517  1.0970
17876TIP3   OH275118   4.228   6.812  13.299  0.0024 -0.1032 -0.1119
17876TIP3    H175119   4.172   6.752  13.249 -0.3503  0.2403 -0.1313
17876TIP3    H275120   4.225   6.778  13.389  0.2337 -0.4264 -0.2245
17877TIP3   OH275121   6.298   6.191   1.618  0.5508 -0.4128 -0.0013
17877TIP3    H175122   6.352   6.249   1.565 -1.7902  3.8885  1.8118
17877TIP3    H275123   6.236   6.153   1.557 -0.2750  2.1491 -0.9012
17878TIP3   OH275124   0.666   6.362  15.955  0.5419  0.1732 -0.0589
17878TIP3    H175125   0.635   6.451  15.968 -0.2107 -0.3321  2.1318
17878TIP3    H275126   0.616   6.310  16.019  2.3147 -1.4993  0.0488
17879TIP3   OH275127   0.885   4.202   6.289  0.0080  0.2736 -0.0953
17879TIP3    H175128   0.902   4.137   6.220 -0.4334 -2.4844  2.2251
17879TIP3    H275129   0.792   4.223   6.280  0.0747  0.3654 -0.6445
17880TIP3   OH275130   0.386   5.976  16.835  0.0440 -0.3024 -0.0562
17880TIP3    H175131   0.350   5.967  16.747 -0.8964 -0.8173  0.3685
17880TIP3    H275132   0.464   5.920  16.835 -0.6009 -1.2227 -0.2230
17881TIP3   OH275133   4.732   3.795   2.641 -0.0895  0.2969 -0.1947
17881TIP3    H175134   4.746   3.789   2.735  0.4531  0.5772 -0.2511
17881TIP3    H275135   4.812   3.759   2.602  0.3192  1.5042 -0.5317
17882TIP3   OH275136   6.209   4.045   0.811  0.3293 -0.1659 -0.5580
17882TIP3    H175137   6.221   4.088   0.896 -0.9296 -1.1389  0.1587
17882TIP3    H275138   6.158   4.108   0.759  0.1595 -0.0109 -0.2057
17883TIP3   OH275139   5.559   0.208  13.797  1.1401 -0.2732  0.1708
17883TIP3    H175140   5.582   0.289  13.750 -0.7540  0.5841  0.6068
17883TIP3    H275141   5.521   0.151  13.730  2.0220 -0.6197 -0.0438
17884TIP3   OH275142   3.768   6.642   2.925  0.8745  0.0723  0.1199
17884TIP3    H175143   3.844   6.687   2.962  0.8466 -0.5840  1.0208
17884TIP3    H275144   3.805   6.585   2.857  1.2258 -0.3619  0.6583
17885TIP3   OH275145   3.500   2.682   4.389 -0.3052  0.3000 -0.2650
17885TIP3    H175146   3.443   2.636   4.328  1.1629 -1.8602 -0.1515
17885TIP3    H275147   3.588   2.669   4.353  0.5755 -0.7445  2.0714
17886TIP3   OH275148   5.381   2.291   2.605 -0.5347  0.0030 -0.0419
17886TIP3    H175149   5.329   2.226   2.557 -1.4700  0.8950 -0.2667
17886TIP3    H275150   5.335   2.374   2.591  0.2497  0.6029  0.8214
17887TIP3   OH275151   4.933   6.295   5.827 -0.1985  0.0136 -0.4206
17887TIP3    H175152   4.938   6.323   5.918  0.5094 -0.0127 -0.4417
17887TIP3    H275153   4.956   6.202   5.829 -1.2202 -0.2518 -0.5066
17888TIP3   OH275154   5.798   2.929   4.494  0.3624 -0.0177  0.3942
17888TIP3    H175155   5.866   2.979   4.449  0.1155  0.9163  1.0253
17888TIP3    H275156   5.717   2.978   4.478 -0.0157 -0.6318  0.3910
17889TIP3   OH275157   2.966   6.753  12.701  0.1556 -0.1714 -0.6160
17889TIP3    H175158   2.872   6.775  12.702 -0.0086 -0.8128  0.5083
17889TIP3    H275159   2.996   6.776  12.789  0.9523 -0.3678 -0.8337
17890TIP3   OH275160   3.767   4.270  14.483  0.2319 -0.6717 -0.2788
17890TIP3    H175161   3.691   4.218  14.460 -0.3938 -0.9008  2.0880
17890TIP3    H275162   3.755   4.291  14.576  0.7930  3.1147 -0.9117
17891TIP3   OH275163   3.677   5.678  15.797  0.1481 -0.7771 -0.3404
17891TIP3    H175164   3.736   5.679  15.872  0.2426 -0.0686 -0.4165
17891TIP3    H275165   3.590   5.677  15.835  0.1866  0.0700 -0.2057
17892TIP3   OH275166   2.550   6.425   4.407 -0.1264  0.2264  0.0721
17892TIP3    H175167   2.495   6.502   4.402 -1.2563 -0.6062 -0.7967
17892TIP3    H275168   2.592   6.419   4.321 -0.8837 -0.7011 -0.2563
17893TIP3   OH275169   0.134   2.161   3.856 -0.3141 -0.3504  0.7219
17893TIP3    H175170   0.088   2.242   3.877 -0.9900 -0.3474 -0.6277
17893TIP3    H275171   0.110   2.100   3.925  1.3060  0.9598  2.5349
17894TIP3   OH275172   5.763   5.149  17.057  0.4715 -0.0487  0.1076
17894TIP3    H175173   5.790   5.071  17.008 -1.6027 -0.4466 -0.4873
17894TIP3    H275174   5.801   5.222  17.008  0.8584 -0.5909 -0.4160
17895TIP3   OH275175   5.313   6.573   0.289  0.2600 -0.1629  0.2470
17895TIP3    H175176   5.267   6.497   0.325  0.4308  0.2419  1.3793
17895TIP3    H275177   5.405   6.554   0.303  0.3907 -0.4043 -0.8539
17896TIP3   OH275178   3.317   1.298  12.608 -0.4183 -0.4163  0.3974
17896TIP3    H175179   3.369   1.234  12.657 -0.4587 -0.6744  0.1087
17896TIP3    H275180   3.373   1.375  12.603 -0.7793 -0.0443  1.6561
17897TIP3   OH275181   5.518   5.338   1.254 -0.0765  0.0543 -0.1996
17897TIP3    H175182   5.483   5.406   1.196  1.6658  0.1521 -1.1964
17897TIP3    H275183   5.594   5.379   1.295 -1.5169  0.1728  2.6270
17898TIP3   OH275184   6.338   6.148  11.407 -0.1067  0.0714 -0.1976
17898TIP3    H175185   6.401   6.209  11.369  1.8834 -2.1905 -0.7503
17898TIP3    H275186   6.345   6.161  11.502  1.8988 -0.6973 -0.1921
17899TIP3   OH275187   6.827   1.266  16.254  0.4625 -0.1893  0.4175
17899TIP3    H175188   6.825   1.184  16.205  0.6064  0.3322 -0.4721
17899TIP3    H275189   6.787   1.330  16.195 -1.6360 -0.0166  1.9000
17900TIP3   OH275190   6.423   5.586   1.005  0.0596  0.0397 -0.3513
17900TIP3    H175191   6.491   5.525   1.032  1.6315  1.1867 -1.5055
17900TIP3    H275192   6.346   5.532   0.990  1.3798 -1.6672 -1.3133
17901TIP3   OH275193   6.490   2.722  11.740 -0.1060 -0.4358  0.1680
17901TIP3    H175194   6.574   2.693  11.704 -0.5484 -0.3868 -0.9342
17901TIP3    H275195   6.506   2.729  11.835  1.2569 -0.0064 -0.0644
17902TIP3   OH275196   0.905   5.125   1.627 -0.4143 -0.3560  0.1823
17902TIP3    H175197   0.997   5.137   1.649 -0.5870 -0.9409  1.2991
17902TIP3    H275198   0.905   5.097   1.536  0.2576  3.6886 -1.2786
17903TIP3   OH275199   5.659   2.473   3.307  0.0643  0.7319 -0.2612
17903TIP3    H175200   5.611   2.430   3.236 -1.5277  0.4169  0.9465
17903TIP3    H275201   5.595   2.532   3.347  1.6430  2.8251 -0.6281
17904TIP3   OH275202   1.850   3.529   3.329  0.2584 -0.1414 -0.2894
17904TIP3    H175203   1.774   3.578   3.299  0.4252  0.9724  1.0013
17904TIP3    H275204   1.815   3.441   3.348 -0.0884 -0.5068 -2.3829
17905TIP3   OH275205   3.764   6.219  16.421 -0.0140  0.6934 -0.1134
17905TIP3    H175206   3.729   6.161  16.488  0.0947 -1.0662 -1.5240
17905TIP3    H275207   3.686   6.259  16.381 -0.3466 -1.2726 -1.5403
17906TIP3   OH275208   2.186   4.475  12.068  0.3095  0.3195 -0.7392
17906TIP3    H175209   2.248   4.532  12.023 -0.9734  1.3036 -1.3353
17906TIP3    H275210   2.162   4.409  12.003  0.9500 -0.2625 -0.4036
17907TIP3   OH275211   6.579   3.229  13.445  0.0640 -0.2886 -0.0882
17907TIP3    H175212   6.590   3.307  13.500  2.7477 -0.4736 -0.2325
17907TIP3    H275213   6.588   3.155  13.505 -3.4555 -0.6119  0.2223
17908TIP3   OH275214   3.654   3.341   0.026  0.8104  0.0945 -0.4224
17908TIP3    H175215   3.649   3.279   0.099  2.2585  0.5205  0.0858
17908TIP3    H275216   3.590   3.409   0.047 -0.5224 -1.0033 -0.7945
17909TIP3   OH275217   3.248   0.247   2.711  0.3812  0.0134 -0.2170
17909TIP3    H175218   3.221   0.207   2.793  0.8949  1.2659  0.5833
17909TIP3    H275219   3.317   0.307   2.735  3.1399 -2.1732 -2.0241
17910TIP3   OH275220   2.563   5.284   4.607  0.0017  0.3267 -0.4835
17910TIP3    H175221   2.562   5.190   4.588  0.7282  0.1739  0.1934
17910TIP3    H275222   2.491   5.319   4.556 -1.3108 -0.8388  0.5040
17911TIP3   OH275223   0.366   5.084   2.572 -0.1545  0.2498 -0.1239
17911TIP3    H175224   0.310   5.034   2.513  1.0839 -0.1910 -0.9912
17911TIP3    H275225   0.358   5.174   2.542  0.3164  0.0555 -0.8814
17912TIP3   OH275226   6.189   2.390   3.013 -0.3115 -0.0156  0.2366
17912TIP3    H175227   6.237   2.359   3.090 -0.0810 -0.1517  0.0411
17912TIP3    H275228   6.101   2.409   3.045 -0.2154 -0.0690  0.5342
17913TIP3   OH275229   3.775   5.943   4.471  0.3173  0.2067  0.0536
17913TIP3    H175230   3.717   5.983   4.407 -0.4956  0.9266  1.2000
17913TIP3    H275231   3.771   5.849   4.453  1.0525  0.4769 -1.6955
17914TIP3   OH275232   5.018   0.750  15.497  0.0408 -0.2187 -0.1374
17914TIP3    H175233   5.050   0.661  15.487  1.3492  0.1346  0.6629
17914TIP3    H275234   4.946   0.742  15.561  0.0948 -0.7098 -0.1332
17915TIP3   OH275235   1.950   3.843   0.134  0.2854  0.2020 -0.0708
17915TIP3    H175236   2.019   3.790   0.094 -1.8989 -1.0720 -2.4743
17915TIP3    H275237   1.910   3.890   0.061 -1.5114  0.7430  1.1726
17916TIP3   OH275238   4.558   4.048   3.186  0.3677 -0.1331  0.0350
17916TIP3    H175239   4.618   3.981   3.219 -0.9258 -1.8716 -0.9957
17916TIP3    H275240   4.607   4.091   3.116  1.6268  0.8459  1.4487
17917TIP3   OH275241   2.691   2.118   3.114  0.1727  0.0907 -0.1041
17917TIP3    H175242   2.626   2.130   3.183  0.2673 -2.2575  0.4866
17917TIP3    H275243   2.756   2.058   3.152  1.0169 -0.0827 -1.7232
17918TIP3   OH275244   2.281   6.077  11.258  0.2379 -0.4842  0.4589
17918TIP3    H175245   2.252   6.103  11.346  0.4031 -1.3850  0.7869
17918TIP3    H275246   2.226   6.128  11.199 -0.9280 -1.0039  1.0747
17919TIP3   OH275247   0.170   2.020   4.843  0.7108 -0.2820 -0.8199
17919TIP3    H175248   0.104   2.082   4.873  0.3818 -0.9881 -0.0600
17919TIP3    H275249   0.198   2.054   4.758  1.0597  1.2865 -0.1007
17920TIP3   OH275250   1.748   3.096   3.662  0.4531 -0.7543 -0.0799
17920TIP3    H175251   1.797   3.079   3.581  1.1202 -1.8115  0.5226
17920TIP3    H275252   1.658   3.108   3.632  0.9501  0.5408 -1.1343
17921TIP3   OH275253   2.454   5.224   5.694 -0.2179 -0.5647  0.4282
17921TIP3    H175254   2.515   5.152   5.708  0.4216  0.1907  1.7359
17921TIP3    H275255   2.422   5.246   5.781  0.0735  1.1155  0.1551
17922TIP3   OH275256   0.054   2.914  13.264  0.7657  0.3921 -0.1678
17922TIP3    H175257   0.001   2.990  13.285 -0.1317  0.4045 -2.2255
17922TIP3    H275258   0.143   2.948  13.256  0.9880  0.5523  2.2909
17923TIP3   OH275259   5.743   3.115   2.937  1.0127 -0.5146  0.3672
17923TIP3    H175260   5.675   3.145   2.997  0.9594  1.3847 -0.5490
17923TIP3    H275261   5.819   3.098   2.994  0.5988  0.0393  1.1017
17924TIP3   OH275262   4.041   5.055   1.930 -0.1879  0.2452  0.2935
17924TIP3    H175263   4.110   5.104   1.975  0.0692 -0.2339  0.4253
17924TIP3    H275264   3.972   5.120   1.915 -0.5259  0.2910  1.9000
17925TIP3   OH275265   6.295   2.208   3.585 -0.3376  0.4672  0.3246
17925TIP3    H175266   6.264   2.292   3.619 -3.6394 -1.0354  1.4610
17925TIP3    H275267   6.343   2.169   3.658 -2.8852 -0.5131  1.6047
17926TIP3   OH275268   4.805   0.037  13.092  0.5115  0.7869 -0.2592
17926TIP3    H175269   4.756   0.113  13.064  1.3260  1.4083 -0.0558
17926TIP3    H275270   4.762  -0.037  13.050 -1.2159  1.1803  0.7227
17927TIP3   OH275271   4.211   4.971  11.395 -0.1369 -0.3195  0.4429
17927TIP3    H175272   4.151   5.044  11.386  0.7099  0.2385 -1.1238
17927TIP3    H275273   4.162   4.895  11.363 -0.5907 -0.2260  0.8948
17928TIP3   OH275274   2.611   3.911   2.885 -0.0571 -0.0487 -0.0881
17928TIP3    H175275   2.611   4.003   2.912  2.6696 -0.2698  0.9639
17928TIP3    H275276   2.693   3.876   2.919 -0.7799 -2.7698 -0.9052
17929TIP3   OH275277   3.197   6.276   5.458  1.0386  0.1475  0.4860
17929TIP3    H175278   3.188   6.270   5.553 -1.5397  1.5441  0.4117
17929TIP3    H275279   3.265   6.343   5.445  1.0142  0.3504  1.3340
17930TIP3   OH275280   2.947   4.798  13.437  0.2816  0.2484  0.4047
17930TIP3    H175281   3.030   4.806  13.389  0.3730  0.5323  0.6030
17930TIP3    H275282   2.961   4.850  13.516 -0.1511  0.4412  0.3561
17931TIP3   OH275283   1.326   1.908   5.656  0.6915  0.3934  0.7609
17931TIP3    H175284   1.411   1.868   5.638 -0.2245 -0.6163 -1.7505
17931TIP3    H275285   1.324   1.985   5.600  1.0118  2.1094  2.9487
17932TIP3   OH275286   5.113   3.031   6.454  0.7707 -0.1561 -0.0209
17932TIP3    H175287   5.077   2.967   6.393  0.3704  1.2529 -1.3241
17932TIP3    H275288   5.131   2.981   6.534 -0.7232 -1.6086 -0.5481
17933TIP3   OH275289   0.605   3.209  13.923  0.3808  0.0598  0.0524
17933TIP3    H175290   0.558   3.134  13.887  0.6215 -0.4684  0.8257
17933TIP3    H275291   0.681   3.171  13.968 -0.4051  0.6124  1.9187
17934TIP3   OH275292   4.799   2.575   4.387  0.4158 -0.2250  0.1866
17934TIP3    H175293   4.730   2.636   4.360  0.9414 -0.6339 -2.3159
17934TIP3    H275294   4.788   2.500   4.329 -0.0887 -2.5292  3.0420
17935TIP3   OH275295   2.856   6.553  15.275  0.7825 -0.5334  0.4815
17935TIP3    H175296   2.886   6.617  15.339 -0.4480 -0.7646  1.3300
17935TIP3    H275297   2.931   6.497  15.259  1.6640  0.6640  0.2761
17936TIP3   OH275298   2.156   5.345  14.155  0.3685 -0.2162 -0.4255
17936TIP3    H175299   2.208   5.286  14.209 -0.6388 -1.0080 -0.2850
17936TIP3    H275300   2.211   5.364  14.079  0.8457 -1.0406 -0.2939
17937TIP3   OH275301   3.879   2.893   2.699 -0.1300  0.1034 -0.0861
17937TIP3    H175302   3.828   2.971   2.724  0.2086  0.2446  0.1781
17937TIP3    H275303   3.898   2.849   2.783 -0.6867 -0.4967 -0.2707
17938TIP3   OH275304   0.240   2.817  12.517 -0.1506  0.1615  0.1383
17938TIP3    H175305   0.153   2.847  12.494  0.1370  2.4995  1.7161
17938TIP3    H275306   0.289   2.816  12.435 -2.2255 -3.9366 -1.3263
17939TIP3   OH275307   5.048   4.725   3.606  0.5661  0.1104 -0.6005
17939TIP3    H175308   5.061   4.636   3.640  0.3666 -0.6422 -2.3828
17939TIP3    H275309   5.128   4.772   3.630 -0.1154  0.0565  2.0283
17940TIP3   OH275310   4.815   5.797  15.940  0.4013  0.2683  0.4249
17940TIP3    H175311   4.898   5.749  15.942 -0.5243 -1.4533 -0.5962
17940TIP3    H275312   4.789   5.803  16.032  0.7156 -0.9045  0.6022
17941TIP3   OH275313   1.993   1.906  16.906  0.2999 -0.3483  0.3186
17941TIP3    H175314   2.070   1.951  16.942  0.1365  0.1266  0.0935
17941TIP3    H275315   1.979   1.949  16.821 -0.0248 -0.6461  0.2213
17942TIP3   OH275316   4.066   3.054  15.833  0.3158  0.1964  0.6213
17942TIP3    H175317   3.976   3.022  15.827  0.3666  0.1869 -0.1019
17942TIP3    H275318   4.058   3.139  15.876 -0.1245  0.5766 -0.1999
17943TIP3   OH275319   4.028   4.770   6.248  0.6760 -0.2775  0.2098
17943TIP3    H175320   4.101   4.798   6.303 -0.1672 -0.4655  1.4514
17943TIP3    H275321   3.957   4.750   6.309  0.3257 -2.3963 -0.7842
17944TIP3   OH275322   5.445   4.715  11.940  0.2417  0.1910  0.0466
17944TIP3    H175323   5.540   4.726  11.947  0.6687 -2.8725  0.3331
17944TIP3    H275324   5.427   4.718  11.846  0.6794  0.3837 -0.0336
17945TIP3   OH275325   3.118   0.476   5.223 -0.0123 -0.3535 -0.1647
17945TIP3    H175326   3.044   0.517   5.267 -0.0980  1.3965 -1.8063
17945TIP3    H275327   3.099   0.383   5.225 -1.8935  0.0032  0.1161
17946TIP3   OH275328   3.978   0.175   1.867 -0.6412 -0.0600 -0.3268
17946TIP3    H175329   3.988   0.264   1.832 -3.8041  0.5419 -0.0025
17946TIP3    H275330   3.922   0.131   1.803 -0.0143 -1.5069  0.0797
17947TIP3   OH275331   0.190   0.168   3.791  0.0948  0.5271 -0.1078
17947TIP3    H175332   0.192   0.179   3.887  1.2314 -2.1900  0.2542
17947TIP3    H275333   0.280   0.187   3.763  0.2543 -0.5682 -0.3629
17948TIP3   OH275334   3.928   3.637  17.043 -0.2985 -0.6198  0.2046
17948TIP3    H175335   3.883   3.616  16.961 -0.5973  0.7590 -0.0103
17948TIP3    H275336   4.013   3.594  17.035 -0.2265 -0.3116 -0.9528
17949TIP3   OH275337   0.507   6.663   6.457 -0.1796 -0.2754  0.2030
17949TIP3    H175338   0.492   6.574   6.490 -2.4999 -0.2018 -0.4321
17949TIP3    H275339   0.521   6.716   6.536 -1.2642 -0.8263  0.7916
17950TIP3   OH275340   3.966   0.018  15.866 -0.1982  0.5061 -0.2328
17950TIP3    H175341   3.887   0.012  15.919  0.8490  0.6972  1.3930
17950TIP3    H275342   3.971   0.110  15.840  0.5426  0.9350  1.3582
17951TIP3   OH275343   2.160   3.327  12.927  0.2877 -0.4504  0.3660
17951TIP3    H175344   2.219   3.301  12.998  0.4074  1.2999  0.9687
17951TIP3    H275345   2.184   3.271  12.854  0.4123 -2.0661  1.5808
17952TIP3   OH275346   2.473   2.903  11.996 -0.4180 -0.5987  0.6755
17952TIP3    H175347   2.563   2.918  12.025 -0.3549 -0.3315  0.3546
17952TIP3    H275348   2.458   2.972  11.931 -0.9682 -0.4413  0.9749
17953TIP3   OH275349   6.649   4.161   1.071  0.0616  0.1996 -0.5625
17953TIP3    H175350   6.554   4.154   1.059 -0.1101  0.0076  0.8033
17953TIP3    H275351   6.666   4.255   1.077 -0.2381  0.1835  0.6277
17954TIP3   OH275352   5.841   4.595   5.151 -0.2969  0.4356 -0.2809
17954TIP3    H175353   5.872   4.643   5.228 -0.7060  0.4198 -0.1003
17954TIP3    H275354   5.802   4.662   5.095  1.7531  0.7429 -1.4004
17955TIP3   OH275355   0.541   1.892  15.260  0.1321  0.1755  0.1597
17955TIP3    H175356   0.605   1.949  15.218  0.2637  0.8341  1.2251
17955TIP3    H275357   0.583   1.806  15.261  0.2014  0.1797 -0.8544
17956TIP3   OH275358   4.558   5.311  13.552 -0.2153  0.3702 -0.5674
17956TIP3    H175359   4.586   5.220  13.557  1.0470  0.8114  2.5513
17956TIP3    H275360   4.462   5.306  13.544 -0.1963 -1.2489 -0.1549
17957TIP3   OH275361   1.160   3.051   5.380  0.0442  0.2545 -0.3771
17957TIP3    H175362   1.186   2.965   5.412  0.5965  1.1172  1.6683
17957TIP3    H275363   1.136   3.099   5.459 -1.6407  1.5416 -1.6022
17958TIP3   OH275364   6.662   0.314   2.938 -0.1264  0.0922  0.4872
17958TIP3    H175365   6.575   0.294   2.974 -1.2461 -1.0932 -2.5596
17958TIP3    H275366   6.685   0.398   2.977 -1.9846 -0.2135  2.4609
17959TIP3   OH275367   6.052   3.171   5.550 -0.0060 -0.4916 -0.8398
17959TIP3    H175368   5.988   3.099   5.551  1.2166 -1.6225 -1.0303
17959TIP3    H275369   6.026   3.224   5.475 -1.6263 -0.0575 -0.0074
17960TIP3   OH275370   6.084   4.971   2.421 -0.2279 -0.6356  0.4192
17960TIP3    H175371   6.177   4.978   2.402 -0.5588  1.0864 -0.8417
17960TIP3    H275372   6.076   4.894   2.477  1.8091 -1.4598 -0.3382
17961TIP3   OH275373   1.855   3.151   2.278  0.0355  0.6223 -0.5078
17961TIP3    H175374   1.795   3.201   2.222 -0.7746 -2.4165 -2.6053
17961TIP3    H275375   1.801   3.123   2.352 -0.6918 -0.6367 -1.4931
17962TIP3   OH275376   6.406   6.460   2.260  0.1441 -0.8749 -0.6461
17962TIP3    H175377   6.472   6.487   2.323  0.9014 -4.0269  0.0572
17962TIP3    H275378   6.324   6.497   2.294  0.9770 -0.0317  0.5231
17963TIP3   OH275379   3.562   6.249   2.537  0.2294  0.3616  0.1200
17963TIP3    H175380   3.552   6.228   2.630 -0.2217 -0.5406 -0.1132
17963TIP3    H275381   3.593   6.167   2.498 -2.0730 -0.0886 -0.9251
17964TIP3   OH275382   2.883   3.627  10.675  0.1814 -0.2406 -0.2658
17964TIP3    H175383   2.891   3.545  10.626 -2.4858 -0.9247  0.3164
17964TIP3    H275384   2.841   3.688  10.613  0.4051  0.1128 -0.0748
17965TIP3   OH275385   5.204   5.918  13.774  0.0295  0.6406  0.2986
17965TIP3    H175386   5.195   5.995  13.718  2.8944  0.7448 -0.1333
17965TIP3    H275387   5.289   5.881  13.752 -1.1665 -2.6339  0.5662
17966TIP3   OH275388   1.299   4.733  12.514  0.8290 -0.0594  0.3094
17966TIP3    H175389   1.256   4.711  12.431  0.4520  2.7480 -0.3620
17966TIP3    H275390   1.388   4.701  12.504  0.1268 -2.0438 -0.0836
17967TIP3   OH275391   2.865   0.615  13.423 -0.3358  0.4856  0.7029
17967TIP3    H175392   2.868   0.633  13.517 -0.0749 -1.2761  1.0693
17967TIP3    H275393   2.793   0.668  13.391 -1.2641  0.1516  2.1417
17968TIP3   OH275394   2.370   4.670   0.526 -0.0256  0.7217  0.6952
17968TIP3    H175395   2.414   4.753   0.506  0.4423  0.5099  0.8177
17968TIP3    H275396   2.382   4.658   0.620  2.0725 -0.6662  0.3185
17969TIP3   OH275397   1.003   1.743  16.466  0.4399  0.4574  0.8038
17969TIP3    H175398   0.944   1.717  16.537 -1.2485  0.0536 -0.6607
17969TIP3    H275399   0.958   1.816  16.424  1.2762  0.5227  0.0040
17970TIP3   OH275400   1.431   2.918  12.142 -0.5826 -0.8715 -0.4284
17970TIP3    H175401   1.352   2.881  12.180  0.0029 -1.4855  0.2359
17970TIP3    H275402   1.434   3.008  12.174 -0.0330 -1.4176  1.1334
17971TIP3   OH275403   6.343   1.862   5.392 -0.7972 -0.0292 -0.0025
17971TIP3    H175404   6.302   1.930   5.445  0.5244 -0.1778  1.2864
17971TIP3    H275405   6.393   1.910   5.326  2.1463  0.4970  2.3804
17972TIP3   OH275406   5.489   0.555   0.669 -0.3323  0.1687 -0.7554
17972TIP3    H175407   5.545   0.632   0.658  1.5758 -0.8466  1.1734
17972TIP3    H275408   5.400   0.590   0.668  0.3819  2.1167 -1.8601
17973TIP3   OH275409   0.942   2.205   0.184  0.3034 -0.3694  0.0430
17973TIP3    H175410   0.940   2.300   0.196  1.7446 -0.3713  0.4855
17973TIP3    H275411   0.938   2.192   0.090  0.2388  0.1322 -0.0251
17974TIP3   OH275412   0.128   4.002   0.333 -0.4202  0.3390  0.2987
17974TIP3    H175413   0.034   3.987   0.320  0.1312 -1.3012 -2.9606
17974TIP3    H275414   0.166   3.915   0.339  1.0605  0.9122 -0.2091
17975TIP3   OH275415   5.921   0.299   4.574 -0.0311 -0.1455 -0.3903
17975TIP3    H175416   5.970   0.224   4.608  1.0202  0.1414 -1.2074
17975TIP3    H275417   5.957   0.374   4.622 -1.3007 -0.1669  0.6540
17976TIP3   OH275418   5.945   3.901   1.393 -0.6748  0.0837 -0.0138
17976TIP3    H175419   5.881   3.877   1.460 -1.2326 -1.5138 -1.0534
17976TIP3    H275420   5.898   3.961   1.335 -0.9392 -0.3155 -0.2220
17977TIP3   OH275421   2.788   1.276   3.278  0.3608 -0.1737  0.6151
17977TIP3    H175422   2.868   1.286   3.330 -0.9363 -2.3744  3.2628
17977TIP3    H275423   2.775   1.181   3.272 -1.6114  0.1127 -0.4910
17978TIP3   OH275424   1.746   3.536  11.878  0.3740  0.5308 -0.0181
17978TIP3    H175425   1.830   3.532  11.833 -0.1090 -1.3806 -0.8426
17978TIP3    H275426   1.701   3.610  11.838  0.9055  0.3777 -0.9233
17979TIP3   OH275427   3.420   0.564  15.417  0.1707 -0.8163 -0.3435
17979TIP3    H175428   3.486   0.629  15.394  0.8914 -1.8498 -1.2864
17979TIP3    H275429   3.336   0.604  15.393  0.6250 -0.3367 -1.1531
17980TIP3   OH275430   4.412   0.456  12.887  0.3222  0.0821 -0.0697
17980TIP3    H175431   4.350   0.481  12.956  1.2039  0.2011  0.7079
17980TIP3    H275432   4.387   0.367  12.863 -1.4639  0.8460 -1.2812
17981TIP3   OH275433   4.428   2.475   6.254  0.4892  0.1618  0.8482
17981TIP3    H175434   4.375   2.399   6.232  0.2536 -0.4811  3.2947
17981TIP3    H275435   4.517   2.451   6.230 -0.1032  0.9508 -2.5862
17982TIP3   OH275436   1.484   1.677  14.996 -0.6999  0.2045 -0.1828
17982TIP3    H175437   1.477   1.728  14.916 -3.9229 -0.9180 -0.7302
17982TIP3    H275438   1.394   1.652  15.017  0.2122 -0.9208  2.8995
17983TIP3   OH275439   0.189   0.431  14.493 -0.1555  0.0974 -0.0089
17983TIP3    H175440   0.155   0.461  14.577 -1.8272 -2.0817  0.2018
17983TIP3    H275441   0.111   0.408  14.443  0.8484  0.4618 -1.8375
17984TIP3   OH275442   3.306   4.756  14.873  0.0127  0.8355  0.2081
17984TIP3    H175443   3.275   4.668  14.853 -0.2203  0.6488  1.3174
17984TIP3    H275444   3.285   4.808  14.795  1.1148 -0.3078 -0.9027
17985TIP3   OH275445   3.507   4.182  14.405  0.1575  0.3341 -0.2591
17985TIP3    H175446   3.477   4.160  14.316 -0.2160  0.2120 -0.1033
17985TIP3    H275447   3.428   4.208  14.452  0.3022  0.0648  0.1399
17986TIP3   OH275448   6.643   3.009  11.748  0.1950 -0.0108 -0.4628
17986TIP3    H175449   6.552   3.026  11.772  0.1068  0.5541 -1.1757
17986TIP3    H275450   6.641   3.003  11.653  0.9990  0.5443 -0.5143
17987TIP3   OH275451   6.709   1.045  16.882  0.3914 -0.3974 -0.2842
17987TIP3    H175452   6.756   1.011  16.805  0.2292 -0.9012 -0.1643
17987TIP3    H275453   6.700   0.970  16.940 -0.0887 -0.1761 -0.0650
17988TIP3   OH275454   5.582   0.785  14.442  0.2669 -0.3139 -0.1328
17988TIP3    H175455   5.581   0.723  14.369  1.6263  1.0532 -1.3932
17988TIP3    H275456   5.539   0.863  14.407  0.8570  0.3385  0.5751
17989TIP3   OH275457   2.084   5.601   2.112 -0.1190 -0.0178  0.4752
17989TIP3    H175458   2.096   5.696   2.113  0.6805 -0.0470 -1.3428
17989TIP3    H275459   2.014   5.584   2.174 -0.2618  1.7627  0.8347
17990TIP3   OH275460   1.796   1.545  14.999 -0.3443 -0.0491  0.0641
17990TIP3    H175461   1.779   1.456  14.967 -0.1377 -0.1629  0.2651
17990TIP3    H275462   1.889   1.559  14.983 -0.5149  0.3839 -0.5774
17991TIP3   OH275463   3.933   1.443  15.299 -0.3277  0.0504  1.0981
17991TIP3    H175464   3.842   1.467  15.316 -0.5418 -1.6842  2.6558
17991TIP3    H275465   3.984   1.504  15.352 -0.7096 -0.5134  2.1504
17992TIP3   OH275466   2.970   0.978  16.243 -0.3445  0.2883 -0.3255
17992TIP3    H175467   3.041   0.969  16.307 -1.2901  0.6065  0.8050
17992TIP3    H275468   2.890   0.978  16.295 -1.1756  0.2763 -1.5450
17993TIP3   OH275469   0.893   0.493   3.998 -0.5086 -0.0258 -0.1744
17993TIP3    H175470   0.950   0.440   4.054 -0.2468 -0.0180 -0.4360
17993TIP3    H275471   0.804   0.463   4.020 -0.4772  0.5767  0.8808
17994TIP3   OH275472   3.220   6.277  14.271 -0.6166  0.6928  0.4513
17994TIP3    H175473   3.290   6.337  14.247  0.9000 -1.9384 -2.3913
17994TIP3    H275474   3.264   6.194  14.290 -2.8467 -1.0090 -1.2147
17995TIP3   OH275475   1.483   6.352  15.826  0.1246  0.3640  0.2698
17995TIP3    H175476   1.417   6.313  15.769  0.6585 -0.2855  0.0856
17995TIP3    H275477   1.475   6.447  15.812  1.0112  0.1878 -1.7682
17996TIP3   OH275478   4.018   4.003  11.015 -0.5245 -0.3049 -0.3623
17996TIP3    H175479   4.058   4.050  11.088  0.0217 -0.9267 -0.2565
17996TIP3    H275480   4.072   4.026  10.940 -1.1084  0.3646 -0.5966
17997TIP3   OH275481   4.086   0.998   0.314  0.1049 -0.7291 -0.3844
17997TIP3    H175482   4.067   1.092   0.312 -0.0454 -0.7225  0.7815
17997TIP3    H275483   4.055   0.969   0.400 -0.1264 -1.9107 -0.8515
17998TIP3   OH275484   5.865   0.482  16.687 -0.2630  0.2931 -0.4250
17998TIP3    H175485   5.862   0.409  16.748  1.1321 -0.5645 -1.3210
17998TIP3    H275486   5.781   0.527  16.698 -0.3450 -0.2769  1.5375
17999TIP3   OH275487   0.519   0.240   1.872  0.1761 -0.1285  0.0907
17999TIP3    H175488   0.455   0.245   1.943 -0.5749 -0.0474 -0.5709
17999TIP3    H275489   0.584   0.177   1.903  0.0008  0.0907  0.9465
18000TIP3   OH275490   1.949   1.189  16.714 -0.2981 -0.5700 -0.5379
18000TIP3    H175491   1.919   1.206  16.624  0.2184  0.6943 -0.4886
18000TIP3    H275492   1.897   1.248  16.768  0.2264 -0.4730 -0.1356
18001TIP3   OH275493   1.460   3.780  15.181  0.2717  0.3364  0.5421
18001TIP3    H175494   1.511   3.797  15.102 -0.5152  0.6734  0.0890
18001TIP3    H275495   1.371   3.808  15.158 -0.0097  0.2390  1.4768
18002TIP3   OH275496   6.526   6.483  14.078 -0.2199 -0.2993  0.6556
18002TIP3    H175497   6.524   6.388  14.062  0.5676 -0.5180  1.7160
18002TIP3    H275498   6.436   6.511  14.065 -0.3480 -1.0842 -0.2794
18003TIP3   OH275499   0.973   0.310  14.873  0.0153  0.0020  0.7343
18003TIP3    H175500   0.919   0.276  14.803 -0.5837 -0.7075  1.5160
18003TIP3    H275501   1.044   0.247  14.882  0.8913  0.8346 -0.1670
18004TIP3   OH275502   4.623   0.553  14.193  0.1379  0.3706 -0.2790
18004TIP3    H175503   4.635   0.461  14.219 -0.8955  0.1474 -0.5685
18004TIP3    H275504   4.629   0.601  14.275  3.6021  0.4141 -0.3790
18005TIP3   OH275505   3.502   6.519   1.799  0.6438 -0.3634  0.5627
18005TIP3    H175506   3.493   6.493   1.891  0.2273  2.4394  1.4088
18005TIP3    H275507   3.440   6.591   1.788  0.0123 -1.2061 -2.2132
18006TIP3   OH275508   2.234   5.873  15.765 -0.3570 -0.2806  0.5681
18006TIP3    H175509   2.326   5.874  15.793 -0.4951 -0.7189  1.0497
18006TIP3    H275510   2.203   5.962  15.782 -0.3674 -0.4685  1.6173
18007TIP3   OH275511   5.789   3.293   5.371  0.2564  0.0962  0.3279
18007TIP3    H175512   5.814   3.333   5.454 -1.1841 -0.7385  1.1900
18007TIP3    H275513   5.709   3.244   5.390 -0.1096 -0.1159 -1.5522
18008TIP3   OH275514   4.205   4.098  11.867 -0.0274  0.0548 -0.0531
18008TIP3    H175515   4.258   4.152  11.926 -1.2733  2.2158 -0.8160
18008TIP3    H275516   4.269   4.054  11.811  1.0557  2.7397 -1.0770
18009TIP3   OH275517   2.396   2.652   2.579  0.0546 -0.2860 -0.3764
18009TIP3    H175518   2.464   2.718   2.584 -1.1761  1.1216 -1.1641
18009TIP3    H275519   2.396   2.609   2.664 -0.1807  1.8748  0.7750
18010TIP3   OH275520   2.268   4.010  13.681  0.2012  0.0916  0.0344
18010TIP3    H175521   2.207   3.994  13.609  0.4781  0.7036 -0.3431
18010TIP3    H275522   2.261   3.932  13.736  0.8124 -0.8761 -1.2323
18011TIP3   OH275523   2.704   4.309  12.355 -0.5492 -0.5021  0.1982
18011TIP3    H175524   2.709   4.225  12.400  0.9449 -1.5607 -1.7649
18011TIP3    H275525   2.763   4.299  12.281 -1.0446  1.9893 -0.6117
18012TIP3   OH275526   4.181   6.853  11.536  0.2793 -0.2106  0.3296
18012TIP3    H175527   4.088   6.868  11.520  0.2211 -1.6644 -0.9112
18012TIP3    H275528   4.187   6.834  11.629 -0.6614 -0.0795  0.4246
18013TIP3   OH275529   4.451   1.952   5.531  0.0230 -0.1164 -0.9040
18013TIP3    H175530   4.533   1.917   5.567  0.4110 -0.3428 -1.9804
18013TIP3    H275531   4.384   1.922   5.592  0.6590 -0.5286 -0.3927
18014TIP3   OH275532   1.556   5.886   4.979 -0.2942 -0.7004 -0.2179
18014TIP3    H175533   1.618   5.924   5.040  0.7171 -0.3968 -1.3918
18014TIP3    H275534   1.595   5.901   4.893 -1.6777 -1.0980 -0.9423
18015TIP3   OH275535   4.219   0.349   5.070 -0.3189  0.1260 -0.4346
18015TIP3    H175536   4.284   0.279   5.071 -0.8044 -0.3310 -0.0313
18015TIP3    H275537   4.252   0.412   5.007  0.3889 -0.2200 -0.4191
18016TIP3   OH275538   6.683   1.454   5.004  0.0056  0.4140 -0.4834
18016TIP3    H175539   6.617   1.405   5.053 -2.7785  1.1936 -3.1174
18016TIP3    H275540   6.740   1.387   4.966  0.8729 -0.2782  1.8921
18017TIP3   OH275541   5.970   2.551  11.238  0.1353 -0.1172 -0.0069
18017TIP3    H175542   5.947   2.485  11.173  0.0851  0.5611 -0.6955
18017TIP3    H275543   5.953   2.634  11.194  1.3424  0.3726  0.4117
18018TIP3   OH275544   3.770   6.420  11.694 -0.0601  0.1539 -0.7922
18018TIP3    H175545   3.768   6.386  11.783  0.1399 -0.2798 -0.9559
18018TIP3    H275546   3.744   6.512  11.703 -0.6100 -0.0389 -0.3569
18019TIP3   OH275547   3.004   4.500  16.269  0.2750  0.0590  0.0673
18019TIP3    H175548   2.958   4.528  16.190 -0.3470  0.9956  0.7439
18019TIP3    H275549   3.090   4.541  16.263  0.5509 -0.5774 -0.5285
18020TIP3   OH275550   6.435   1.908   4.153 -0.2927  0.5297  0.1506
18020TIP3    H175551   6.415   1.830   4.205  0.4837  0.8112  0.8915
18020TIP3    H275552   6.350   1.952   4.143 -1.0709 -1.1824 -1.6462
18021TIP3   OH275553   3.198   2.902  11.775 -0.1337 -0.1318 -0.1660
18021TIP3    H175554   3.110   2.866  11.767  0.4889 -1.5743 -0.8774
18021TIP3    H275555   3.236   2.891  11.687  1.5293 -1.6637  0.6846
18022TIP3   OH275556   0.346   6.024  10.956 -0.1826 -0.2445 -0.4614
18022TIP3    H175557   0.264   6.000  10.913 -0.3873  2.5295 -1.8739
18022TIP3    H275558   0.321   6.088  11.023  0.7921  1.4531 -1.6072
18023TIP3   OH275559   0.126   2.401   0.884 -0.2190  0.4934  0.5032
18023TIP3    H175560   0.215   2.404   0.848 -0.6766  0.4798 -0.6666
18023TIP3    H275561   0.138   2.366   0.973  0.7702 -1.2076 -0.2388
18024TIP3   OH275562   5.788   4.963   0.185  0.0773  0.4403 -0.2264
18024TIP3    H175563   5.833   5.012   0.254  0.0727  1.3044 -0.8193
18024TIP3    H275564   5.812   5.008   0.104 -1.7866  0.9033 -0.5739
18025TIP3   OH275565   3.328   6.464  11.834 -0.4356 -0.2543 -0.4368
18025TIP3    H175566   3.365   6.548  11.808 -0.3877 -0.0570  0.2393
18025TIP3    H275567   3.396   6.400  11.813  0.5805  0.1720  1.3640
18026TIP3   OH275568   2.171   0.662  14.489 -0.1848  0.3698 -0.5628
18026TIP3    H175569   2.111   0.650  14.563 -0.4751  1.4982 -0.5890
18026TIP3    H275570   2.230   0.587  14.493 -0.0229  0.5463  0.9731
18027TIP3   OH275571   3.968   1.971   1.429 -0.8339  0.5719  0.5634
18027TIP3    H175572   4.062   1.984   1.444 -1.1799  1.8383  1.8852
18027TIP3    H275573   3.957   1.979   1.334  0.5130 -0.5931  0.2821
18028TIP3   OH275574   1.971   6.771  15.578  0.0203  0.3465  0.7573
18028TIP3    H175575   1.949   6.764  15.485  0.1717 -1.2938  0.8173
18028TIP3    H275576   1.995   6.863  15.590  0.7816  0.4174 -1.0015
18029TIP3   OH275577   1.979   0.642   0.036 -0.3210 -0.4201  0.1940
18029TIP3    H175578   1.942   0.672  -0.047 -1.1414 -0.4338  0.5498
18029TIP3    H275579   1.935   0.694   0.103  1.7664  1.0169  0.5357
18030TIP3   OH275580   2.749   3.125   0.233  0.3146  0.1910  0.2680
18030TIP3    H175581   2.695   3.137   0.154  0.4411  0.8522  0.2746
18030TIP3    H275582   2.686   3.101   0.301  0.0192  0.8842  0.2580
18031TIP3   OH275583   4.537   0.023   3.199 -0.0461  0.0313 -0.1657
18031TIP3    H175584   4.528   0.114   3.169  0.1450  0.1906  0.2552
18031TIP3    H275585   4.631   0.008   3.204 -0.0609 -0.6872 -1.7033
18032TIP3   OH275586   4.896   2.863   0.615 -0.1991 -0.3227 -0.0457
18032TIP3    H175587   4.989   2.841   0.614  0.1585  1.0185 -1.9300
18032TIP3    H275588   4.894   2.955   0.641 -1.0007 -0.3441 -0.0144
18033TIP3   OH275589   5.596   3.158   4.096 -1.2334 -0.8327 -0.2282
18033TIP3    H175590   5.573   3.112   4.015  0.0170 -2.4279  0.2559
18033TIP3    H275591   5.692   3.157   4.098 -1.2169  0.2667  0.6771
18034TIP3   OH275592   3.169   6.554   2.432  0.1709  0.3503 -0.4473
18034TIP3    H175593   3.174   6.632   2.487  1.4107 -1.3035  1.9604
18034TIP3    H275594   3.256   6.547   2.392  0.3831 -0.3157  0.1201
18035TIP3   OH275595   0.119   3.063   4.363 -0.3314  0.1816 -0.5688
18035TIP3    H175596   0.213   3.068   4.382 -1.0388  0.6459  3.7483
18035TIP3    H275597   0.097   3.150   4.330  0.3858  0.8276  0.6017
18036TIP3   OH275598   6.384   5.284   4.817 -0.9188 -0.0955 -0.2582
18036TIP3    H175599   6.350   5.353   4.760 -0.7575  1.6898  1.6480
18036TIP3    H275600   6.307   5.236   4.846 -1.1402 -0.0802 -0.8069
18037TIP3   OH275601   1.070   4.004  13.697 -0.2432 -0.1871  0.0015
18037TIP3    H175602   1.142   3.954  13.734 -0.6102 -1.1569 -0.5624
18037TIP3    H275603   1.112   4.073  13.647  0.3008 -0.7646 -0.3482
18038TIP3   OH275604   3.656   1.844  15.142 -0.5606  0.5335  0.1922
18038TIP3    H175605   3.684   1.922  15.094 -2.1864  0.5693 -0.7450
18038TIP3    H275606   3.561   1.851  15.148 -0.6281 -0.7263  1.2632
18039TIP3   OH275607   2.313   1.581   2.749 -0.3175 -0.2337  0.4571
18039TIP3    H175608   2.379   1.552   2.812  0.4888  0.6398  0.0516
18039TIP3    H275609   2.356   1.573   2.664 -1.0402 -0.4572  0.1062
18040TIP3   OH275610   5.215   1.493  12.816 -0.2142 -0.4870  0.8610
18040TIP3    H175611   5.172   1.418  12.857 -0.9735 -0.5817 -0.0799
18040TIP3    H275612   5.258   1.456  12.739 -0.3736  0.0031  0.5337
18041TIP3   OH275613   6.182   1.239   2.537  0.4176 -0.0184  0.4610
18041TIP3    H175614   6.269   1.279   2.544  0.2347  0.1732  1.7683
18041TIP3    H275615   6.123   1.314   2.531  0.1055 -0.0466  2.5429
18042TIP3   OH275616   5.129   5.440   3.719 -0.1075  0.2907 -0.0183
18042TIP3    H175617   5.067   5.486   3.775 -0.8699  0.8081 -1.2328
18042TIP3    H275618   5.080   5.425   3.638  1.1796  0.2158 -0.7990
18043TIP3   OH275619   6.760   4.233   5.692 -0.2983  0.0642  0.0788
18043TIP3    H175620   6.807   4.284   5.758 -0.7293 -0.1038  0.5201
18043TIP3    H275621   6.729   4.156   5.739 -1.7031  0.5497 -0.0040
18044TIP3   OH275622   4.035   1.615   4.488  0.2525  0.2317  0.1100
18044TIP3    H175623   3.953   1.620   4.440 -0.6000  0.8826  1.5626
18044TIP3    H275624   4.030   1.686   4.552  1.5253 -0.3063  0.8580
18045TIP3   OH275625   5.552   4.294  15.091  0.1115  0.0826  0.0873
18045TIP3    H175626   5.510   4.254  15.014 -1.2608  0.0116  0.8350
18045TIP3    H275627   5.618   4.352  15.055 -1.3949  1.0622 -1.2327
18046TIP3   OH275628   6.797   6.455   5.412 -0.4093  0.3970 -0.8730
18046TIP3    H175629   6.768   6.539   5.447 -0.2257  0.0820  0.0559
18046TIP3    H275630   6.862   6.424   5.475 -0.2241 -0.2853 -1.3877
18047TIP3   OH275631   0.784   3.306   4.694  0.1250 -0.0176  0.0014
18047TIP3    H175632   0.791   3.402   4.687  3.1437 -0.0156  1.1763
18047TIP3    H275633   0.833   3.273   4.619 -0.0492 -0.6093  0.1412
18048TIP3   OH275634   0.199   6.213  14.020 -0.2398  0.2319 -0.3199
18048TIP3    H175635   0.128   6.168  13.976  0.9054 -0.3517 -1.6596
18048TIP3    H275636   0.215   6.162  14.100 -0.6568 -0.2040 -0.5134
18049TIP3   OH275637   4.682   5.380  16.541 -0.1480 -0.0903  0.4236
18049TIP3    H175638   4.635   5.308  16.499 -1.3485  0.6367  0.4839
18049TIP3    H275639   4.768   5.380  16.500 -1.0666  0.1991 -1.5995
18050TIP3   OH275640   4.358   1.714  15.865  0.6400  0.7991 -0.3294
18050TIP3    H175641   4.424   1.662  15.910  3.3310  3.4806 -0.8294
18050TIP3    H275642   4.275   1.674  15.890  2.3877 -3.4687 -0.5306
18051TIP3   OH275643   6.050   0.424  10.663  0.1383  0.1124 -0.6203
18051TIP3    H175644   5.965   0.468  10.665 -0.1021 -0.1949 -2.3575
18051TIP3    H275645   6.107   0.481  10.714 -1.1926  0.0872  0.9846
18052TIP3   OH275646   5.044   0.894  11.224  0.3002  0.4417 -0.0467
18052TIP3    H175647   5.053   0.803  11.196  0.6695  0.1724  0.9286
18052TIP3    H275648   5.010   0.889  11.313 -0.2778  1.2791 -0.2042
18053TIP3   OH275649   1.188   2.375   2.347  0.0312  0.4295  0.7564
18053TIP3    H175650   1.184   2.361   2.253 -2.6911 -0.8799  0.9795
18053TIP3    H275651   1.280   2.396   2.364  0.2942  2.4831 -2.3721
18054TIP3   OH275652   4.725   2.957   4.499  0.0808 -0.9357 -0.0771
18054TIP3    H175653   4.690   3.039   4.532  0.8863  0.4632 -2.4428
18054TIP3    H275654   4.758   2.911   4.577 -0.1585  1.0887  1.2841
18055TIP3   OH275655   4.247   2.074  15.708 -0.0867 -0.3185 -0.3442
18055TIP3    H175656   4.218   2.071  15.616  2.1649  1.1238 -1.1810
18055TIP3    H275657   4.325   2.019  15.710 -0.7382 -1.2314  0.9973
18056TIP3   OH275658   0.241   1.882   3.803 -0.1775  0.3602  0.0395
18056TIP3    H175659   0.335   1.894   3.793  0.4112 -0.3980  3.5179
18056TIP3    H275660   0.203   1.968   3.783  1.2192  0.7446 -1.1235
18057TIP3   OH275661   6.183   5.054  13.144  0.3105  0.1915 -0.0029
18057TIP3    H175662   6.119   5.061  13.215 -0.8107  3.0345 -1.1368
18057TIP3    H275663   6.131   5.057  13.064  1.7378  0.9057 -0.9551
18058TIP3   OH275664   5.293   5.603   3.130 -0.1122  0.8297 -0.3257
18058TIP3    H175665   5.243   5.681   3.151 -0.3448  1.1532 -1.9378
18058TIP3    H275666   5.287   5.595   3.034  1.2113 -0.2691 -0.3598
18059TIP3   OH275667   5.168   4.520  15.546 -0.1905 -0.4587  0.3570
18059TIP3    H175668   5.201   4.430  15.554  0.1065 -0.4047 -0.2160
18059TIP3    H275669   5.237   4.566  15.498 -0.8780 -0.2243 -0.4186
18060TIP3   OH275670   4.249   5.254   0.475  0.2458 -0.5212  0.3298
18060TIP3    H175671   4.311   5.326   0.464 -0.6323 -0.1373 -3.6177
18060TIP3    H275672   4.167   5.287   0.438 -1.2205 -2.4208  1.6485
18061TIP3   OH275673   2.880   5.814  10.718  0.3198 -0.1286 -0.5897
18061TIP3    H175674   2.815   5.821  10.788 -0.2094  1.0532 -1.1511
18061TIP3    H275675   2.829   5.785  10.642  0.6882 -0.4129 -0.7278
18062TIP3   OH275676   6.106   6.501   3.601 -0.5084 -0.1591 -0.1319
18062TIP3    H175677   6.082   6.574   3.543 -0.0271  0.3059  0.2354
18062TIP3    H275678   6.110   6.425   3.544 -0.0215  0.2940 -0.7234
18063TIP3   OH275679   3.006   5.214   3.740 -1.0189 -0.6361 -0.6323
18063TIP3    H175680   3.089   5.207   3.788 -1.7336 -1.6887  0.5248
18063TIP3    H275681   2.965   5.293   3.774 -1.1646 -0.9512 -0.0520
18064TIP3   OH275682   6.617   4.221   2.044  0.4986  0.4120  0.3338
18064TIP3    H175683   6.652   4.139   2.008 -0.9705 -1.2127  2.3149
18064TIP3    H275684   6.555   4.252   1.978 -0.0589 -0.9276  0.2042
18065TIP3   OH275685   5.632   0.966   6.093  0.0435 -0.3755  0.2697
18065TIP3    H175686   5.717   0.967   6.137  0.7495  0.9682 -1.0426
18065TIP3    H275687   5.587   1.044   6.126 -0.2854 -0.5272  0.1899
18066TIP3   OH275688   2.947   0.082  10.651  0.6589  0.2926 -0.1177
18066TIP3    H175689   3.028   0.034  10.671 -0.8996 -1.9332  1.4766
18066TIP3    H275690   2.921   0.050  10.565 -0.8797 -2.7981  1.3184
18067TIP3   OH275691   3.624   3.837   3.649  0.0215  0.1916  0.3181
18067TIP3    H175692   3.538   3.866   3.680 -0.0721  0.2562 -0.0056
18067TIP3    H275693   3.604   3.767   3.587  0.2138  0.0157  0.4566
18068TIP3   OH275694   0.448   4.743  13.582  0.0776  0.8539  0.2800
18068TIP3    H175695   0.539   4.713  13.580 -0.3401 -0.4714 -0.5381
18068TIP3    H275696   0.423   4.740  13.674  0.1976 -0.9923  0.2871
18069TIP3   OH275697   0.372   6.201   5.774 -0.7335  0.4799  0.0133
18069TIP3    H175698   0.403   6.179   5.687  0.1828 -0.2455  0.5042
18069TIP3    H275699   0.313   6.275   5.761  0.8556  1.6199 -1.0129
18070TIP3   OH275700   2.460   0.029  11.088  0.8776 -0.6877  0.1554
18070TIP3    H175701   2.393   0.049  11.022  0.9641  0.2992  0.3428
18070TIP3    H275702   2.429  -0.051  11.130  0.0562 -0.5122 -0.0832
18071TIP3   OH275703   0.481   5.509   2.245  0.1491 -0.5169 -0.3440
18071TIP3    H175704   0.443   5.425   2.220 -0.6665 -0.1508 -0.3436
18071TIP3    H275705   0.485   5.559   2.164 -0.0413 -0.2918 -0.2157
18072TIP3   OH275706   1.951   6.309   0.796 -0.6055  0.3706  0.0855
18072TIP3    H175707   1.879   6.246   0.806 -1.6351  1.7374  1.9908
18072TIP3    H275708   1.924   6.364   0.722 -1.3224  0.6242  0.5324
18073TIP3   OH275709   6.574   0.202   1.929 -0.2947  0.2460  0.1435
18073TIP3    H175710   6.506   0.206   1.996 -1.6680 -1.6055 -1.0386
18073TIP3    H275711   6.571   0.112   1.896  0.4302  1.0122 -2.2590
18074TIP3   OH275712   5.798   1.332  16.449 -0.7457 -0.2119 -0.5058
18074TIP3    H175713   5.820   1.255  16.397  1.0551  0.7066 -1.1781
18074TIP3    H275714   5.738   1.381  16.393 -0.4298 -0.2243 -0.8586
18075TIP3   OH275715   0.625   0.438  10.737  0.1300 -0.0279  0.1400
18075TIP3    H175716   0.562   0.430  10.809  0.9939 -0.3967  0.8745
18075TIP3    H275717   0.683   0.363  10.748  2.1393  1.5607  0.8991
18076TIP3   OH275718   6.333   0.526  16.059  0.7080  0.1102  0.2466
18076TIP3    H175719   6.352   0.435  16.082 -0.8888 -0.0914  0.8946
18076TIP3    H275720   6.404   0.551  16.000  0.4180 -2.0150 -1.1089
18077TIP3   OH275721   3.207   0.986   2.500  0.7839 -0.4233  0.0667
18077TIP3    H175722   3.269   0.954   2.434  0.9811 -0.4163  0.2470
18077TIP3    H275723   3.132   1.019   2.449  1.3083  0.3957 -0.1895
18078TIP3   OH275724   0.542   6.349   2.181 -0.6553 -0.1404  0.3972
18078TIP3    H175725   0.579   6.285   2.243 -0.2261 -2.1013 -1.7380
18078TIP3    H275726   0.556   6.310   2.095 -2.7862  1.6444 -0.8781
18079TIP3   OH275727   1.183   0.653   4.787 -0.3048 -0.1258 -0.8177
18079TIP3    H175728   1.117   0.712   4.750  0.5218  1.3803 -0.0002
18079TIP3    H275729   1.149   0.630   4.873 -0.3667 -0.3739 -0.9101
18080TIP3   OH275730   1.213   6.582   0.653 -0.0564 -0.4112  0.9322
18080TIP3    H175731   1.137   6.535   0.620 -0.2540 -0.9442  2.0981
18080TIP3    H275732   1.182   6.625   0.733  0.2269  1.3856  0.1327
18081TIP3   OH275733   0.525   6.270  16.173 -0.3822 -0.2211 -0.2732
18081TIP3    H175734   0.531   6.348  16.227 -0.2574 -1.6765  1.9620
18081TIP3    H275735   0.433   6.266  16.147 -0.5252  0.3259  0.1413
18082TIP3   OH275736   2.839   6.319   1.677 -0.3593  0.0545  0.3358
18082TIP3    H175737   2.823   6.413   1.671  1.6067  0.3492 -0.9042
18082TIP3    H275738   2.850   6.290   1.587 -0.1500 -1.2401  0.7518
18083TIP3   OH275739   5.539   6.461   1.184  0.2764 -0.1594 -0.0891
18083TIP3    H175740   5.525   6.374   1.221  0.2297 -0.7806 -1.5074
18083TIP3    H275741   5.453   6.503   1.189  0.5416  0.2797  1.6619
18084TIP3   OH275742   3.760   2.330   1.888  0.3551  0.0153  0.2873
18084TIP3    H175743   3.853   2.309   1.884  0.5888  1.0423 -0.2194
18084TIP3    H275744   3.748   2.397   1.821 -0.8339 -0.3838  0.0798
18085TIP3   OH275745   0.279   6.854   6.328 -0.5814 -0.2117 -0.1510
18085TIP3    H175746   0.270   6.928   6.388 -0.9895 -0.4177  0.0406
18085TIP3    H275747   0.365   6.817   6.349 -1.1240 -0.8817  0.9946
18086TIP3   OH275748   6.696   3.870   5.437 -0.3834 -0.1978 -0.3000
18086TIP3    H175749   6.776   3.922   5.443 -1.0835  0.8206  0.5626
18086TIP3    H275750   6.665   3.862   5.527 -0.5810 -1.6780 -0.4740
18087TIP3   OH275751   3.526   2.445   1.630  0.0136 -0.4170 -0.2474
18087TIP3    H175752   3.607   2.484   1.662  0.0454  0.4462 -1.3333
18087TIP3    H275753   3.552   2.359   1.598  0.1823 -0.8288  0.9391
18088TIP3   OH275754   2.628   4.955   3.127 -0.1607 -0.0484  0.2668
18088TIP3    H175755   2.647   4.868   3.091  1.0957  0.1815  0.3103
18088TIP3    H275756   2.590   4.938   3.213  0.5037 -0.5639  0.4681
18089TIP3   OH275757   3.924   1.959  11.196 -0.1733 -0.1956  0.5034
18089TIP3    H175758   3.845   1.937  11.245  0.3074 -1.6269  0.6742
18089TIP3    H275759   3.980   2.003  11.260 -0.9550  1.1888  0.2816
18090TIP3   OH275760   1.428   5.619  16.354 -0.0605  0.0685  1.0054
18090TIP3    H175761   1.422   5.698  16.408  0.7091  1.3271 -0.6706
18090TIP3    H275762   1.339   5.582  16.356 -1.2589  2.5900 -0.4663
18091TIP3   OH275763   0.631   0.857  14.645  0.3135 -0.0590  0.0298
18091TIP3    H175764   0.666   0.945  14.657 -0.3757  0.4189 -1.1982
18091TIP3    H275765   0.567   0.867  14.574  0.6645 -1.6569 -0.5556
18092TIP3   OH275766   3.881   1.760   3.671  0.0887 -0.5947  0.4309
18092TIP3    H175767   3.796   1.787   3.706  0.8433  2.1446  0.4132
18092TIP3    H275768   3.937   1.752   3.748  0.4734  0.3461  0.2601
18093TIP3   OH275769   3.965   5.741   4.606 -0.9488  0.2412  0.1141
18093TIP3    H175770   3.934   5.674   4.544 -0.2514 -0.1446  0.1753
18093TIP3    H275771   3.945   5.705   4.692  0.9709 -0.7014  0.2136
18094TIP3   OH275772   0.831   4.612  11.134 -0.0551 -0.4753  0.6431
18094TIP3    H175773   0.909   4.634  11.083 -0.9981 -0.9699 -1.0893
18094TIP3    H275774   0.787   4.696  11.147  0.3076 -0.3144  0.8548
18095TIP3   OH275775   4.014   3.452   3.841 -0.4388  0.3495 -0.2942
18095TIP3    H175776   3.973   3.368   3.820 -1.7389  1.3225 -1.8544
18095TIP3    H275777   4.099   3.448   3.797  0.0217 -0.5872  0.6352
18096TIP3   OH275778   5.595   6.724  13.404  0.3974  0.3469  0.1120
18096TIP3    H175779   5.540   6.716  13.482  0.8096  0.3172  0.4025
18096TIP3    H275780   5.670   6.667  13.422 -0.6368 -1.5589 -1.3081
18097TIP3   OH275781   4.634   5.697  12.997 -0.1894  0.2086  0.0855
18097TIP3    H175782   4.622   5.751  12.919 -0.8919  0.0178  0.0534
18097TIP3    H275783   4.716   5.728  13.036  1.4863 -1.3329 -2.0423
18098TIP3   OH275784   0.762   5.192  14.353 -0.5660  0.1014 -0.1538
18098TIP3    H175785   0.708   5.135  14.299 -0.8835 -0.2733  0.5526
18098TIP3    H275786   0.849   5.151  14.352 -1.3974 -2.0297  2.6113
18099TIP3   OH275787   4.398   1.921  13.113 -0.1485  0.0383  0.3731
18099TIP3    H175788   4.353   1.844  13.145  0.4019 -0.4841 -0.0920
18099TIP3    H275789   4.398   1.982  13.187 -0.6940 -0.3582  0.6979
18100TIP3   OH275790   4.438   6.090  11.165 -0.1318 -0.2975 -0.0027
18100TIP3    H175791   4.491   6.037  11.226 -0.8887 -0.1892  0.7700
18100TIP3    H275792   4.464   6.180  11.184  1.0316 -0.3504 -1.1997
18101TIP3   OH275793   5.179   2.897   1.502  0.5730 -0.1009  0.1305
18101TIP3    H175794   5.221   2.860   1.425 -0.8199  1.1810 -1.3255
18101TIP3    H275795   5.116   2.830   1.530  1.3455 -0.7218  0.4012
18102TIP3   OH275796   2.660   2.649  14.975  0.3090  0.2341 -0.0033
18102TIP3    H175797   2.581   2.701  14.987 -0.2267 -0.4369 -0.5895
18102TIP3    H275798   2.723   2.711  14.937  0.7276  1.2928  2.2182
18103TIP3   OH275799   5.866   4.425   3.606  0.3376 -0.0528 -0.8754
18103TIP3    H175800   5.899   4.354   3.550 -0.2315 -1.4260  0.4464
18103TIP3    H275801   5.914   4.416   3.688 -0.4285  0.4744 -0.3486
18104TIP3   OH275802   4.075   4.995  12.427 -0.3377  0.3995  0.7154
18104TIP3    H175803   4.084   4.901  12.414  1.5925  0.7563 -1.2227
18104TIP3    H275804   4.110   5.011  12.515 -1.5167 -0.7509  1.4268
18105TIP3   OH275805   3.760   4.239  14.760 -0.3702  0.4067  0.0755
18105TIP3    H175806   3.738   4.332  14.772 -1.4451  0.3109 -0.9268
18105TIP3    H275807   3.683   4.192  14.792  0.7966 -0.2549  2.0884
18106TIP3   OH275808   4.694   0.906   0.661 -0.3469 -0.4084 -0.0238
18106TIP3    H175809   4.786   0.877   0.659  0.1226  1.0072 -0.6563
18106TIP3    H275810   4.674   0.928   0.570 -1.7854 -1.9910 -0.1390
18107TIP3   OH275811   1.443   1.115  16.052 -0.0824  0.2555  0.5947
18107TIP3    H175812   1.537   1.137  16.056 -0.2453  0.9982  0.4654
18107TIP3    H275813   1.432   1.046  16.117  0.7508 -0.5509 -0.0916
18108TIP3   OH275814   2.395   6.727  15.063 -0.5531 -0.2255  0.4248
18108TIP3    H175815   2.457   6.777  15.010  0.2029  0.8125  2.2023
18108TIP3    H275816   2.404   6.637  15.031 -1.9655  0.6618 -2.8555
18109TIP3   OH275817   6.852   4.250  14.972  0.0374 -0.3405 -0.4012
18109TIP3    H175818   6.881   4.160  14.978  0.5227 -0.1117  0.7827
18109TIP3    H275819   6.927   4.302  15.000 -0.5930  0.3789 -0.0032
18110TIP3   OH275820   4.584   4.693   5.265  0.2775  0.2473 -0.0445
18110TIP3    H175821   4.515   4.759   5.268 -0.7646 -0.8355  2.5244
18110TIP3    H275822   4.650   4.724   5.327 -0.8575 -1.6407  2.2710
18111TIP3   OH275823   0.677   6.820  16.825  0.0714 -0.7259 -0.7276
18111TIP3    H175824   0.643   6.903  16.790  0.2594 -0.8686 -1.2641
18111TIP3    H275825   0.764   6.813  16.787  0.1912 -1.0040 -0.4010
18112TIP3   OH275826   0.236   1.401   2.199  0.4234  0.3205 -0.6397
18112TIP3    H175827   0.223   1.385   2.106  1.6416 -0.9809 -0.6165
18112TIP3    H275828   0.279   1.322   2.232 -0.2848  0.5977  1.1033
18113TIP3   OH275829   1.464   2.866  13.503 -0.8010  0.3499 -0.5462
18113TIP3    H175830   1.515   2.921  13.443  0.7898 -0.4817  0.0083
18113TIP3    H275831   1.523   2.794  13.527 -1.0734  1.0393  2.6247
18114TIP3   OH275832   2.764   1.005  14.116  0.1690 -0.1574 -0.4771
18114TIP3    H175833   2.731   1.088  14.150 -0.0687 -0.1979 -0.6019
18114TIP3    H275834   2.685   0.953  14.100  0.3442 -0.7986  0.5770
18115TIP3   OH275835   3.960   3.718  13.688 -0.0570  0.2934  0.0776
18115TIP3    H175836   3.985   3.664  13.613 -1.3590 -0.5424  0.2176
18115TIP3    H275837   4.009   3.680  13.761  0.0898  0.1748 -0.0807
18116TIP3   OH275838   4.311   1.708  15.600  0.3751  0.6369 -0.5542
18116TIP3    H175839   4.350   1.690  15.686 -0.7244  2.6431  0.4413
18116TIP3    H275840   4.382   1.746  15.548  0.6588  0.9143  0.0303
18117TIP3   OH275841   6.853   4.750  12.147 -0.6835  1.1191  0.3433
18117TIP3    H175842   6.847   4.668  12.197  0.2534 -0.6166 -2.1827
18117TIP3    H275843   6.879   4.816  12.212  0.8188 -1.0513  2.1099
18118TIP3   OH275844   6.149   0.199  15.081 -0.3214 -0.1969  0.2596
18118TIP3    H175845   6.109   0.154  15.006 -0.2790  0.2172 -0.0124
18118TIP3    H275846   6.210   0.260  15.042 -2.8118  2.6156  0.3988
18119TIP3   OH275847   5.197   5.928   4.973 -0.0684 -0.0302  0.6586
18119TIP3    H175848   5.289   5.947   4.953  0.1127 -1.1225  0.3945
18119TIP3    H275849   5.201   5.858   5.038 -0.6901 -2.0554 -1.3456
18120TIP3   OH275850   3.543   3.791  11.510 -0.4878  0.2626  0.3284
18120TIP3    H175851   3.519   3.724  11.445  0.1095 -0.3066  0.6704
18120TIP3    H275852   3.570   3.866  11.458 -3.1168  1.0106 -0.0704
18121TIP3   OH275853   0.416   0.766   5.302  0.6496  0.3174 -0.2751
18121TIP3    H175854   0.426   0.690   5.360 -0.4390 -0.5109 -1.1277
18121TIP3    H275855   0.332   0.803   5.326  0.7579  0.7111 -0.4948
18122TIP3   OH275856   0.908   1.388   5.594 -0.2470  0.1964  0.6461
18122TIP3    H175857   0.927   1.295   5.579 -0.6369  0.1282  0.5838
18122TIP3    H275858   0.866   1.389   5.681  1.2183  0.4909  1.3861
18123TIP3   OH275859   1.229   5.202  15.467  0.1712 -0.8984 -0.0225
18123TIP3    H175860   1.156   5.152  15.430  0.9691 -1.0053 -1.4787
18123TIP3    H275861   1.191   5.244  15.545 -1.7693 -0.0685 -1.3312
18124TIP3   OH275862   0.408   3.581   1.197  0.0896  0.0683  0.2412
18124TIP3    H175863   0.465   3.647   1.157 -0.0481 -0.8132 -1.5065
18124TIP3    H275864   0.320   3.618   1.188  0.1833  0.5732  1.2165
18125TIP3   OH275865   4.759   2.351   1.890  0.3467 -0.0054  0.2600
18125TIP3    H175866   4.712   2.289   1.833  0.6972 -1.8328  1.8430
18125TIP3    H275867   4.845   2.310   1.904 -0.2634 -0.5191  3.3104
18126TIP3   OH275868   1.292   4.433  15.777  0.0391 -0.2878  0.1962
18126TIP3    H175869   1.379   4.417  15.814  0.0405  0.0169  0.3248
18126TIP3    H275870   1.279   4.527  15.786 -0.8849 -0.5208  1.4514
18127TIP3   OH275871   0.488   0.174  15.869 -0.2563  0.0161 -0.0374
18127TIP3    H175872   0.554   0.147  15.806  0.0621 -1.5100  0.8859
18127TIP3    H275873   0.410   0.123  15.846 -0.6400  0.6558 -0.1766
18128TIP3   OH275874   1.027   2.895   1.216 -0.4913  0.5809  0.2857
18128TIP3    H175875   1.058   2.923   1.301  2.6490 -1.2490 -0.1088
18128TIP3    H275876   1.037   2.972   1.160 -2.7797  1.8653  1.4918
18129TIP3   OH275877   1.275   6.256  15.677  0.0798 -0.7091 -0.3258
18129TIP3    H175878   1.336   6.259  15.603 -0.7243  0.3029 -0.9903
18129TIP3    H275879   1.188   6.259  15.636 -0.3696  1.0121  0.6620
18130TIP3   OH275880   2.971   3.281   1.485  0.1579 -0.8592  0.2790
18130TIP3    H175881   3.036   3.351   1.497  0.4999 -1.2260  0.5679
18130TIP3    H275882   2.965   3.239   1.570 -1.8747  0.3680  0.8104
18131TIP3   OH275883   0.938   2.773   5.342  0.4264  0.0212  0.1457
18131TIP3    H175884   1.017   2.820   5.316 -0.8009  1.5762 -0.9711
18131TIP3    H275885   0.931   2.701   5.280  0.6184  0.2728 -0.1730
18132TIP3   OH275886   6.425   2.479   1.692 -0.3630  0.1441 -0.0335
18132TIP3    H175887   6.414   2.573   1.675 -0.5590 -0.0817 -1.2784
18132TIP3    H275888   6.426   2.472   1.787 -0.0009  1.4501  0.0838
18133TIP3   OH275889   2.293   5.940  12.316  0.0120  0.6583  0.1183
18133TIP3    H175890   2.314   5.966  12.227 -0.7843  1.4731  0.1641
18133TIP3    H275891   2.207   5.897  12.309  0.8283 -1.1005  0.1987
18134TIP3   OH275892   0.212   2.715   5.057 -0.8623 -0.2566  0.1657
18134TIP3    H175893   0.127   2.694   5.097 -0.7702  0.5531  0.8250
18134TIP3    H275894   0.194   2.720   4.963 -1.2604 -1.3893  0.1674
18135TIP3   OH275895   5.523   0.721   2.815  0.4466 -0.2410 -0.1757
18135TIP3    H175896   5.503   0.755   2.727 -2.9280 -2.1269 -0.3141
18135TIP3    H275897   5.532   0.627   2.802  0.6099 -0.4578  1.4087
18136TIP3   OH275898   0.990   5.148   2.893 -0.1450 -0.4201  0.0244
18136TIP3    H175899   1.029   5.166   2.979 -3.3637  0.4873  1.4397
18136TIP3    H275900   0.909   5.101   2.913 -0.6914 -0.7415 -2.5935
18137TIP3   OH275901   3.564   0.776  16.156  0.4425 -0.1568 -0.7624
18137TIP3    H175902   3.469   0.791  16.157  0.5489  0.8958 -2.4512
18137TIP3    H275903   3.594   0.811  16.240 -0.3436  2.3371 -1.4169
18138TIP3   OH275904   3.928   6.631  14.997 -0.2625 -0.2267 -0.7456
18138TIP3    H175905   3.904   6.538  15.000 -0.5409 -0.1396  1.9380
18138TIP3    H275906   3.845   6.678  14.999 -0.1228  0.0345  1.0368
18139TIP3   OH275907   0.066   5.321  16.757  0.0016 -0.1727  0.1492
18139TIP3    H175908   0.034   5.234  16.781 -1.1667  0.3751  0.7088
18139TIP3    H275909  -0.005   5.358  16.703 -0.2150  0.9769  1.1730
18140TIP3   OH275910   0.402   0.099   2.479 -0.1268  0.4379  0.3316
18140TIP3    H175911   0.436   0.185   2.504 -0.2884  0.5513  0.1623
18140TIP3    H275912   0.392   0.104   2.384 -2.7786  1.2179  0.5489
18141TIP3   OH275913   0.976   6.676  11.031  0.2406  0.7455 -0.2091
18141TIP3    H175914   0.900   6.673  10.973  0.7514  1.3013 -0.9382
18141TIP3    H275915   1.038   6.613  10.993  0.7962  1.5121 -0.6058
18142TIP3   OH275916   1.984   4.196   2.389 -0.1613 -0.3707  0.3927
18142TIP3    H175917   2.056   4.259   2.388  0.9534 -1.5900 -1.2658
18142TIP3    H275918   1.934   4.215   2.310 -1.1428 -0.1281  1.0575
18143TIP3   OH275919   0.462   5.002   2.215 -0.0531  0.4797 -0.1352
18143TIP3    H175920   0.503   4.978   2.299  0.6045 -0.9508 -0.8358
18143TIP3    H275921   0.531   4.989   2.150 -0.8196  0.6942 -1.0061
18144TIP3   OH275922   4.300   1.886   1.363  0.4221  0.5738  0.6184
18144TIP3    H175923   4.296   1.920   1.273  0.2629 -0.4519  0.2268
18144TIP3    H275924   4.349   1.953   1.412 -1.4316  2.2520  0.2914
18145TIP3   OH275925   1.692   0.912   4.056 -0.1897  1.1127  0.4727
18145TIP3    H175926   1.682   0.827   4.100  0.3993  1.8795  2.1533
18145TIP3    H275927   1.729   0.890   3.971 -0.7102 -0.3726  0.5990
18146TIP3   OH275928   4.095   3.679  14.729 -0.0468 -0.0138 -0.4672
18146TIP3    H175929   4.074   3.756  14.677 -0.9162 -0.6664 -1.0955
18146TIP3    H275930   4.135   3.715  14.809 -2.0785  1.1943  0.0724
18147TIP3   OH275931   4.621   0.791   1.924 -0.0421 -0.6207 -0.0567
18147TIP3    H175932   4.550   0.850   1.900  1.5055  2.0367  1.4313
18147TIP3    H275933   4.700   0.830   1.885  1.0448 -1.7413  0.9046
18148TIP3   OH275934   6.647   6.696  12.978 -0.5229 -0.3541  0.5798
18148TIP3    H175935   6.655   6.601  12.970 -1.1850 -0.3915  0.3173
18148TIP3    H275936   6.645   6.728  12.888  3.3684  0.2822  0.5191
18149TIP3   OH275937   6.318   5.391   3.422  0.6466  0.0445 -1.2301
18149TIP3    H175938   6.389   5.424   3.476  0.6569 -1.6679 -0.0954
18149TIP3    H275939   6.360   5.360   3.342  1.5540 -2.5682  0.1291
18150TIP3   OH275940   1.376   4.654  13.463 -0.5238  0.1805 -0.0321
18150TIP3    H175941   1.454   4.610  13.499 -0.7589  1.3738  2.1360
18150TIP3    H275942   1.303   4.598  13.491 -0.8687  1.9700  3.1622
18151TIP3   OH275943   1.555   3.450   1.502 -0.1721  0.2249  0.5884
18151TIP3    H175944   1.628   3.456   1.441 -0.2979 -0.2465  0.3898
18151TIP3    H275945   1.595   3.451   1.589  0.1988 -1.5402  0.4749
18152TIP3   OH275946   1.238   3.655  16.464 -0.0102  0.1481 -0.3062
18152TIP3    H175947   1.305   3.621  16.405  0.3874  0.0719  0.1808
18152TIP3    H275948   1.282   3.727  16.510 -0.4692  0.5316 -0.4587
18153TIP3   OH275949   2.690   2.662   1.483  0.6017  0.6685  0.1796
18153TIP3    H175950   2.737   2.676   1.401 -0.1594  0.2332 -0.3459
18153TIP3    H275951   2.601   2.692   1.465  0.3256  0.1857  0.7161
18154TIP3   OH275952   2.393   4.494   0.805  0.3520 -0.0904  0.1487
18154TIP3    H175953   2.397   4.469   0.898  2.3724 -3.4620 -0.6667
18154TIP3    H275954   2.482   4.477   0.772 -0.0365  1.9702 -2.2340
18155TIP3   OH275955   1.890   2.465   1.533 -0.0934 -0.2389  0.2497
18155TIP3    H175956   1.924   2.536   1.477  0.8119 -2.0261 -1.6032
18155TIP3    H275957   1.961   2.401   1.536 -1.2012 -1.4641  1.1561
18156TIP3   OH275958   0.814   2.669  15.413  0.8264  0.0423  0.5303
18156TIP3    H175959   0.799   2.762  15.395 -0.4172  0.0110  1.2698
18156TIP3    H275960   0.767   2.623  15.344 -0.3959 -0.0284  1.3629
18157TIP3   OH275961   1.259   5.846   2.043 -0.0910  0.2575  1.2229
18157TIP3    H175962   1.289   5.891   2.122 -3.6847  0.4232  2.7160
18157TIP3    H275963   1.258   5.754   2.067  1.5470 -0.0366  0.2795
18158TIP3   OH275964   2.835   3.600   1.208  0.4538 -0.6186  0.0326
18158TIP3    H175965   2.848   3.694   1.214 -2.2539 -0.0647 -1.5213
18158TIP3    H275966   2.891   3.572   1.135  0.4626 -0.0183 -0.1933
18159TIP3   OH275967   0.084   1.140   3.278 -0.2530  0.6346  0.1296
18159TIP3    H175968   0.058   1.225   3.243 -1.6901 -0.2621 -1.0847
18159TIP3    H275969   0.010   1.113   3.333 -0.4884 -0.4570 -0.6786
18160TIP3   OH275970   4.108   1.863   2.950  0.0856  0.2176 -0.6056
18160TIP3    H175971   4.077   1.785   2.904  0.6900 -1.0182  0.9892
18160TIP3    H275972   4.198   1.841   2.975 -0.1814  0.8764  1.0338
18161TIP3   OH275973   3.830   6.450   2.451  0.2157 -0.4079  0.1927
18161TIP3    H175974   3.778   6.370   2.455 -0.0547 -0.2650 -0.3442
18161TIP3    H275975   3.768   6.518   2.426  0.6800 -0.2636 -0.6194
18162TIP3   OH275976   6.358   3.743   2.118  0.7000 -0.5405 -0.4943
18162TIP3    H175977   6.348   3.649   2.128  1.9643 -0.7655 -1.1375
18162TIP3    H275978   6.316   3.780   2.196  2.3334 -1.7620  1.0656
18163TIP3   OH275979   2.089   6.319   3.637  0.0346  0.2686  0.2507
18163TIP3    H175980   2.178   6.325   3.602 -0.8800 -0.5508 -2.4541
18163TIP3    H275981   2.039   6.382   3.586 -1.3436 -0.8136  0.2128
18164TIP3   OH275982   1.191   1.541   3.899  0.2813 -0.6058  0.5666
18164TIP3    H175983   1.263   1.549   3.962  1.0969 -1.0246 -0.3048
18164TIP3    H275984   1.173   1.631   3.872  0.9331 -0.5629  0.2764
18165TIP3   OH275985   4.043   4.351  12.609 -0.5075 -0.0122 -1.1389
18165TIP3    H175986   4.116   4.297  12.639  0.0443  0.4074 -1.7122
18165TIP3    H275987   3.973   4.288  12.589 -1.2072 -0.2967  1.7040
18166TIP3   OH275988   2.491   1.827   0.073 -0.4463 -0.3511 -0.4185
18166TIP3    H175989   2.544   1.871   0.007 -1.9592 -0.5082 -1.7824
18166TIP3    H275990   2.401   1.840   0.045 -1.2192  0.4159  2.1469
18167TIP3   OH275991   2.997   6.263  15.590  0.0441 -0.7148  0.5772
18167TIP3    H175992   2.973   6.292  15.678 -2.1221 -0.4804 -0.0314
18167TIP3    H275993   2.914   6.253  15.545  1.1292 -0.0671 -1.7112
18168TIP3   OH275994   0.596   2.346  12.493 -0.7862 -0.1490 -0.0274
18168TIP3    H175995   0.537   2.276  12.523 -0.7756 -0.3365 -0.4358
18168TIP3    H275996   0.540   2.423  12.483 -1.2709 -0.6722 -1.7744
18169TIP3   OH275997   4.106   0.246   3.304  0.7191 -0.1572  0.0046
18169TIP3    H175998   4.141   0.274   3.220 -1.0622  1.4337 -0.2760
18169TIP3    H275999   4.050   0.171   3.284  2.6204 -1.7315  0.2537
18170TIP3   OH276000   5.390   2.758   2.434 -0.7504 -0.3031  0.2587
18170TIP3    H176001   5.346   2.839   2.409 -1.3358 -0.4916  0.6638
18170TIP3    H276002   5.480   2.785   2.454 -0.3367 -0.1009 -1.6949
18171TIP3   OH276003   5.099   1.541  15.123  0.2524  0.2197 -0.2818
18171TIP3    H176004   5.133   1.630  15.125  0.2882  0.4272 -3.8303
18171TIP3    H276005   5.026   1.542  15.185  0.3815  2.6494 -0.0707
18172TIP3   OH276006   0.804   1.081  15.460 -0.2585  0.1707 -0.3519
18172TIP3    H176007   0.771   0.999  15.497 -2.9385  1.0432 -0.5449
18172TIP3    H276008   0.849   1.124  15.533  1.6122 -1.6053 -0.3707
18173TIP3   OH276009   3.477   2.398  11.665 -0.0610 -0.0454  0.3622
18173TIP3    H176010   3.502   2.485  11.633 -1.7899  0.9337  1.5121
18173TIP3    H276011   3.464   2.347  11.585  0.6716  0.8322 -0.3495
18174TIP3   OH276012   1.327   5.437   2.942  0.1917  0.1653 -0.6973
18174TIP3    H176013   1.406   5.409   2.895  0.7185  1.3913 -0.5769
18174TIP3    H276014   1.347   5.422   3.034 -1.0159 -2.6820 -0.7854
18175TIP3   OH276015   0.005   2.864   1.652  0.9033  0.1681 -0.3007
18175TIP3    H176016  -0.061   2.801   1.623  2.3893 -0.1391 -3.4349
18175TIP3    H276017  -0.007   2.940   1.595  2.1421  0.7894  0.2309
18176TIP3   OH276018   6.330   4.776   2.100 -0.2960  0.0038 -0.3477
18176TIP3    H176019   6.273   4.764   2.177  0.9903  1.0147  0.8102
18176TIP3    H276020   6.291   4.850   2.053 -0.5572 -0.0207 -0.1733
18177TIP3   OH276021   3.499   5.448   4.555 -0.1149 -0.1711  0.3930
18177TIP3    H176022   3.429   5.480   4.610  0.1340 -0.4780  0.8953
18177TIP3    H276023   3.543   5.381   4.608  3.8637  3.4878  2.3314
18178TIP3   OH276024   6.590   5.393  13.182  0.1442 -0.4334 -0.3856
18178TIP3    H176025   6.612   5.335  13.110  2.6092 -1.3720  0.9993
18178TIP3    H276026   6.621   5.347  13.260 -0.6337  1.4011  1.0914
18179TIP3   OH276027   6.696   4.800   3.552  0.5425 -0.4587  0.2275
18179TIP3    H176028   6.636   4.776   3.623  0.8836  0.1217  0.7265
18179TIP3    H276029   6.703   4.896   3.558  0.7971 -0.4325 -0.4109
18180TIP3   OH276030   6.023   4.992   3.437 -0.4297 -0.5068 -0.4769
18180TIP3    H176031   6.092   5.017   3.377 -1.6798  1.6091 -1.1503
18180TIP3    H276032   5.959   5.063   3.431 -1.8485 -1.5240  1.3907
18181TIP3   OH276033   0.564   5.914  13.430 -0.4209  0.1050 -0.5751
18181TIP3    H176034   0.646   5.943  13.390 -0.5869 -0.1222 -1.0772
18181TIP3    H276035   0.496   5.953  13.376 -0.6550  0.5669  0.0360
18182TIP3   OH276036   5.942   6.462   2.563 -0.3008 -0.4102 -0.3531
18182TIP3    H176037   5.879   6.410   2.512 -0.8882  1.6638 -1.8802
18182TIP3    H276038   6.026   6.449   2.518 -0.4412 -0.0950 -0.7139
18183TIP3   OH276039   2.132   0.726   0.965 -0.1791 -0.3670 -0.1369
18183TIP3    H176040   2.110   0.816   0.990 -1.2371 -0.3723 -0.9887
18183TIP3    H276041   2.078   0.708   0.888  1.0318 -1.2680 -0.8051
18184TIP3   OH276042   3.303   5.171   3.926 -0.6162 -0.4973  0.7014
18184TIP3    H176043   3.304   5.151   4.020 -0.7216 -1.3585  0.5261
18184TIP3    H276044   3.345   5.096   3.886 -0.0933  0.1094  0.0937
18185TIP3   OH276045   0.015   4.008   0.929 -0.5650 -0.0239 -0.4096
18185TIP3    H176046  -0.071   4.036   0.958  0.0598  1.8593 -0.2694
18185TIP3    H276047  -0.003   3.952   0.853 -1.9924 -1.7107  1.0715
18186TIP3   OH276048   0.355   0.110   0.638 -0.1102 -0.1752 -0.8349
18186TIP3    H176049   0.357   0.141   0.728 -2.2673  0.2209 -0.8876
18186TIP3    H276050   0.354   0.014   0.646  1.2717 -0.1892 -0.5258
18187TIP3   OH276051   6.046   3.779  16.687  0.1061  0.2841  0.4858
18187TIP3    H176052   6.123   3.723  16.674 -0.4859 -0.4946  0.2794
18187TIP3    H276053   5.985   3.725  16.738 -0.7062  0.5235 -0.2195
18188TIP3   OH276054   1.176   1.419   6.380  0.1941  0.2899  0.3966
18188TIP3    H176055   1.150   1.489   6.440  0.0324  1.9818 -1.5086
18188TIP3    H276056   1.229   1.360   6.432 -0.0578  1.5912  2.2099
18189TIP3   OH276057   0.450   3.654  11.600  0.4551  0.3396  0.5109
18189TIP3    H176058   0.495   3.632  11.682  0.7055  2.3967  0.9674
18189TIP3    H276059   0.379   3.712  11.627 -1.3532 -1.3113 -0.4222
18190TIP3   OH276060   0.803   5.672   3.255  0.4535 -0.3600 -0.0958
18190TIP3    H176061   0.887   5.676   3.209  0.2873  0.6960 -0.3346
18190TIP3    H276062   0.749   5.738   3.213  0.2127  0.4665  1.4148
18191TIP3   OH276063   1.593   6.828   2.151 -0.3738  0.2582 -0.0801
18191TIP3    H176064   1.575   6.739   2.183 -0.1482 -0.1169 -0.9818
18191TIP3    H276065   1.685   6.828   2.128 -0.8732 -0.0168 -2.3322
18192TIP3   OH276066   3.742   0.391   0.453  0.1322  0.1452 -0.6842
18192TIP3    H176067   3.741   0.448   0.376  3.0068  0.3016 -0.7132
18192TIP3    H276068   3.829   0.351   0.451 -0.1999 -0.8389  1.7960
18193TIP3   OH276069   4.435   4.794  15.303  0.0418 -0.1565  0.2959
18193TIP3    H176070   4.386   4.718  15.274 -1.4983  1.4664 -1.6571
18193TIP3    H276071   4.525   4.777  15.276 -0.4231 -0.9539 -0.7772
18194TIP3   OH276072   5.245   3.607  13.328 -0.8188 -0.1269  0.5249
18194TIP3    H176073   5.292   3.634  13.250 -0.9468 -1.7332 -0.1366
18194TIP3    H276074   5.311   3.567  13.384 -0.9969 -0.3152  0.6006
18195TIP3   OH276075   2.356   6.731   2.492  0.3166  0.7799  0.9626
18195TIP3    H176076   2.430   6.731   2.431  0.8565 -2.7709  1.4082
18195TIP3    H276077   2.394   6.700   2.574 -1.6303 -1.4291  1.1199
18196TIP3   OH276078   6.585   5.521  14.470 -0.3545  0.1417 -0.5525
18196TIP3    H176079   6.517   5.454  14.460 -0.4468  0.1993 -0.3046
18196TIP3    H276080   6.551   5.597  14.423 -0.5817  0.2573 -0.2064
18197TIP3   OH276081   3.293   0.239   1.853  0.3642  0.1430 -0.0651
18197TIP3    H176082   3.297   0.206   1.763  0.4703 -0.4221  0.1379
18197TIP3    H276083   3.243   0.171   1.900 -0.8036  1.0392  0.0385
18198TIP3   OH276084   0.317   5.651  10.653  0.0346 -0.0298  0.4771
18198TIP3    H176085   0.225   5.668  10.675  0.4264  0.6974  1.6483
18198TIP3    H276086   0.360   5.638  10.738  0.9239 -0.8854 -0.0845
18199TIP3   OH276087   3.459   5.048  15.551 -0.8195  0.0521 -0.3593
18199TIP3    H176088   3.416   5.092  15.477  0.6146  1.4555 -0.4153
18199TIP3    H276089   3.462   5.116  15.619 -0.5014 -0.6585  0.3418
18200TIP3   OH276090   4.837   2.172  16.043  0.3630 -0.1134 -0.5821
18200TIP3    H176091   4.863   2.206  15.957  1.4678 -0.7280 -0.5081
18200TIP3    H276092   4.742   2.162  16.036  0.5923 -1.8142 -2.3767
18201TIP3   OH276093   5.916   2.720   0.967  0.1156 -0.1255  0.1580
18201TIP3    H176094   6.003   2.712   1.006  1.0219  0.1683 -1.7116
18201TIP3    H276095   5.878   2.797   1.009 -0.3672 -1.7447  2.9446
18202TIP3   OH276096   3.047   1.290   1.048  0.4565 -0.7248  0.1244
18202TIP3    H176097   3.001   1.266   0.967  1.2633  0.5009 -0.7358
18202TIP3    H276098   3.040   1.213   1.104 -2.6937 -0.5933  0.0874
18203TIP3   OH276099   1.218   3.964   2.616 -0.2566  0.6176 -0.1279
18203TIP3    H176100   1.165   3.969   2.696  1.1570  3.0947  0.7770
18203TIP3    H276101   1.308   3.964   2.647  0.3162  0.4777 -1.7008
18204TIP3   OH276102   4.547   1.366  15.292  0.1550  0.4037 -0.1790
18204TIP3    H176103   4.523   1.420  15.368  1.1827 -0.2827  0.6655
18204TIP3    H276104   4.483   1.294  15.293 -1.3939  1.6937 -1.4740
18205TIP3   OH276105   2.140   2.782  15.102  0.2117  0.1262 -0.3448
18205TIP3    H176106   2.081   2.755  15.172  2.1079  0.8582  1.6871
18205TIP3    H276107   2.174   2.701  15.065 -0.7261 -0.2688 -0.3522
18206TIP3   OH276108   5.362   2.398  15.081  0.0135 -0.6903 -0.0083
18206TIP3    H176109   5.288   2.339  15.089 -1.8399  1.1739 -1.8891
18206TIP3    H276110   5.353   2.459  15.154  0.3357 -1.0901  0.3697
18207TIP3   OH276111   2.030   1.030   2.327  0.3765  0.4975 -0.0894
18207TIP3    H176112   2.122   1.022   2.303  0.2787  1.0112 -0.6747
18207TIP3    H276113   2.028   1.018   2.422  0.9475 -0.2561 -0.1687
18208TIP3   OH276114   3.014   3.910  14.828 -0.2105 -0.5613  0.3451
18208TIP3    H176115   2.975   3.908  14.915 -0.1562  0.0105  0.3863
18208TIP3    H276116   2.975   3.987  14.786  1.4396  0.4975  0.6676
18209TIP3   OH276117   2.768   4.168  11.335  0.0576 -0.6678 -0.8385
18209TIP3    H176118   2.759   4.147  11.428  1.4154 -0.3453 -0.6045
18209TIP3    H276119   2.686   4.210  11.312 -0.0664 -0.1880  0.3864
18210TIP3   OH276120   6.406   4.151  13.553  0.1738  0.8265  0.3609
18210TIP3    H176121   6.393   4.063  13.517 -0.2267  0.5107  1.2657
18210TIP3    H276122   6.484   4.184  13.507  1.2703 -0.5985  1.1114
18211TIP3   OH276123   3.657   4.605   0.885  0.4299  0.0514 -0.2333
18211TIP3    H176124   3.573   4.581   0.926  0.2479  1.2546  0.1544
18211TIP3    H276125   3.723   4.576   0.947  0.2253  0.4188  0.1639
18212TIP3   OH276126   0.551   6.384   6.455 -0.1104  0.0021 -0.0955
18212TIP3    H176127   0.510   6.349   6.375  1.2834  0.4435 -1.0375
18212TIP3    H276128   0.510   6.335   6.526 -0.0934 -1.6811 -1.1942
18213TIP3   OH276129   0.366   3.796   6.121  0.3815  0.4650 -0.0946
18213TIP3    H176130   0.431   3.728   6.139 -0.4957 -0.5137 -0.5334
18213TIP3    H276131   0.305   3.791   6.195 -1.8264 -1.8810 -1.8838
18214TIP3   OH276132   5.153   3.144   3.771 -0.1281  0.6847 -0.0569
18214TIP3    H176133   5.105   3.081   3.824 -1.1128  1.8254  0.4622
18214TIP3    H276134   5.097   3.161   3.696  0.7302 -0.0277 -0.8823
18215TIP3   OH276135   3.998   2.924   4.363 -0.1222 -1.1552 -0.2141
18215TIP3    H176136   3.983   2.909   4.270 -4.6967  1.8461 -0.3056
18215TIP3    H276137   4.012   2.837   4.400 -1.2830 -2.7880 -3.2947
18216TIP3   OH276138   4.159   1.679  14.453  0.5663 -0.0953  0.0923
18216TIP3    H176139   4.195   1.652  14.368  3.2867 -0.3683  1.2257
18216TIP3    H276140   4.125   1.598  14.491  1.5236 -0.4349  0.2385
18217TIP3   OH276141   4.850   6.438  15.669  0.3900  0.1647 -0.0680
18217TIP3    H176142   4.839   6.446  15.764  0.0107 -0.6031 -0.0357
18217TIP3    H276143   4.849   6.528  15.637 -0.4759  0.3919  0.5518
18218TIP3   OH276144   6.509   1.150   3.632  0.1391  0.0725 -0.4350
18218TIP3    H176145   6.521   1.165   3.726 -2.3572 -0.1560 -0.0292
18218TIP3    H276146   6.471   1.062   3.626  1.9343 -0.6705 -1.8350
18219TIP3   OH276147   0.113   3.646   4.044  0.2870 -0.2163 -0.1482
18219TIP3    H176148   0.055   3.612   4.112 -0.4638  0.3351 -0.5094
18219TIP3    H276149   0.147   3.568   4.000 -0.9026 -0.5208 -0.5429
18220TIP3   OH276150   4.643   3.188   4.621 -0.2074 -0.2090 -0.2591
18220TIP3    H176151   4.610   3.253   4.559 -0.6047  0.0170  0.1787
18220TIP3    H276152   4.575   3.183   4.688  0.3107 -0.2913  0.2696
18221TIP3   OH276153   1.800   5.931  14.443  0.1839 -0.0267 -0.5285
18221TIP3    H176154   1.861   6.004  14.442 -0.5256  0.5833 -0.0869
18221TIP3    H276155   1.832   5.874  14.513  0.9373 -0.3295 -1.1045
18222TIP3   OH276156   6.380   3.349  17.038 -0.1371  0.1948  0.2949
18222TIP3    H176157   6.437   3.395  16.977 -0.3283  1.2343  0.8667
18222TIP3    H276158   6.372   3.261  17.003  0.0608  0.6681 -0.9667
18223TIP3   OH276159   0.681   6.848  17.109  0.5380 -0.1065  0.1079
18223TIP3    H176160   0.762   6.801  17.130  0.7637  0.2298  0.0100
18223TIP3    H276161   0.681   6.852  17.013 -1.2446 -2.9653 -0.1272
18224TIP3   OH276162   2.018   5.382   1.493  0.0180 -0.9511 -0.6653
18224TIP3    H176163   2.075   5.442   1.445 -2.2814  1.6207 -0.4430
18224TIP3    H276164   1.936   5.382   1.443 -1.0897 -1.4341  1.0601
18225TIP3   OH276165   1.911   1.459  11.304  0.2585  0.4824 -0.0819
18225TIP3    H176166   1.824   1.430  11.331  0.5549 -0.4664 -0.1168
18225TIP3    H276167   1.957   1.478  11.386  0.0088  1.0523 -0.0656
18226TIP3   OH276168   6.501   6.215   5.850 -0.1473 -0.0940 -0.0842
18226TIP3    H176169   6.548   6.293   5.880  0.8037 -0.6737  0.0070
18226TIP3    H276170   6.437   6.248   5.787  0.4016  0.7322 -0.2293
18227TIP3   OH276171   2.669   5.123  17.037 -0.0340  0.0365 -0.3023
18227TIP3    H176172   2.679   5.034  17.002 -1.0577 -0.1918 -0.0602
18227TIP3    H276173   2.601   5.114  17.104  1.2242  0.6308  1.1209
18228TIP3   OH276174   0.628   6.282   5.937 -0.2431  0.0648 -0.0312
18228TIP3    H176175   0.717   6.307   5.962 -0.6442 -0.0491  1.5604
18228TIP3    H276176   0.573   6.314   6.008 -1.3904 -0.5789 -0.6067
18229TIP3   OH276177   3.831   1.412   4.750  0.2939 -0.0489  0.3882
18229TIP3    H176178   3.801   1.340   4.805  0.2965  0.3808  0.9614
18229TIP3    H276179   3.828   1.489   4.807  2.2216  0.0684  0.4111
18230TIP3   OH276180   2.059   1.984  15.891  0.8655  0.2551 -0.0609
18230TIP3    H176181   2.005   1.905  15.890 -0.0053  0.7979  0.9283
18230TIP3    H276182   1.997   2.056  15.875  1.8093  0.6854 -2.0585
18231TIP3   OH276183   1.500   4.140  12.822 -0.0620 -0.0550 -0.0977
18231TIP3    H176184   1.475   4.050  12.800 -1.2716  1.0183 -3.7100
18231TIP3    H276185   1.588   4.149  12.787 -0.1593  0.3285 -0.2397
18232TIP3   OH276186   2.822   3.568   3.096  0.0290 -0.5154 -0.1973
18232TIP3    H176187   2.764   3.504   3.056  0.7371 -0.6865 -0.9747
18232TIP3    H276188   2.772   3.604   3.169 -1.6469  0.4589 -1.7569
18233TIP3   OH276189   1.223   3.061   1.907  0.1176 -0.3002  0.3749
18233TIP3    H176190   1.247   3.092   1.820  0.2256 -2.7749 -0.5522
18233TIP3    H276191   1.135   3.026   1.897 -0.8171  1.4390  1.8611
18234TIP3   OH276192   3.354   1.525   3.508 -0.8340  0.2411 -0.2118
18234TIP3    H176193   3.294   1.499   3.578 -0.7011 -0.2191 -0.2645
18234TIP3    H276194   3.325   1.612   3.482 -0.7287  0.5323  0.5999
18235TIP3   OH276195   6.457   5.024   2.608  0.1590  0.2726  0.6409
18235TIP3    H176196   6.541   5.059   2.637  0.6580 -0.5305  0.1843
18235TIP3    H276197   6.431   5.081   2.535  1.7111 -1.1522 -1.1243
18236TIP3   OH276198   2.080   3.412   0.858 -0.1431 -0.1475 -0.2078
18236TIP3    H176199   2.060   3.439   0.769 -0.2872  2.2746  0.4805
18236TIP3    H276200   1.998   3.374   0.891 -1.2457  2.2599 -0.0039
18237TIP3   OH276201   4.567   2.247  14.588 -0.0626 -0.2441  0.4381
18237TIP3    H176202   4.551   2.170  14.643  2.0262 -1.3135 -0.3299
18237TIP3    H276203   4.557   2.321  14.647 -1.1144 -1.1439  1.4413
18238TIP3   OH276204   3.481   1.443   1.283 -0.1141  0.5575  0.3238
18238TIP3    H176205   3.433   1.376   1.332 -2.5043  0.7687 -1.5560
18238TIP3    H276206   3.481   1.412   1.192  0.4100  2.1968 -0.2803
18239TIP3   OH276207   0.779   2.245   4.062 -0.4378  0.2544  0.1755
18239TIP3    H176208   0.693   2.240   4.020 -0.3343  0.8250 -0.1148
18239TIP3    H276209   0.817   2.159   4.048 -1.1110 -0.1347  0.6441
18240TIP3   OH276210   3.623   0.209  14.776 -0.3713 -0.0573 -0.3243
18240TIP3    H176211   3.552   0.147  14.788 -0.6072 -0.4362 -3.0067
18240TIP3    H276212   3.700   0.155  14.757  0.3351  0.3933  1.1234
18241TIP3   OH276213   3.178   3.791   2.711  0.4841  0.1939 -0.0975
18241TIP3    H176214   3.125   3.741   2.648 -0.6841  0.3074  0.7706
18241TIP3    H276215   3.143   3.767   2.796  3.6424 -1.8952  0.8161
18242TIP3   OH276216   5.012   1.469  12.534  0.2527 -0.2115  0.0281
18242TIP3    H176217   5.086   1.530  12.535  0.8410 -0.8338 -1.6652
18242TIP3    H276218   5.040   1.396  12.589  1.6862 -1.2457 -1.9585
18243TIP3   OH276219   4.410   0.173   0.209 -0.2766 -0.0130  0.1805
18243TIP3    H176220   4.351   0.148   0.138 -0.6100  0.1404  0.4025
18243TIP3    H276221   4.450   0.255   0.179  0.4463 -0.5459 -0.3322
18244TIP3   OH276222   6.594   6.142  13.339  0.8096 -0.4881  0.2275
18244TIP3    H176223   6.502   6.163  13.322  1.0812 -1.1635 -2.4496
18244TIP3    H276224   6.624   6.213  13.396 -1.5491 -0.7340  1.9207
18245TIP3   OH276225   0.531   6.186   4.478  0.0192 -0.3065 -0.2432
18245TIP3    H176226   0.489   6.109   4.516 -1.9410 -0.9789 -3.4411
18245TIP3    H276227   0.616   6.155   4.447 -0.2842 -0.8967 -0.4884
18246TIP3   OH276228   2.236   1.483  12.816  0.3741  0.2296  0.4660
18246TIP3    H176229   2.275   1.444  12.894 -0.5727 -0.9040  0.4093
18246TIP3    H276230   2.249   1.577  12.826  0.1315  0.1151  2.0571
18247TIP3   OH276231   5.969   5.862   4.434  0.4514 -0.7001  0.9693
18247TIP3    H176232   5.925   5.924   4.493 -0.3243 -0.3874  0.0866
18247TIP3    H276233   5.910   5.855   4.359  2.2997  0.4501 -0.6858
18248TIP3   OH276234   0.582   5.371   1.228  0.6025  0.1724 -0.9356
18248TIP3    H176235   0.633   5.293   1.209 -0.9288 -1.1780  0.1800
18248TIP3    H276236   0.559   5.363   1.321  1.1687  2.4425 -0.5350
18249TIP3   OH276237   4.420   1.473  13.231  0.2457  0.7499  0.0056
18249TIP3    H176238   4.422   1.379  13.216 -1.8427  0.2250  2.3707
18249TIP3    H276239   4.512   1.496  13.248  0.4489 -1.6333  3.0773
18250TIP3   OH276240   1.637   0.048   4.680 -0.3008  0.4620 -0.3174
18250TIP3    H176241   1.660   0.059   4.772 -1.6869  1.5142 -0.0683
18250TIP3    H276242   1.614  -0.045   4.672 -1.2440  0.5939  0.6634
18251TIP3   OH276243   1.373   1.847  13.999  0.0724 -0.2325 -0.6866
18251TIP3    H176244   1.430   1.813  14.068  0.8325  0.2669 -1.0561
18251TIP3    H276245   1.378   1.782  13.929 -0.2874 -0.4842 -0.4784
18252TIP3   OH276246   2.680   2.468  13.210  0.8094  0.1131  0.4091
18252TIP3    H176247   2.630   2.546  13.185  1.6831  0.3365 -0.7664
18252TIP3    H276248   2.709   2.432  13.126  1.3400 -0.8512  1.0004
18253TIP3   OH276249   5.095   4.686   6.809 -0.4186 -0.1685  0.7618
18253TIP3    H176250   5.024   4.665   6.869 -1.7841 -0.7625 -0.9782
18253TIP3    H276251   5.073   4.772   6.774  1.1654  0.8659  2.1858
18254TIP3   OH276252   3.412   3.294   2.269  0.3499  0.2153  0.1065
18254TIP3    H176253   3.445   3.299   2.359 -0.3231 -0.1545  0.3778
18254TIP3    H276254   3.352   3.369   2.261  0.3136  0.1753  0.0048
18255TIP3   OH276255   4.285   4.498   1.046 -0.2738 -0.1076  0.0425
18255TIP3    H176256   4.291   4.581   1.094 -0.0013 -0.2553  0.2677
18255TIP3    H276257   4.345   4.508   0.973 -2.3973  1.0269 -1.6805
18256TIP3   OH276258   2.306   1.445  14.748  0.2414  0.4312  0.9504
18256TIP3    H176259   2.340   1.503  14.817  0.0605 -0.0256  1.4282
18256TIP3    H276260   2.380   1.389  14.726  0.2359  0.4355  0.9207
18257TIP3   OH276261   2.667   0.609  15.650 -0.2148 -0.6691  0.1463
18257TIP3    H176262   2.736   0.548  15.623 -0.2175 -1.3272  1.4975
18257TIP3    H276263   2.640   0.652  15.570  0.5149 -1.7098 -0.6952
18258TIP3   OH276264   3.874   0.437   5.300 -0.2668 -0.6472 -0.0148
18258TIP3    H176265   3.785   0.424   5.332 -0.1899 -0.0834  0.4474
18258TIP3    H276266   3.874   0.399   5.212 -0.5011 -2.1509  0.6216
18259TIP3   OH276267   1.234   2.826   3.988  0.5128  0.0277 -0.6501
18259TIP3    H176268   1.166   2.891   3.971  0.1730  0.0672  0.7841
18259TIP3    H276269   1.188   2.742   3.985  0.3683  0.0562  0.3535
18260TIP3   OH276270   5.019   1.763  14.005 -0.1779 -0.2879  0.2611
18260TIP3    H176271   4.946   1.746  13.944 -0.8443  1.2619  0.5781
18260TIP3    H276272   4.977   1.765  14.091 -0.1525  2.5162  0.2830
18261TIP3   OH276273   5.480   5.836   4.654 -0.3813 -0.2285 -0.1346
18261TIP3    H176274   5.483   5.844   4.558 -0.3305  0.7641 -0.0605
18261TIP3    H276275   5.461   5.744   4.670 -3.3563  0.1115 -1.1430
18262TIP3   OH276276   6.175   0.792  16.210  0.4402 -0.2431 -0.2549
18262TIP3    H176277   6.203   0.713  16.256 -1.4377  0.3311  2.0973
18262TIP3    H276278   6.247   0.853  16.221  1.0498 -0.9406 -0.2786
18263TIP3   OH276279   2.461   0.463  14.669 -0.2611 -0.3776 -0.8594
18263TIP3    H176280   2.416   0.523  14.729  1.3091  1.2396 -1.2082
18263TIP3    H276281   2.414   0.472  14.586 -0.6316 -0.3668 -0.6477
18264TIP3   OH276282   0.623   5.692  14.445 -0.3608  0.5628 -0.0593
18264TIP3    H176283   0.587   5.665  14.361  0.0920  0.9199 -0.3691
18264TIP3    H276284   0.550   5.683  14.506 -0.6426  0.1405 -0.4544
18265TIP3   OH276285   1.170   0.322  12.417 -0.2636  0.0302  0.2265
18265TIP3    H176286   1.168   0.399  12.474 -0.7472 -0.3246  0.6871
18265TIP3    H276287   1.149   0.249  12.474 -2.1346 -0.1769 -0.6658
18266TIP3   OH276288   1.333   5.842   2.314  0.5970 -0.1351  0.7564
18266TIP3    H176289   1.277   5.781   2.363  1.8047 -2.1333 -0.1905
18266TIP3    H276290   1.395   5.875   2.378 -0.3179  0.4152  1.3706
18267TIP3   OH276291   3.763   1.134  16.372  0.0911 -0.2606  0.8436
18267TIP3    H176292   3.780   1.039  16.368  0.4291 -0.1700 -0.2010
18267TIP3    H276293   3.668   1.141  16.369  0.0397 -0.5883  1.5762
18268TIP3   OH276294   5.187   0.030   3.572 -0.1974 -0.4970 -0.1479
18268TIP3    H176295   5.254   0.093   3.598 -0.6434 -0.2542  0.4452
18268TIP3    H276296   5.136   0.015   3.652 -2.5951  1.4482 -1.1748
18269TIP3   OH276297   5.594   4.832  12.279 -0.3795  0.7183  0.4046
18269TIP3    H176298   5.679   4.788  12.273 -1.7469 -2.2160  1.0391
18269TIP3    H276299   5.597   4.880  12.361  1.8998  3.7457 -1.2446
18270TIP3   OH276300   0.573   5.338   4.437  0.2276 -0.3566 -0.3323
18270TIP3    H176301   0.625   5.363   4.361  0.6455 -1.2649 -0.3464
18270TIP3    H276302   0.599   5.248   4.457 -0.5244 -0.4406  0.3411
18271TIP3   OH276303   4.852   3.936  12.367  0.3759 -0.2188 -0.1166
18271TIP3    H176304   4.823   3.869  12.429  1.2704 -0.6681 -0.1660
18271TIP3    H276305   4.776   3.991  12.354 -0.1559 -0.7880  0.5124
18272TIP3   OH276306   0.899   6.054  15.523  0.1171  0.1617  0.4666
18272TIP3    H176307   0.988   6.065  15.489  0.0526  0.7146  0.4666
18272TIP3    H276308   0.905   6.086  15.613 -0.0851  0.1943  0.4668
18273TIP3   OH276309   0.235   4.455   4.558 -0.2998  0.1109 -0.0713
18273TIP3    H176310   0.231   4.380   4.500 -1.4225  1.2219 -1.5156
18273TIP3    H276311   0.241   4.418   4.646  1.0247 -1.6141 -0.8434
18274TIP3   OH276312   6.413   0.556  15.738  0.0884  0.1422  0.3807
18274TIP3    H176313   6.494   0.565  15.788 -0.9848  0.0264  2.2429
18274TIP3    H276314   6.398   0.461  15.733  0.1412  0.1551 -0.1118
18275TIP3   OH276315   4.300   3.459  16.264  0.9235  0.1612  0.0734
18275TIP3    H176316   4.205   3.457  16.271  0.9372 -0.9075  0.1434
18275TIP3    H276317   4.319   3.411  16.183  1.4538 -1.0419  0.8769
18276TIP3   OH276318   0.610   4.026   3.587 -0.0289  0.0068 -0.3074
18276TIP3    H176319   0.540   3.960   3.589  0.6650 -0.7593  1.7458
18276TIP3    H276320   0.644   4.022   3.498 -1.2805 -1.0319 -0.7795
18277TIP3   OH276321   3.080   1.311   4.706  0.2353  0.0605  0.4129
18277TIP3    H176322   3.145   1.271   4.763 -0.1407 -0.8830  0.1954
18277TIP3    H276323   3.099   1.405   4.710  2.0807 -0.2488 -0.2644
18278TIP3   OH276324   4.811   6.239   0.874  0.4950  0.4448  0.6876
18278TIP3    H176325   4.778   6.183   0.943  0.9482  0.9327  1.3198
18278TIP3    H276326   4.902   6.257   0.899  1.5648 -1.5325 -1.4207
18279TIP3   OH276327   0.824   4.908   6.385  0.1942  0.2326 -0.1905
18279TIP3    H176328   0.745   4.922   6.437 -0.6009 -1.2740 -0.9377
18279TIP3    H276329   0.896   4.916   6.448 -0.5451  1.3382  0.5520
18280TIP3   OH276330   2.368   2.414  12.975 -0.7501  0.1283  0.2746
18280TIP3    H176331   2.318   2.338  12.945 -0.8037  1.2366 -2.8407
18280TIP3    H276332   2.446   2.415  12.919 -1.8121  3.5010 -1.4546
18281TIP3   OH276333   1.634   6.335   2.112  0.0897  0.4268  0.2973
18281TIP3    H176334   1.704   6.274   2.089  0.3612  1.3475 -1.5073
18281TIP3    H276335   1.554   6.283   2.110  0.5816 -0.4020  1.3301
18282TIP3   OH276336   1.278   5.414   5.716 -0.5263  0.1396  0.0111
18282TIP3    H176337   1.356   5.393   5.664  0.3850 -2.0018  2.0802
18282TIP3    H276338   1.309   5.416   5.806 -2.9998 -1.5907  0.9976
18283TIP3   OH276339   2.598   4.333   0.299 -0.0410  0.1210  0.2878
18283TIP3    H176340   2.691   4.343   0.318 -0.3076  1.2443  1.0915
18283TIP3    H276341   2.594   4.320   0.204  0.9176  0.2579  0.2176
18284TIP3   OH276342   4.970   1.131   4.788 -0.4921  0.0512 -0.4297
18284TIP3    H176343   4.945   1.191   4.717  0.1987  0.9787  0.0830
18284TIP3    H276344   4.896   1.136   4.850 -0.5131  0.2639 -0.4688
18285TIP3   OH276345   6.467   4.877   0.598 -0.2723  0.1550 -0.0729
18285TIP3    H176346   6.495   4.827   0.674 -0.1381 -0.4659 -0.5214
18285TIP3    H276347   6.408   4.943   0.633 -1.4995 -1.1404  0.3913
18286TIP3   OH276348   1.467   4.146  15.707 -0.3023 -0.0862  0.2963
18286TIP3    H176349   1.411   4.069  15.718  0.0615 -0.5589 -0.9998
18286TIP3    H276350   1.418   4.202  15.646 -0.3862  0.5345  0.9292
18287TIP3   OH276351   5.510   4.662  14.330 -0.3208  0.1172  0.2301
18287TIP3    H176352   5.437   4.723  14.321 -0.4884 -0.2165 -0.9712
18287TIP3    H276353   5.588   4.716  14.319 -0.4879  0.0031 -1.9613
18288TIP3   OH276354   5.610   0.728   0.863 -0.4679  0.3398 -0.1414
18288TIP3    H176355   5.693   0.703   0.824  1.0010  1.2344  2.2015
18288TIP3    H276356   5.633   0.791   0.931 -2.9343 -0.2467  1.3815
18289TIP3   OH276357   1.318   1.799  16.430  0.3175  0.1324 -0.8231
18289TIP3    H176358   1.401   1.771  16.469 -0.6805 -0.3291  1.0892
18289TIP3    H276359   1.271   1.717  16.413 -0.8208  0.4053  0.6899
18290TIP3   OH276360   4.400   0.964   3.193 -0.4577  0.0386  0.1064
18290TIP3    H176361   4.315   1.007   3.207 -0.5893 -0.9021  2.9201
18290TIP3    H276362   4.465   1.031   3.215 -0.5542  0.0054  0.5007
18291TIP3   OH276363   4.476   0.380  12.034  0.4806 -0.0926  0.0389
18291TIP3    H176364   4.388   0.382  12.071  0.5130  2.1348  0.1663
18291TIP3    H276365   4.474   0.446  11.965  1.0820 -2.5164 -2.4831
18292TIP3   OH276366   1.233   0.923   1.393  0.7552  0.0724 -0.4691
18292TIP3    H176367   1.198   0.834   1.401 -0.1030  0.0088 -3.5504
18292TIP3    H276368   1.296   0.918   1.321  1.4804  1.7885 -0.0187
18293TIP3   OH276369   3.640   4.704   3.357 -0.6512 -1.0122  0.7841
18293TIP3    H176370   3.721   4.754   3.365 -0.7516 -0.7039 -0.0883
18293TIP3    H276371   3.603   4.706   3.445  0.4989 -1.5290  1.2973
18294TIP3   OH276372   2.965   1.578  12.105  0.4092  0.2891  0.5001
18294TIP3    H176373   3.020   1.640  12.058 -0.5970  0.1481 -0.9134
18294TIP3    H276374   3.016   1.497  12.108 -0.3633 -0.3964 -2.3903
18295TIP3   OH276375   5.302   6.063   3.195  0.6161  0.0562 -0.4679
18295TIP3    H176376   5.389   6.096   3.217  0.2780  1.6374 -1.3991
18295TIP3    H276377   5.299   6.065   3.099 -0.6425  0.5845 -0.4376
18296TIP3   OH276378   6.749   0.507   4.767 -0.1779 -0.5866  0.0151
18296TIP3    H176379   6.763   0.543   4.680  0.6047 -1.8497 -0.4032
18296TIP3    H276380   6.771   0.579   4.826 -2.5338  0.9241 -0.7872
18297TIP3   OH276381   2.414   6.556  16.769 -0.6029  0.1857 -0.5278
18297TIP3    H176382   2.437   6.591  16.683  1.2736  0.4301  0.0306
18297TIP3    H276383   2.430   6.462  16.761  1.9163  0.4902  0.1915
18298TIP3   OH276384   1.654   0.346   2.102 -0.2172 -0.4315 -0.6431
18298TIP3    H176385   1.709   0.312   2.173 -1.3233 -0.9313 -0.0097
18298TIP3    H276386   1.699   0.318   2.022  0.2440 -1.1650 -0.1386
18299TIP3   OH276387   4.010   0.939   5.047  0.3549  0.3060  0.6629
18299TIP3    H176388   4.083   0.973   5.099  1.6431 -1.6250  0.2054
18299TIP3    H276389   3.980   0.863   5.096 -0.1509  0.0116 -0.1059
18300TIP3   OH276390   1.695   3.299   3.394  0.1913 -0.3717  0.4887
18300TIP3    H176391   1.607   3.266   3.378  0.6087 -1.0010 -0.6596
18300TIP3    H276392   1.748   3.220   3.407  0.9287 -0.1286 -0.7851
18301TIP3   OH276393   0.151   0.252  14.812 -0.0905 -0.1828  0.1093
18301TIP3    H176394   0.211   0.203  14.867 -0.7235 -0.0605  0.9398
18301TIP3    H276395   0.067   0.206  14.821 -0.6709  0.9730  0.8240
18302TIP3   OH276396   4.070   1.739   5.174  0.0337 -0.1225  0.4660
18302TIP3    H176397   4.130   1.684   5.225  1.3068  2.2882  1.7656
18302TIP3    H276398   3.983   1.703   5.193  0.6016 -0.3329  3.1419
18303TIP3   OH276399   4.216   0.895   1.524  0.2031 -0.3259  0.3737
18303TIP3    H176400   4.235   0.901   1.617 -0.4213 -0.6721  0.5273
18303TIP3    H276401   4.153   0.824   1.516  2.1938 -2.1089 -0.6097
18304TIP3   OH276402   5.262   3.481  12.270 -0.5009  0.4344 -0.1150
18304TIP3    H176403   5.303   3.406  12.312 -0.3372  0.0848 -0.8885
18304TIP3    H276404   5.250   3.544  12.341  0.7554  0.2801  0.2578
18305TIP3   OH276405   4.462   5.790  17.092  0.0616  0.0466  0.3784
18305TIP3    H176406   4.411   5.763  17.015  0.9109  1.0744 -0.5831
18305TIP3    H276407   4.421   5.873  17.119  1.0394  0.7768 -0.2826
18306TIP3   OH276408   1.142   4.576   5.274  0.3217  0.6479  0.2831
18306TIP3    H176409   1.077   4.511   5.300 -1.0495  2.2163  0.9361
18306TIP3    H276410   1.223   4.547   5.316  0.0236 -1.2015 -0.3232
18307TIP3   OH276411   5.279   6.332  14.509  0.1928  0.8267 -0.5271
18307TIP3    H176412   5.287   6.286  14.426 -0.5072 -1.9547  0.8078
18307TIP3    H276413   5.194   6.304  14.544  0.6091  1.6434  1.2672
18308TIP3   OH276414   3.016   0.677   0.433 -0.0889 -0.2571 -0.5482
18308TIP3    H176415   3.012   0.669   0.528  0.0507  0.7830 -0.4478
18308TIP3    H276416   3.108   0.665   0.411  0.0445  0.5536 -0.4456
18309TIP3   OH276417   4.314   6.116   1.789  0.4757  0.0767  0.2394
18309TIP3    H176418   4.271   6.044   1.834 -1.5743  1.5400  0.7613
18309TIP3    H276419   4.301   6.191   1.847 -0.3213  1.5506 -1.7502
18310TIP3   OH276420   2.196   2.203  12.916 -0.0509  0.6461 -0.3511
18310TIP3    H176421   2.107   2.182  12.887 -0.1627  1.4588 -0.6404
18310TIP3    H276422   2.252   2.173  12.845 -0.1540  0.7099 -0.4612
18311TIP3   OH276423   0.252   1.185   1.217 -0.4316  0.1159  0.2311
18311TIP3    H176424   0.290   1.183   1.130 -0.7145  0.7735  0.0892
18311TIP3    H276425   0.287   1.264   1.258 -0.2843 -0.1985  0.7228
18312TIP3   OH276426   0.037   4.638  14.959  0.4002 -0.0234 -0.1874
18312TIP3    H176427  -0.037   4.582  14.983  0.2441  0.9023  1.7176
18312TIP3    H276428   0.114   4.592  14.993  0.8585 -1.2734 -2.6756
18313TIP3   OH276429   5.290   2.057  11.243  0.2238 -0.2262 -0.1379
18313TIP3    H176430   5.249   2.072  11.157  0.7082  1.1442 -0.1496
18313TIP3    H276431   5.323   1.967  11.238  1.9933  0.4579 -2.1427
18314TIP3   OH276432   1.067   5.888   4.227 -0.1165 -0.1258 -0.4105
18314TIP3    H176433   1.015   5.917   4.152 -0.7755  1.2469  0.5346
18314TIP3    H276434   1.004   5.845   4.284  0.4404 -1.4363 -0.7483
18315TIP3   OH276435   4.255   2.212   2.448  0.3275  0.1951 -0.0562
18315TIP3    H176436   4.255   2.205   2.352 -3.0365 -1.8220 -0.0416
18315TIP3    H276437   4.188   2.277   2.468  0.2724 -0.1488  0.9545
18316TIP3   OH276438   0.661   6.339   5.451  0.1387  0.4890 -0.0269
18316TIP3    H176439   0.686   6.351   5.359  0.5229 -1.5041 -0.2250
18316TIP3    H276440   0.744   6.330   5.497 -0.0751 -0.3952  0.2049
18317TIP3   OH276441   6.493   0.851   0.491  0.3630  0.1723 -0.3928
18317TIP3    H176442   6.445   0.902   0.556 -0.1000 -1.9320  1.0328
18317TIP3    H276443   6.581   0.889   0.490  0.4856  0.0447  1.7843
18318TIP3   OH276444   3.291   2.245  12.859 -0.4063  0.2717 -0.2219
18318TIP3    H176445   3.266   2.330  12.824 -2.0339  0.2426  0.7725
18318TIP3    H276446   3.315   2.261  12.950 -2.3089 -0.4858  0.4864
18319TIP3   OH276447   0.318   1.744   4.129  0.1748  0.1778 -0.2636
18319TIP3    H176448   0.237   1.735   4.179  0.8893  1.8023  1.3056
18319TIP3    H276449   0.307   1.826   4.080 -0.5878 -1.4675 -3.0626
18320TIP3   OH276450   6.060   5.124  12.522  0.1588 -0.3003  0.0130
18320TIP3    H176451   5.979   5.098  12.568  0.7086 -3.0926 -0.4496
18320TIP3    H276452   6.125   5.059  12.549  1.7074  0.6550 -1.2570
18321TIP3   OH276453   5.269   3.123   2.283  0.3895 -0.0543  0.0009
18321TIP3    H176454   5.209   3.105   2.355 -0.0588 -1.5063 -0.7038
18321TIP3    H276455   5.213   3.161   2.215  0.6038  0.2396 -0.0151
18322TIP3   OH276456   0.314   3.866   1.495  0.2940 -0.3095  0.5592
18322TIP3    H176457   0.325   3.772   1.505  0.7536 -0.3551 -0.3341
18322TIP3    H276458   0.328   3.883   1.402 -1.4854  0.4185  0.3900
18323TIP3   OH276459   1.133   6.598   0.289 -0.1956 -0.0583  0.2997
18323TIP3    H176460   1.086   6.554   0.359 -1.1804 -1.5611 -1.2196
18323TIP3    H276461   1.066   6.651   0.245 -0.2221 -1.1460 -1.0466
18324TIP3   OH276462   4.069   1.286   4.204 -0.4634 -1.0029  1.0616
18324TIP3    H176463   4.000   1.349   4.184  0.9995  0.3268 -0.0007
18324TIP3    H276464   4.028   1.200   4.189 -0.8036 -0.2639 -3.8507
18325TIP3   OH276465   5.695   1.578  16.227 -0.9855 -0.4010 -0.6433
18325TIP3    H176466   5.739   1.512  16.173 -1.2310 -1.3962  0.3193
18325TIP3    H276467   5.602   1.562  16.214 -1.0556 -1.0525  0.4909
18326TIP3   OH276468   4.102   2.987   3.829  0.0051 -0.0478  0.3028
18326TIP3    H176469   4.140   2.992   3.742  0.4602  0.3105  0.5208
18326TIP3    H276470   4.008   2.977   3.813  0.1532 -0.6280 -0.2306
18327TIP3   OH276471   4.910   5.671   2.411 -0.1438  0.1794 -0.2209
18327TIP3    H176472   4.817   5.691   2.401 -0.4709 -1.0098  0.3274
18327TIP3    H276473   4.939   5.727   2.483 -0.7707 -0.4122  0.5099
18328TIP3   OH276474   3.285   4.649   2.664  0.2329  0.0122 -0.5964
18328TIP3    H176475   3.206   4.626   2.713  0.6489 -2.3420 -0.8966
18328TIP3    H276476   3.343   4.688   2.729 -0.1324 -0.8369  0.2725
18329TIP3   OH276477   4.049   4.472   0.889  0.1515 -0.2825 -0.0493
18329TIP3    H176478   4.140   4.448   0.870  0.3375 -0.0807  0.5629
18329TIP3    H276479   4.039   4.454   0.983  0.4916  2.5727  0.6146
18330TIP3   OH276480   0.820   3.749   4.089  0.3342  0.2790 -0.2092
18330TIP3    H176481   0.900   3.801   4.082  1.4423 -1.2218  0.5972
18330TIP3    H276482   0.801   3.747   4.183 -1.6199  1.9273 -0.4910
18331TIP3   OH276483   1.054   4.104  16.638 -0.3707 -0.4861  0.3385
18331TIP3    H176484   1.061   4.152  16.555  0.7784 -1.2817 -0.0398
18331TIP3    H276485   1.144   4.082  16.662 -0.6739 -0.1778  1.8729
18332TIP3   OH276486   0.560   6.563   2.885  0.0142 -0.0036 -0.4270
18332TIP3    H176487   0.536   6.503   2.815  2.0672  2.0976 -3.1669
18332TIP3    H276488   0.586   6.643   2.840 -0.8294  2.3675  2.9218
18333TIP3   OH276489   6.432   3.555   4.586 -0.3423  0.0519 -0.8059
18333TIP3    H176490   6.416   3.529   4.676 -1.4957 -0.1818 -1.0638
18333TIP3    H276491   6.505   3.616   4.591  0.3304 -0.8154  0.1503
18334TIP3   OH276492   6.713   0.495  10.956  0.1229 -0.1699 -0.1370
18334TIP3    H176493   6.745   0.498  10.866  1.3119  0.0872  0.2766
18334TIP3    H276494   6.787   0.526  11.009 -0.6033 -0.1845  0.9151
18335TIP3   OH276495   1.094   0.627  15.720  0.5404  0.5083  0.4421
18335TIP3    H176496   1.043   0.561  15.673  0.9650  1.2559 -1.1412
18335TIP3    H276497   1.129   0.580  15.796 -1.1439 -0.4365  0.6912
18336TIP3   OH276498   0.300   4.592   1.984 -0.3918 -0.1900 -0.5868
18336TIP3    H176499   0.382   4.578   1.936 -0.4443  1.0008 -1.0636
18336TIP3    H276500   0.251   4.511   1.971  0.3697 -0.6015 -0.9916
18337TIP3   OH276501   2.184   1.670   1.824  0.3423 -0.1448  0.9066
18337TIP3    H176502   2.269   1.654   1.865  0.5300  0.1350  0.6410
18337TIP3    H276503   2.130   1.709   1.893  0.5391 -0.0124  0.9875
18338TIP3   OH276504   4.780   2.397   4.845  0.0975  0.4044  0.5745
18338TIP3    H176505   4.807   2.468   4.904 -1.0577  0.0703  1.5545
18338TIP3    H276506   4.726   2.441   4.779  1.3950  0.7808 -0.2727
18339TIP3   OH276507   3.457   5.963  16.787 -0.5138 -0.0768 -0.0040
18339TIP3    H176508   3.451   5.870  16.767  1.1958 -0.2333  0.1098
18339TIP3    H276509   3.493   5.967  16.875 -2.5167  0.7032  0.8351
18340TIP3   OH276510   0.790   2.383   3.656 -0.5510 -0.6460  0.0611
18340TIP3    H176511   0.726   2.313   3.645 -2.2334  0.5255  1.7712
18340TIP3    H276512   0.745   2.449   3.709  0.1942  2.6922 -3.0515
18341TIP3   OH276513   5.617   6.715   4.880  0.4165 -0.7959  0.7319
18341TIP3    H176514   5.602   6.732   4.973 -1.9797  0.5766  0.1829
18341TIP3    H276515   5.566   6.637   4.861  0.2119 -0.5864  0.4068
18342TIP3   OH276516   0.380   3.535  16.562 -0.3906  0.5599  0.5331
18342TIP3    H176517   0.453   3.476  16.549  0.4704  1.8764 -0.9186
18342TIP3    H276518   0.309   3.498  16.509  0.2799  1.0040 -0.7268
18343TIP3   OH276519   4.827   0.188  15.924 -0.0309 -0.3867  0.1468
18343TIP3    H176520   4.737   0.217  15.914 -1.0437 -3.7521 -1.8330
18343TIP3    H276521   4.834   0.163  16.016 -0.4733  1.5638  0.7581
18344TIP3   OH276522   2.345   3.881   4.429  0.1721 -0.1684 -0.1173
18344TIP3    H176523   2.405   3.931   4.375 -0.6088  0.4206 -0.4695
18344TIP3    H276524   2.294   3.829   4.367 -0.3308  0.0701  0.0895
18345TIP3   OH276525   1.624   6.495   6.166  0.0838  0.7661 -0.4779
18345TIP3    H176526   1.598   6.469   6.077  0.7880 -1.4979 -0.0948
18345TIP3    H276527   1.625   6.412   6.215  0.5527  1.8549  1.4240
18346TIP3   OH276528   5.205   1.416   2.876 -0.0136 -0.5464 -0.3100
18346TIP3    H176529   5.137   1.483   2.863  1.1472  0.2175 -3.3498
18346TIP3    H276530   5.178   1.369   2.954 -1.9346  2.2280  0.8692
18347TIP3   OH276531   0.184   5.175  12.493 -0.0127  0.2212  0.0049
18347TIP3    H176532   0.162   5.253  12.441  1.8020  1.3708  0.8677
18347TIP3    H276533   0.156   5.196  12.582  2.6922  1.0112  0.7701
18348TIP3   OH276534   3.723   1.595  12.930 -0.1437  0.4585  0.5084
18348TIP3    H176535   3.791   1.661  12.944  1.0808 -0.8605  0.9925
18348TIP3    H276536   3.709   1.596  12.835  1.3488  0.0172  0.2479
18349TIP3   OH276537   5.258   4.623  10.668 -0.2028 -0.6506 -0.2320
18349TIP3    H176538   5.319   4.693  10.689 -0.5473 -0.4864  0.2596
18349TIP3    H276539   5.266   4.611  10.573  1.1926 -1.2145 -0.0520
18350TIP3   OH276540   4.980   2.214  11.214  0.4022  0.8784  0.3459
18350TIP3    H176541   4.969   2.294  11.163  0.9047  2.0723  2.0181
18350TIP3    H276542   4.934   2.232  11.296 -1.6389 -1.5281 -0.1625
18351TIP3   OH276543   5.660   5.554  16.303 -0.0440  0.0206 -0.0937
18351TIP3    H176544   5.717   5.621  16.343 -0.3254 -0.5950  1.3952
18351TIP3    H276545   5.670   5.478  16.360 -2.0701 -0.2240 -0.0071
18352TIP3   OH276546   2.702   3.676  16.291 -0.0603 -0.3520 -0.2217
18352TIP3    H176547   2.773   3.697  16.353 -0.6582  1.5380 -0.0916
18352TIP3    H276548   2.746   3.642  16.214  0.9417  0.0478  0.1573
18353TIP3   OH276549   4.280   2.118   1.176  0.2580 -0.0634 -0.2930
18353TIP3    H176550   4.281   2.138   1.082  1.0391  2.3036  0.1469
18353TIP3    H276551   4.240   2.195   1.216  0.8436 -0.6107  1.4103
18354TIP3   OH276552   4.797   0.888   3.339 -0.6503 -0.0422 -0.1062
18354TIP3    H176553   4.890   0.913   3.343 -1.2046  2.4279 -0.7129
18354TIP3    H276554   4.798   0.793   3.340  1.8554 -0.0924  0.6611
18355TIP3   OH276555   4.527   2.814   3.517 -0.1760 -0.3923  0.3123
18355TIP3    H176556   4.604   2.773   3.557  0.0358 -1.0288 -0.7117
18355TIP3    H276557   4.561   2.895   3.479 -0.1889 -0.2602  0.5765
18356TIP3   OH276558   4.642   0.757   4.845  0.9493  0.0365 -0.4194
18356TIP3    H176559   4.563   0.805   4.869  0.1705 -0.3155 -2.1070
18356TIP3    H276560   4.612   0.667   4.831  1.8370 -0.3117 -0.1976
18357TIP3   OH276561   6.827   3.437   0.909 -0.7774  0.0093  0.0591
18357TIP3    H176562   6.902   3.496   0.915 -1.6915  1.2445 -0.1889
18357TIP3    H276563   6.758   3.481   0.959 -1.5190 -0.7830 -0.2452
18358TIP3   OH276564   4.781   2.358   0.071 -0.1598 -0.3522 -0.1124
18358TIP3    H176565   4.746   2.305   0.142 -0.1335 -0.5754 -0.2630
18358TIP3    H276566   4.836   2.424   0.114 -0.5505 -0.1667  0.1053
18359TIP3   OH276567   1.156   5.104  11.568 -0.6170  0.0492 -0.1287
18359TIP3    H176568   1.089   5.166  11.596 -1.0874  1.1822 -3.3277
18359TIP3    H276569   1.235   5.132  11.615 -1.4002  1.4883  0.4015
18360TIP3   OH276570   5.170   2.871  12.262  0.2086  0.3842  0.2050
18360TIP3    H176571   5.102   2.909  12.207  0.8719  0.6539 -0.4507
18360TIP3    H276572   5.130   2.792  12.299  0.1949 -0.6137 -1.8151
18361TIP3   OH276573   6.387   3.533   1.006  0.5435  0.5067  0.5930
18361TIP3    H176574   6.338   3.456   1.033  0.7282  0.3797  0.5688
18361TIP3    H276575   6.334   3.607   1.035  0.1377  0.3719  0.1946
18362TIP3   OH276576   0.609   3.725   1.065  0.3827 -0.0167  0.3854
18362TIP3    H176577   0.687   3.681   1.032  0.5647 -0.1937  1.0377
18362TIP3    H276578   0.575   3.773   0.990  1.3229  0.3563  0.1868
18363TIP3   OH276579   0.227   5.425   1.698 -0.4735 -0.4155 -0.6052
18363TIP3    H176580   0.191   5.356   1.754  0.7765  0.1022  0.8975
18363TIP3    H276581   0.322   5.412   1.701 -0.3536 -0.4543 -2.7811
18364TIP3   OH276582   2.084   3.530   5.553  0.1928 -0.3756 -0.5629
18364TIP3    H176583   1.992   3.508   5.536  0.4582 -0.7034 -1.6698
18364TIP3    H276584   2.082   3.584   5.632 -0.8897 -0.8985 -0.2156
18365TIP3   OH276585   0.790   2.261  13.695 -0.4606  0.0470  0.0428
18365TIP3    H176586   0.773   2.355  13.690  1.4701  0.3735 -1.2241
18365TIP3    H276587   0.702   2.222  13.698 -1.3192  1.9012  2.3891
18366TIP3   OH276588   4.617   3.728  10.516 -0.2404 -0.1259 -0.2436
18366TIP3    H176589   4.708   3.747  10.537 -0.1882  1.5667 -1.7062
18366TIP3    H276590   4.597   3.787  10.443 -2.9498  0.6581  0.9960
18367TIP3   OH276591   1.411   2.457  15.433 -0.2201  0.3261 -0.4812
18367TIP3    H176592   1.353   2.495  15.368  1.0124  0.2520 -1.6612
18367TIP3    H276593   1.460   2.531  15.469 -0.0375  0.2316 -0.5305
18368TIP3   OH276594   0.115   4.346  12.281 -0.6660  0.1480  0.1213
18368TIP3    H176595   0.035   4.396  12.268 -1.1552 -0.7714 -0.4572
18368TIP3    H276596   0.088   4.254  12.275  0.2856 -0.1930  0.7599
18369TIP3   OH276597   5.449   3.442   4.589  0.0939 -0.4363 -0.0246
18369TIP3    H176598   5.395   3.410   4.662 -1.9830  1.2990 -0.6871
18369TIP3    H276599   5.509   3.370   4.570 -0.0714 -1.3744  2.6246
18370TIP3   OH276600   2.529   4.269   2.170 -0.0035  0.2176 -0.5679
18370TIP3    H176601   2.599   4.223   2.124  0.3042  0.2401 -0.1347
18370TIP3    H276602   2.449   4.224   2.144  0.1785  0.1470 -1.0143
18371TIP3   OH276603   0.341   1.392   5.570 -0.1383  0.0133  0.5792
18371TIP3    H176604   0.346   1.350   5.656 -2.1664 -0.4223  0.5470
18371TIP3    H276605   0.299   1.477   5.587 -0.7664 -0.1708  0.0196
18372TIP3   OH276606   3.834   2.893   1.530 -0.4315  0.3502  1.1636
18372TIP3    H176607   3.772   2.835   1.485 -0.6465  2.2235 -1.1820
18372TIP3    H276608   3.804   2.895   1.621 -2.2431 -0.7976  0.6419
18373TIP3   OH276609   5.880   3.813   5.372  0.7487 -0.2570 -0.7762
18373TIP3    H176610   5.835   3.745   5.321 -0.4028 -0.3745  0.3345
18373TIP3    H276611   5.961   3.829   5.324  1.0982 -2.4748 -1.0502
18374TIP3   OH276612   2.907   4.360  13.735  0.3368 -0.0969 -0.1553
18374TIP3    H176613   2.884   4.276  13.775 -0.3750 -0.1523 -0.6654
18374TIP3    H276614   2.823   4.398  13.708  0.7976 -0.1756 -1.7994
18375TIP3   OH276615   4.228   5.736  12.874 -0.1539 -0.5320 -0.3402
18375TIP3    H176616   4.254   5.644  12.887 -0.5602 -0.6152 -0.0888
18375TIP3    H276617   4.184   5.760  12.955  1.1620  0.3218  0.1587
18376TIP3   OH276618   0.269   4.161   3.123 -0.2464 -0.1202 -0.0163
18376TIP3    H176619   0.228   4.157   3.036 -1.7244  1.2233  0.5616
18376TIP3    H276620   0.195   4.157   3.184  0.7942 -1.3983  1.2140
18377TIP3   OH276621   6.778   5.402  10.437  0.1374 -0.0738 -0.0087
18377TIP3    H176622   6.824   5.480  10.406  0.0330  0.2089  0.5226
18377TIP3    H276623   6.687   5.417  10.411  0.2695 -0.4572 -0.7259
18378TIP3   OH276624   5.227   4.753  14.618  0.0949 -0.3389 -0.2239
18378TIP3    H176625   5.208   4.668  14.578  1.2640 -0.8910  0.3670
18378TIP3    H276626   5.196   4.744  14.708 -1.7188  0.6068 -0.6910
18379TIP3   OH276627   1.978   4.220  10.903 -0.9183  0.2749 -0.2577
18379TIP3    H176628   2.022   4.152  10.852  0.6056 -1.6384  3.2199
18379TIP3    H276629   1.888   4.220  10.871  0.4272  1.3087 -4.7230
18380TIP3   OH276630   2.292   1.736  16.149 -0.1801 -0.1944  0.8581
18380TIP3    H176631   2.335   1.652  16.167 -0.0610  0.0055  1.5169
18380TIP3    H276632   2.359   1.802  16.166 -0.1544  0.0249 -0.0408
18381TIP3   OH276633   0.374   1.302  16.999  0.2208 -0.1677  0.6177
18381TIP3    H176634   0.292   1.319  17.046  0.3880 -0.3042  0.9591
18381TIP3    H276635   0.432   1.263  17.065  0.3419 -0.6761  0.2151
18382TIP3   OH276636   3.620   1.221  15.673 -0.6001 -0.2687 -0.0697
18382TIP3    H176637   3.563   1.191  15.603 -0.6062  0.1959 -0.2625
18382TIP3    H276638   3.707   1.191  15.647 -0.1670  2.0524 -1.5656
18383TIP3   OH276639   2.886   3.849   4.186 -0.1870 -0.2350 -0.3198
18383TIP3    H176640   2.867   3.808   4.101 -0.3631 -0.6286 -0.0923
18383TIP3    H276641   2.858   3.940   4.175  1.2748  0.1349 -1.2075
18384TIP3   OH276642   3.662   5.711  15.285  0.3080 -0.4071 -0.4800
18384TIP3    H176643   3.704   5.703  15.199 -1.2704  0.0459 -1.3423
18384TIP3    H276644   3.725   5.759  15.338  0.7249  0.6159 -1.8404
18385TIP3   OH276645   0.628   3.006   0.920  0.0372 -0.5506 -0.7084
18385TIP3    H176646   0.613   3.040   1.008 -0.4701 -0.4350 -0.8354
18385TIP3    H276647   0.646   2.913   0.934  1.2366 -0.2921 -0.3794
18386TIP3   OH276648   1.218   4.498   0.407 -0.1264 -0.1399 -0.3749
18386TIP3    H176649   1.123   4.503   0.419  0.1330  1.7865  1.5302
18386TIP3    H276650   1.251   4.465   0.491  0.9928  0.8287 -0.4105
18387TIP3   OH276651   2.994   1.981  12.984  0.1077  0.6605 -0.3008
18387TIP3    H176652   2.940   2.008  12.911 -0.8214  2.4116  0.9507
18387TIP3    H276653   3.043   2.059  13.008  0.1293  0.2348  1.1505
18388TIP3   OH276654   5.281   6.841  14.693  0.0068  0.2703 -0.1340
18388TIP3    H176655   5.252   6.757  14.657 -1.7819 -0.4343  2.7298
18388TIP3    H276656   5.328   6.819  14.773  0.7769  1.9702 -0.0564
18389TIP3   OH276657   5.268   5.084  16.301  0.2385 -0.3421  0.1461
18389TIP3    H176658   5.293   5.039  16.220  0.3192 -0.2321  0.1097
18389TIP3    H276659   5.200   5.029  16.338  0.1410 -0.3498 -0.0400
18390TIP3   OH276660   0.808   6.119   4.198  0.1157  0.3063  0.5403
18390TIP3    H176661   0.818   6.212   4.216  0.3754  0.3264  0.2906
18390TIP3    H276662   0.769   6.083   4.278  0.6665  0.5070  0.9035
18391TIP3   OH276663   4.047   4.180   4.324  0.9823 -0.3740 -0.2970
18391TIP3    H176664   4.065   4.221   4.408  2.2399  0.1269 -0.7799
18391TIP3    H276665   3.972   4.123   4.340  1.3071 -0.4157  1.1935
18392TIP3   OH276666   3.108   1.135  11.279  0.3351 -0.0844 -0.3687
18392TIP3    H176667   3.104   1.093  11.193  2.1997  0.0794 -0.5767
18392TIP3    H276668   3.058   1.216  11.269 -1.2072 -1.0283 -0.6681
18393TIP3   OH276669   1.704   1.756   6.238 -0.7473 -0.1928  0.1523
18393TIP3    H176670   1.751   1.836   6.216 -0.0350 -1.0267 -1.5056
18393TIP3    H276671   1.612   1.780   6.233 -0.5415  0.4971 -0.4075
18394TIP3   OH276672   1.086   0.631   2.050  0.3647  0.2353  0.6539
18394TIP3    H176673   0.998   0.646   2.016 -0.6473 -1.4986  2.3039
18394TIP3    H276674   1.099   0.537   2.039  1.8855  0.4156  0.7746
18395TIP3   OH276675   4.572   2.220   4.459  0.4577  0.5148 -0.1137
18395TIP3    H176676   4.638   2.157   4.488 -1.4217 -1.6050 -0.1424
18395TIP3    H276677   4.562   2.280   4.533  3.1650  1.6563 -0.5527
18396TIP3   OH276678   4.925   4.479  16.935 -0.0761 -0.4807  0.1437
18396TIP3    H176679   5.004   4.425  16.944  0.4879  0.0377 -1.3607
18396TIP3    H276680   4.901   4.471  16.843 -2.9426 -2.1444  0.8944
18397TIP3   OH276681   5.697   4.411  13.608 -0.2860  0.1045 -1.2056
18397TIP3    H176682   5.618   4.432  13.658 -0.4826 -0.4508 -1.2729
18397TIP3    H276683   5.739   4.495  13.592 -1.6797  0.5929 -2.5365
18398TIP3   OH276684   4.130   3.790  11.638 -0.2226 -0.1466  0.6983
18398TIP3    H176685   4.080   3.754  11.712  1.8847 -0.9661  1.8100
18398TIP3    H276686   4.193   3.849  11.678  0.5245 -0.0902 -0.5226
18399TIP3   OH276687   1.607   4.385  16.321 -0.3851  0.3894 -0.2116
18399TIP3    H176688   1.536   4.350  16.375 -0.9392  1.9904  0.1778
18399TIP3    H276689   1.565   4.455  16.271  0.6553  0.5040 -0.9405
18400TIP3   OH276690   2.358   1.211   4.081 -0.3753  0.1769 -0.7093
18400TIP3    H176691   2.389   1.135   4.032  0.5528  0.3520 -0.4250
18400TIP3    H276692   2.263   1.203   4.082 -0.2644 -2.4063  1.5100
18401TIP3   OH276693   4.546   0.957  13.987  0.1896 -0.3506 -0.0543
18401TIP3    H176694   4.480   0.987  14.050 -0.4515  0.1552 -0.9446
18401TIP3    H276695   4.594   1.036  13.964  1.7032 -0.8426  1.2129
18402TIP3   OH276696   5.820   6.682  16.450  0.3903 -0.4346  0.0252
18402TIP3    H176697   5.857   6.669  16.538  3.4508  2.0557 -0.6926
18402TIP3    H276698   5.770   6.763  16.456  0.1586 -0.5406 -0.4178
18403TIP3   OH276699   5.193   2.873  15.780  0.1460  0.1621  0.1594
18403TIP3    H176700   5.156   2.957  15.805  0.1861 -0.3334  2.0487
18403TIP3    H276701   5.271   2.863  15.835  0.8306 -0.5756 -0.9039
18404TIP3   OH276702   0.274   1.145  12.165  0.2932 -0.0223  0.0946
18404TIP3    H176703   0.283   1.079  12.233 -1.1854  0.3125  0.6633
18404TIP3    H276704   0.194   1.193  12.188  0.2346  0.6690 -1.3863
18405TIP3   OH276705   0.664   3.904   1.264  0.2734  0.2332 -0.4435
18405TIP3    H176706   0.656   3.833   1.200 -0.2451 -0.7648  0.6814
18405TIP3    H276707   0.660   3.860   1.349  2.8631  1.3074  0.3151
18406TIP3   OH276708   6.008   3.402   3.919  0.2220  0.2380 -0.1276
18406TIP3    H176709   6.067   3.370   3.987  0.6821  0.3203 -0.4838
18406TIP3    H276710   5.950   3.462   3.965 -0.5940 -1.0062  0.5352
18407TIP3   OH276711   4.471   6.484   0.138  0.2731 -0.7436 -0.2892
18407TIP3    H176712   4.375   6.486   0.132  0.0752 -2.4396  1.5216
18407TIP3    H276713   4.497   6.576   0.129 -1.6893  0.0549  1.4314
18408TIP3   OH276714   5.964   1.142   0.568  0.0713  0.3901 -0.6737
18408TIP3    H176715   5.953   1.059   0.522  0.9657  0.4582 -1.0524
18408TIP3    H276716   6.059   1.158   0.564  0.1277  0.5758  0.9066
18409TIP3   OH276717   2.174   6.828  13.851 -0.7333 -0.4486 -0.0663
18409TIP3    H176718   2.259   6.846  13.811  0.3101 -0.6066  1.9807
18409TIP3    H276719   2.146   6.746  13.811 -0.1640 -0.1527 -1.1008
18410TIP3   OH276720   0.756   4.365  13.875 -0.1088  0.0748  0.6394
18410TIP3    H176721   0.709   4.338  13.796  0.9061  2.0769 -0.7320
18410TIP3    H276722   0.809   4.289  13.898 -0.8719 -0.7490 -0.2342
18411TIP3   OH276723   3.879   2.341  15.477  0.2574 -0.6094  0.9828
18411TIP3    H176724   3.863   2.342  15.571 -1.2546  0.9875  0.7440
18411TIP3    H276725   3.800   2.379  15.438  0.0218 -2.9214 -1.0892
18412TIP3   OH276726   3.871   1.981  15.635 -0.1427  0.8909  0.3650
18412TIP3    H176727   3.794   1.944  15.679  0.5795  0.8323  1.6485
18412TIP3    H276728   3.838   2.012  15.551 -1.0124 -1.6218 -0.2985
18413TIP3   OH276729   2.732   1.599   2.449  0.2823  0.1231  0.0966
18413TIP3    H176730   2.708   1.543   2.523 -0.1931  2.0813  1.4985
18413TIP3    H276731   2.781   1.671   2.488 -1.1255  1.9128 -1.2653
18414TIP3   OH276732   1.816   3.231  14.521  0.2045 -0.4458  0.2085
18414TIP3    H176733   1.795   3.168  14.590  0.8022 -1.4565 -0.4987
18414TIP3    H276734   1.822   3.178  14.441  2.9110  0.1179 -0.0721
18415TIP3   OH276735   2.836   4.258  10.875  0.7392  0.2920  0.0341
18415TIP3    H176736   2.861   4.186  10.817  1.5199 -0.1257  0.8682
18415TIP3    H276737   2.750   4.233  10.909  0.9791 -0.2115  0.2723
18416TIP3   OH276738   3.032   3.600   2.919 -0.0956  0.1086  0.5310
18416TIP3    H176739   2.962   3.627   2.978 -0.7827  1.0342 -0.6730
18416TIP3    H276740   2.988   3.547   2.852  0.4318  0.2687  0.0444
18417TIP3   OH276741   2.479   0.192   5.500 -0.0764  0.6773 -0.2063
18417TIP3    H176742   2.481   0.182   5.404 -1.1845 -1.6757 -0.0598
18417TIP3    H276743   2.423   0.268   5.514 -1.1628  0.1597 -1.4378
18418TIP3   OH276744   5.566   5.531  15.115  0.4339  0.0816 -0.3610
18418TIP3    H176745   5.507   5.541  15.040  0.9073  1.3408 -0.5897
18418TIP3    H276746   5.529   5.459  15.166 -1.6854  1.2274 -0.1709
18419TIP3   OH276747   4.902   5.886  13.457 -0.5477  0.5419 -0.0924
18419TIP3    H176748   4.943   5.935  13.386  0.9149  0.0405  0.3670
18419TIP3    H276749   4.953   5.805  13.462 -0.5949  0.5873  1.5350
18420TIP3   OH276750   2.559   3.782   5.037  0.1098 -0.4460 -0.1784
18420TIP3    H176751   2.601   3.865   5.018  2.3294 -0.7444  2.6660
18420TIP3    H276752   2.613   3.717   4.992  2.1211 -0.7055  2.3434
18421TIP3   OH276753   5.423   6.051   4.430 -0.6142  0.5266  0.3340
18421TIP3    H176754   5.448   6.011   4.347  1.8439  0.9025  0.8134
18421TIP3    H276755   5.394   6.139   4.407 -1.0613  0.2378 -0.2258
18422TIP3   OH276756   4.342   0.607  14.970  0.1121 -0.4448  0.2801
18422TIP3    H176757   4.282   0.635  15.039  1.8692  0.5737  1.4765
18422TIP3    H276758   4.350   0.683  14.912  0.7849 -0.3116  0.5375
18423TIP3   OH276759   6.409   4.920  14.680 -0.2933  0.1223 -0.2038
18423TIP3    H176760   6.392   4.920  14.586 -0.7932 -2.1837 -0.1815
18423TIP3    H276761   6.329   4.884  14.718  0.3892 -0.1847  0.9924
18424TIP3   OH276762   1.545   1.699  11.423  0.1906 -0.4176 -0.6151
18424TIP3    H176763   1.488   1.626  11.446 -0.1557 -0.1854 -0.7320
18424TIP3    H276764   1.485   1.772  11.407  0.5809  0.2367  0.7234
18425TIP3   OH276765   1.952   0.224  11.851  0.4364 -0.2629  0.2374
18425TIP3    H176766   1.967   0.210  11.944  0.2172 -0.7780  0.1978
18425TIP3    H276767   2.018   0.169  11.808  0.5206 -0.0458  0.0892
18426TIP3   OH276768   2.195   1.006   4.311  0.6958  0.2837 -0.3270
18426TIP3    H176769   2.203   1.045   4.224 -2.4442 -1.0836 -1.3808
18426TIP3    H276770   2.160   0.919   4.295 -1.5257  0.5466  2.3199
18427TIP3   OH276771   1.992   5.106   1.553 -0.0909 -0.1051  0.1436
18427TIP3    H176772   2.030   5.194   1.546  0.7930 -0.3850  1.1858
18427TIP3    H276773   1.912   5.111   1.501  0.4604  1.0235 -0.6525
18428TIP3   OH276774   6.457   4.096   2.495  0.2759 -0.3417  0.0832
18428TIP3    H176775   6.536   4.146   2.474  1.5806 -1.4616  1.9500
18428TIP3    H276776   6.451   4.030   2.426  0.9396 -0.1891 -0.1273
18429TIP3   OH276777   2.593   3.630  13.171  0.1920 -0.3148 -0.1955
18429TIP3    H176778   2.672   3.660  13.216  0.2459 -0.6795 -0.0450
18429TIP3    H276779   2.596   3.674  13.086  0.8343 -0.7257 -0.3970
18430TIP3   OH276780   4.880   5.927  13.720 -0.0432 -0.2056 -0.2970
18430TIP3    H176781   4.878   5.918  13.625 -1.0336 -0.9702 -0.2221
18430TIP3    H276782   4.797   5.888  13.749 -0.1990  0.9121  0.8065
18431TIP3   OH276783   1.248   4.251  14.591  0.5228 -0.2404  0.4241
18431TIP3    H176784   1.230   4.302  14.512 -3.5017 -1.7923  0.0982
18431TIP3    H276785   1.305   4.180  14.562 -0.3240 -0.3818 -0.9733
18432TIP3   OH276786   6.835   6.753  11.524  0.4279 -0.0010  0.1514
18432TIP3    H176787   6.926   6.748  11.554  0.9063  0.8294 -1.0526
18432TIP3    H276788   6.794   6.816  11.583  1.1370  0.9854 -0.3576
18433TIP3   OH276789   1.340   1.573   4.955  0.1865 -0.1248 -0.0258
18433TIP3    H176790   1.283   1.538   5.024  0.2025  1.1790  0.6648
18433TIP3    H276791   1.411   1.509   4.949  0.2002 -0.2429  1.1802
18434TIP3   OH276792   4.979   4.965  15.843 -0.6303 -0.2842  0.1479
18434TIP3    H176793   4.989   5.052  15.804 -1.7413 -0.5040 -0.6898
18434TIP3    H276794   5.036   4.909  15.790 -1.5177 -0.4320 -0.6785
18435TIP3   OH276795   1.250   5.716  15.089  0.6033  0.1416 -0.3760
18435TIP3    H176796   1.159   5.696  15.069  1.1828 -1.9862 -1.1565
18435TIP3    H276797   1.271   5.662  15.165  0.9717  1.3218  0.3841
18436TIP3   OH276798   0.497   5.789   6.439  0.5729  0.5903 -0.2335
18436TIP3    H176799   0.430   5.754   6.380  0.3807  1.1333 -0.3381
18436TIP3    H276800   0.553   5.714   6.459  0.4626  0.3385 -0.8625
18437TIP3   OH276801   2.206   2.824  12.587  0.4393 -0.4391  0.0483
18437TIP3    H176802   2.130   2.873  12.620  0.6994  0.2006 -0.2894
18437TIP3    H276803   2.174   2.781  12.508  1.0474  1.8567 -1.5626
18438TIP3   OH276804   1.829   2.115  15.311  0.7910 -0.5727  0.3960
18438TIP3    H176805   1.758   2.102  15.373 -0.6996  0.4593 -1.0104
18438TIP3    H276806   1.883   2.037  15.319  0.1347 -0.8841  2.2959
18439TIP3   OH276807   5.027   1.378   5.139  0.1006 -0.2373  0.4539
18439TIP3    H176808   5.102   1.371   5.199 -1.0404  0.7436  2.0835
18439TIP3    H276809   4.973   1.448   5.176 -0.4199  0.8049 -2.0573
18440TIP3   OH276810   0.042   5.053   5.205  0.0446 -0.3341  0.2771
18440TIP3    H176811  -0.044   5.076   5.240 -0.0315  0.0504 -0.1599
18440TIP3    H276812   0.070   4.979   5.259 -0.5183 -0.4049  0.4818
18441TIP3   OH276813   0.282   5.951   0.910 -0.9187 -0.3728 -0.1025
18441TIP3    H176814   0.190   5.953   0.886 -0.8527 -0.1984 -0.3427
18441TIP3    H276815   0.325   5.906   0.837 -0.5756  1.0481 -0.8063
18442TIP3   OH276816   3.360   3.732  13.307  0.4559 -0.2387 -0.2451
18442TIP3    H176817   3.451   3.724  13.280  0.6521  0.1380  0.2844
18442TIP3    H276818   3.360   3.803  13.371 -0.3878  0.5270 -1.0621
18443TIP3   OH276819   5.064   5.005   4.872  0.2020  0.1768 -0.6304
18443TIP3    H176820   5.112   5.088   4.868  1.3390 -0.3845  0.5978
18443TIP3    H276821   5.095   4.963   4.952  0.0139 -1.6500 -1.4605
18444TIP3   OH276822   5.403   1.432   4.486 -0.1592 -0.4696 -0.0700
18444TIP3    H176823   5.395   1.354   4.432 -0.6984  0.3881 -1.2659
18444TIP3    H276824   5.487   1.471   4.461 -0.1155 -0.4083  0.1661
18445TIP3   OH276825   1.180   5.103  10.838 -0.0113 -0.0216  0.0439
18445TIP3    H176826   1.206   5.123  10.748 -2.0423  1.2672 -0.3253
18445TIP3    H276827   1.243   5.150  10.892  1.7383 -1.4599 -0.6160
18446TIP3   OH276828   0.510   5.535  15.016  0.2293 -0.3384  0.3071
18446TIP3    H176829   0.416   5.547  15.026  0.5296  1.5207  1.2640
18446TIP3    H276830   0.519   5.450  14.973 -1.9493  0.3444 -1.6716
18447TIP3   OH276831   2.103   3.683  13.279 -0.1305 -0.0352 -0.2332
18447TIP3    H176832   2.184   3.728  13.257  0.5524 -1.9346 -1.8983
18447TIP3    H276833   2.130   3.617  13.343 -0.3916 -0.5344 -0.6348
18448TIP3   OH276834   5.727   4.903  15.683 -0.4228  0.1791  0.5060
18448TIP3    H176835   5.686   4.987  15.663 -1.2676  0.1241  1.8476
18448TIP3    H276836   5.655   4.847  15.712  0.2870 -0.6359  0.7619
18449TIP3   OH276837   1.023   4.376  13.442 -0.2515 -0.3032 -0.3116
18449TIP3    H176838   1.106   4.417  13.418 -0.8650  1.8936  1.0427
18449TIP3    H276839   1.048   4.294  13.483  1.2021 -0.0766 -0.6863
18450TIP3   OH276840   6.506   2.056  13.708 -0.1924 -0.8040 -0.5201
18450TIP3    H176841   6.458   2.091  13.633 -3.4732  0.1615  1.7974
18450TIP3    H276842   6.472   1.968  13.720  0.1794 -0.8899 -0.0572
18451TIP3   OH276843   5.835   4.067  15.116  0.2544 -0.0950 -0.5016
18451TIP3    H176844   5.849   4.073  15.210 -0.9608 -1.2470 -0.2206
18451TIP3    H276845   5.876   4.146  15.080  1.9623 -0.3314  0.8287
18452TIP3   OH276846   4.300   0.921   2.204  0.1692 -0.3342 -0.2312
18452TIP3    H176847   4.353   0.996   2.175 -0.3052 -0.6496 -2.0373
18452TIP3    H276848   4.296   0.930   2.299 -1.0223  2.7279 -0.4668
18453TIP3   OH276849   0.234   2.457   4.138  0.5412  0.4064  0.5111
18453TIP3    H176850   0.187   2.424   4.214  0.5298 -1.3600 -0.2185
18453TIP3    H276851   0.178   2.437   4.064  1.7210 -0.2972 -0.2164
18454TIP3   OH276852   3.600   0.100  12.081  0.3151 -0.3797  0.3714
18454TIP3    H176853   3.596   0.034  12.151  0.3794 -1.5653 -0.6981
18454TIP3    H276854   3.601   0.184  12.127 -0.1820 -1.1034  1.7753
18455TIP3   OH276855   5.687   3.265  13.142 -0.1674 -0.0770 -0.0119
18455TIP3    H176856   5.739   3.346  13.138 -1.1287  0.5082 -1.7880
18455TIP3    H276857   5.620   3.283  13.208 -0.1867  0.4602 -0.1708
18456TIP3   OH276858   3.136   5.710  12.118  0.0204 -0.3995 -0.1335
18456TIP3    H176859   3.205   5.741  12.060 -0.0568 -0.4816 -0.2705
18456TIP3    H276860   3.149   5.615  12.122  2.4325 -0.0897  3.0178
18457TIP3   OH276861   2.779   0.323   2.053 -0.1066  0.3362  0.0216
18457TIP3    H176862   2.838   0.371   1.994 -1.7375  2.7778  0.2255
18457TIP3    H276863   2.734   0.260   1.997  0.3030  0.7665 -0.8102
18458TIP3   OH276864   0.396   0.032   4.292 -0.0392 -0.1157 -0.0597
18458TIP3    H176865   0.403   0.032   4.196 -0.1621  0.8983 -0.0792
18458TIP3    H276866   0.361   0.118   4.313  1.2363  0.1764  0.9889
18459TIP3   OH276867   6.773   5.972   2.115  0.3390 -0.1881 -0.1749
18459TIP3    H176868   6.741   5.993   2.203  2.4487 -0.3513  0.6996
18459TIP3    H276869   6.844   5.909   2.130  0.5159 -0.4798 -2.0320
18460TIP3   OH276870   5.911   2.411  11.804  0.2661 -0.1948 -0.1412
18460TIP3    H176871   5.977   2.465  11.847 -0.2953  2.0718 -1.9435
18460TIP3    H276872   5.938   2.321  11.824  2.2501  0.6717  1.5297
18461TIP3   OH276873   5.649   1.597  12.433  0.0510  0.5916  0.4462
18461TIP3    H176874   5.744   1.599  12.447  0.0739  0.2699  0.3501
18461TIP3    H276875   5.632   1.509  12.398 -0.0356  1.2321 -1.2231
18462TIP3   OH276876   5.227   3.060  12.451  0.8315 -0.0757 -0.1833
18462TIP3    H176877   5.216   2.988  12.389  0.1098  0.5184 -0.7605
18462TIP3    H276878   5.298   3.113  12.415  1.1366 -0.3143  0.0651
18463TIP3   OH276879   1.181   6.441  12.085  0.0188  0.0390 -0.3523
18463TIP3    H176880   1.255   6.453  12.026 -0.4232 -2.2379 -1.4916
18463TIP3    H276881   1.104   6.459  12.030 -0.3569 -0.9687 -0.1782
18464TIP3   OH276882   3.127   0.980  15.464  0.2987  0.6875  1.1334
18464TIP3    H176883   3.034   0.992  15.445  0.5121  2.3418  0.9951
18464TIP3    H276884   3.129   0.918  15.537 -0.9186  0.8310  1.3057
18465TIP3   OH276885   3.120   1.784  13.164  0.3338  0.2590  0.4464
18465TIP3    H176886   3.157   1.702  13.130 -3.0559 -1.6952  1.0418
18465TIP3    H276887   3.093   1.832  13.086  0.4716 -0.1531  0.1368
18466TIP3   OH276888   1.061   4.671  11.012  0.1983  0.1406 -0.6950
18466TIP3    H176889   1.078   4.740  10.948 -2.9899  1.8259  0.0542
18466TIP3    H276890   1.114   4.694  11.088  1.4972 -0.0036 -1.5438
18467TIP3   OH276891   5.877   4.553   4.780 -0.2208  0.4511 -0.1484
18467TIP3    H176892   5.783   4.559   4.799 -0.0419 -0.3416  1.1860
18467TIP3    H276893   5.906   4.478   4.833  1.1223  0.5524 -0.7181
18468TIP3   OH276894   2.877   4.144  10.369  0.0838 -0.1318  0.1274
18468TIP3    H176895   2.914   4.208  10.309 -1.0095 -0.1349 -0.5807
18468TIP3    H276896   2.865   4.065  10.316 -0.8731 -0.1386  0.3254
18469TIP3   OH276897   4.538   5.668   5.269 -0.0797  0.7720  0.1394
18469TIP3    H176898   4.512   5.637   5.356  0.8158 -1.4684 -0.3271
18469TIP3    H276899   4.518   5.761   5.271 -0.5695  0.7042  2.5646
18470TIP3   OH276900   0.217   6.073  16.603 -0.1413  0.3144  0.3188
18470TIP3    H176901   0.195   6.164  16.585 -1.5626 -0.3933 -1.8519
18470TIP3    H276902   0.135   6.035  16.635  0.1675 -0.4558  0.2026
18471TIP3   OH276903   1.833   1.061  15.573  0.0339 -0.2413  0.1986
18471TIP3    H176904   1.893   1.094  15.641 -0.1363 -0.7527  0.6039
18471TIP3    H276905   1.861   0.971  15.559 -0.3499 -0.3393  0.0571
18472TIP3   OH276906   4.935   3.624  12.323 -0.4843  0.6294 -0.1174
18472TIP3    H176907   5.022   3.613  12.362 -0.7277  0.1874  0.3098
18472TIP3    H276908   4.880   3.654  12.395 -0.7393  0.6684 -0.3277
18473TIP3   OH276909   3.617   1.166   5.715 -0.5453  0.2046  0.3659
18473TIP3    H176910   3.691   1.189   5.658 -0.4454 -1.0948 -0.0813
18473TIP3    H276911   3.641   1.202   5.800  0.1747  0.6064  0.0104
18474TIP3   OH276912   0.285   2.030   3.352 -0.6436  0.3520  0.0009
18474TIP3    H176913   0.316   2.009   3.264  2.1157 -1.7787  1.3627
18474TIP3    H276914   0.227   1.957   3.375 -1.6809  1.1049 -0.1203
18475TIP3   OH276915   1.222   6.188  15.984  0.2995  0.1940 -0.0921
18475TIP3    H176916   1.264   6.231  15.910 -1.9571 -0.4065 -1.8365
18475TIP3    H276917   1.137   6.231  15.992  0.0827 -0.4572  1.4924
18476TIP3   OH276918   1.495   5.896   6.400 -0.3724 -0.4925 -0.3761
18476TIP3    H176919   1.568   5.950   6.430  0.4221 -0.7454 -1.7617
18476TIP3    H276920   1.526   5.806   6.411 -1.0679 -0.6536  0.4097
18477TIP3   OH276921   4.197   6.413   4.619 -0.1801  0.3085  0.1437
18477TIP3    H176922   4.146   6.332   4.620  0.2738 -0.0681 -1.9832
18477TIP3    H276923   4.288   6.384   4.616  0.2432  0.9752  2.9292
18478TIP3   OH276924   0.372   3.347   2.419 -0.4343 -0.5877 -0.3654
18478TIP3    H176925   0.437   3.411   2.390  0.9202 -1.5735  0.3934
18478TIP3    H276926   0.360   3.367   2.512 -1.4476 -0.2466 -0.5553
18479TIP3   OH276927   1.212   6.445  12.945  0.2944 -0.0860 -0.3903
18479TIP3    H176928   1.253   6.407  12.867 -0.6172 -1.1260 -0.3827
18479TIP3    H276929   1.171   6.371  12.989  0.9133  0.4778  1.1750
18480TIP3   OH276930   5.300   4.845   4.739 -0.5307  0.2516 -0.7763
18480TIP3    H176931   5.382   4.800   4.756 -0.9360 -0.2958 -0.2253
18480TIP3    H276932   5.237   4.805   4.800 -1.4562 -0.0784 -1.8965
18481TIP3   OH276933   3.148   0.873  13.740  0.1298 -0.0823  0.1183
18481TIP3    H176934   3.078   0.927  13.703  1.3714  0.7087 -1.1602
18481TIP3    H276935   3.176   0.921  13.818  0.2804  0.4206 -0.2364
18482TIP3   OH276936   4.649   1.468  13.717 -0.3782 -0.1981  0.1045
18482TIP3    H176937   4.709   1.407  13.674 -0.0594 -0.1636  0.4859
18482TIP3    H276938   4.643   1.436  13.807  1.1988  1.3238  0.8098
18483TIP3   OH276939   6.765   5.011  11.068  0.3405  0.2689 -0.0498
18483TIP3    H176940   6.829   4.970  11.127 -0.1150  1.3457  1.2509
18483TIP3    H276941   6.697   5.044  11.127 -1.5081 -0.9836 -1.4059
18484TIP3   OH276942   2.803   1.804  13.917  0.4060 -0.0060 -0.1350
18484TIP3    H176943   2.874   1.772  13.860 -1.2679 -1.4828 -1.5412
18484TIP3    H276944   2.751   1.860  13.859  0.0796  0.5656  0.7073
18485TIP3   OH276945   2.175   3.617   0.238 -0.0395 -0.3472 -0.1808
18485TIP3    H176946   2.171   3.629   0.143  0.0916 -2.0037 -0.4138
18485TIP3    H276947   2.197   3.525   0.250  1.1526  0.1126  1.4568
18486TIP3   OH276948   4.708   2.053   0.948 -0.6156 -0.3215 -0.4738
18486TIP3    H176949   4.723   1.958   0.940 -2.1520 -0.9423  2.7885
18486TIP3    H276950   4.627   2.061   0.997 -0.5044  2.7367 -0.6126
18487TIP3   OH276951   5.940   6.643  16.215  0.3021  0.8005 -0.0041
18487TIP3    H176952   5.862   6.602  16.177  0.4303  1.5855 -1.1566
18487TIP3    H276953   5.913   6.668  16.304  0.0637 -1.2588  0.5594
18488TIP3   OH276954   0.996   3.517  14.596  0.7570  0.6315 -0.3262
18488TIP3    H176955   0.990   3.603  14.554  0.4528  0.6352 -0.2777
18488TIP3    H276956   1.076   3.478  14.560  1.1519  1.1182  0.0003
18489TIP3   OH276957   4.871   2.654   2.701 -0.0121 -0.1563  0.3241
18489TIP3    H176958   4.914   2.577   2.738  2.4343  0.2578 -1.3623
18489TIP3    H276959   4.779   2.631   2.696  0.5651 -2.7503  0.4048
18490TIP3   OH276960   4.208   1.242  14.992 -0.0015  0.0139  0.3521
18490TIP3    H176961   4.134   1.210  15.043 -1.3387  2.4868  0.0800
18490TIP3    H276962   4.178   1.239  14.902  0.5154  0.3271  0.1672
18491TIP3   OH276963   3.328   4.360  15.221 -0.6735 -0.8610 -0.3135
18491TIP3    H176964   3.355   4.377  15.311  2.9930 -1.8509 -1.0428
18491TIP3    H276965   3.259   4.294  15.228 -0.7248 -0.6532  1.7516
18492TIP3   OH276966   0.207   3.879  12.955 -0.4048 -0.1976  0.6044
18492TIP3    H176967   0.189   3.818  12.883  0.9793 -0.5335  0.5084
18492TIP3    H276968   0.209   3.824  13.033  0.3451 -0.2031  0.5863
18493TIP3   OH276969   1.712   2.040   2.668 -0.4462 -0.0156  0.1951
18493TIP3    H176970   1.622   2.065   2.687 -0.4600 -1.3271  2.1491
18493TIP3    H276971   1.755   2.123   2.647 -1.5457  1.0312  1.7965
18494TIP3   OH276972   3.254   5.212   0.476 -0.2585 -0.3010  0.2458
18494TIP3    H176973   3.207   5.158   0.412 -0.6138 -2.4968  2.2296
18494TIP3    H276974   3.222   5.301   0.460 -3.6912 -1.3870  0.1715
18495TIP3   OH276975   4.111   3.292   4.320 -0.0745  0.6750 -0.3715
18495TIP3    H176976   4.177   3.262   4.257  0.6809 -0.9473  1.1155
18495TIP3    H276977   4.027   3.271   4.279  0.4091 -0.7869 -0.6628
18496TIP3   OH276978   3.419   2.375   0.966 -0.0888 -0.4187 -0.1148
18496TIP3    H176979   3.411   2.280   0.953 -1.6752 -0.1968 -0.9667
18496TIP3    H276980   3.513   2.389   0.974  0.2454 -1.9691 -0.7795
18497TIP3   OH276981   0.767   2.110  16.805  0.0303 -0.6263 -0.0735
18497TIP3    H176982   0.690   2.164  16.788 -1.5247 -2.3584  1.1488
18497TIP3    H276983   0.787   2.068  16.721 -0.2016  0.0078 -0.4482
18498TIP3   OH276984   5.657   1.094  15.678 -0.2980  0.1985  0.6591
18498TIP3    H176985   5.570   1.071  15.644 -1.2282  0.8808  2.4501
18498TIP3    H276986   5.668   1.040  15.756 -0.0282  1.6138  1.6294
18499TIP3   OH276987   0.224   3.767  14.336 -0.3576 -0.1691  0.4449
18499TIP3    H176988   0.299   3.788  14.391 -0.5282  0.7711  0.3355
18499TIP3    H276989   0.149   3.768  14.396 -0.2785 -1.3093  0.5947
18500TIP3   OH276990   1.119   3.246   2.661  0.1689 -0.5465  0.1631
18500TIP3    H176991   1.102   3.210   2.748  1.4544  1.7964  1.4854
18500TIP3    H276992   1.034   3.274   2.629 -0.1952 -0.5997  1.0714
18501TIP3   OH276993   3.384   0.298  15.150  0.3967  0.3016  0.2197
18501TIP3    H176994   3.331   0.290  15.071 -1.8221  0.2822  1.6423
18501TIP3    H276995   3.426   0.212  15.159  0.6308  0.2815 -0.8548
18502TIP3   OH276996   0.180   4.797  15.289  0.0106 -0.0837 -0.1872
18502TIP3    H176997   0.120   4.815  15.361 -2.6226 -1.8205 -1.7869
18502TIP3    H276998   0.185   4.879  15.240 -0.7650  0.2154  0.2174
18503TIP3   OH276999   0.171   3.378  16.423 -0.2116 -0.2854 -0.0394
18503TIP3    H177000   0.251   3.340  16.386 -1.0652  0.1954 -2.5372
18503TIP3    H277001   0.108   3.306  16.426 -0.6282  0.0239 -1.0663
18504TIP3   OH277002   5.402   3.559  12.687  0.0520 -0.4141 -0.1839
18504TIP3    H177003   5.366   3.647  12.697  0.2853 -0.5020  1.6314
18504TIP3    H277004   5.464   3.568  12.614  0.7128  1.1381  0.5210
18505TIP3   OH277005   2.169   6.527   4.126 -0.3967 -0.3580  0.5172
18505TIP3    H177006   2.149   6.471   4.051 -2.5922  1.5316 -0.4284
18505TIP3    H277007   2.200   6.609   4.086  1.1350 -0.2724  1.8035
18506TIP3   OH277008   4.387   2.916  16.242  0.1429 -0.0048 -0.9178
18506TIP3    H177009   4.383   2.822  16.229  0.2981  0.0337 -1.2273
18506TIP3    H277010   4.423   2.951  16.161  1.4283  0.1958 -0.2799
18507TIP3   OH277011   1.955   4.513  10.881  0.8166  0.2379  0.0220
18507TIP3    H177012   1.986   4.492  10.792 -1.7076 -0.0131 -0.8664
18507TIP3    H277013   1.903   4.437  10.907 -0.7655  1.4536  0.5644
18508TIP3   OH277014   5.454   0.890  10.553  0.0854  0.5184  0.1421
18508TIP3    H177015   5.520   0.959  10.540  0.7029 -0.1039 -0.0630
18508TIP3    H277016   5.385   0.911  10.489  0.0242  1.2369  0.4360
18509TIP3   OH277017   2.221   1.232   3.693 -0.1006 -0.0629  0.4196
18509TIP3    H177018   2.139   1.201   3.731 -0.5343 -0.8975 -1.0904
18509TIP3    H277019   2.203   1.322   3.666 -0.8041 -0.4831 -0.5903
18510TIP3   OH277020   0.816   3.281   3.805  0.2721 -0.4388  0.1250
18510TIP3    H177021   0.855   3.343   3.867 -1.6667  0.6974  0.3093
18510TIP3    H277022   0.773   3.336   3.739  1.3845 -1.6184 -1.6908
18511TIP3   OH277023   5.770   1.256  17.095  0.7413 -0.0443  0.4694
18511TIP3    H177024   5.713   1.327  17.127  1.6345  0.8083  0.2255
18511TIP3    H277025   5.745   1.246  17.003  0.5422 -0.1149  0.5313
18512TIP3   OH277026   3.730   0.902   2.550 -0.3415  0.0463  0.2054
18512TIP3    H177027   3.734   0.914   2.645 -0.2576 -0.2239  0.2366
18512TIP3    H277028   3.821   0.889   2.523 -0.3147  0.6009  0.0240
18513TIP3   OH277029   0.428   5.045  11.286 -0.6206 -0.5414  0.0144
18513TIP3    H177030   0.419   5.071  11.378 -2.0016 -1.8829  0.2984
18513TIP3    H277031   0.515   5.075  11.261 -0.1210 -0.3612  1.8337
18514TIP3   OH277032   3.699   6.072  14.219 -0.3226 -0.7808 -0.1824
18514TIP3    H177033   3.678   6.051  14.129  0.1232 -1.8968 -0.0387
18514TIP3    H277034   3.781   6.123  14.214 -0.8377  0.0371 -0.4584
18515TIP3   OH277035   2.425   6.217   4.184 -0.0683  0.6595 -0.5264
18515TIP3    H177036   2.481   6.295   4.190  2.5046 -1.1412  1.3208
18515TIP3    H277037   2.436   6.186   4.095  0.1975  1.4953 -0.7941
18516TIP3   OH277038   5.609   2.222   1.509 -0.0689  0.6323  0.2602
18516TIP3    H177039   5.593   2.247   1.599  1.4908 -0.9545  1.0440
18516TIP3    H277040   5.688   2.270   1.484 -1.3547  2.2821 -0.8514
18517TIP3   OH277041   2.895   2.779   4.185 -0.1848 -0.1896  0.1653
18517TIP3    H177042   2.891   2.871   4.209 -2.0774  0.0673 -0.9430
18517TIP3    H277043   2.824   2.737   4.233  0.0400 -0.8785 -0.0825
18518TIP3   OH277044   3.437   6.263  14.626  0.2993 -0.6200  0.0655
18518TIP3    H177045   3.495   6.290  14.554 -0.9939 -0.0149 -0.7832
18518TIP3    H277046   3.349   6.266  14.589 -0.4741  0.2985  1.8393
18519TIP3   OH277047   0.878   1.254   3.213  0.1438 -0.9288 -0.0098
18519TIP3    H177048   0.897   1.280   3.303  0.4172 -1.2625  0.0309
18519TIP3    H277049   0.951   1.286   3.162 -0.6719  0.4787 -0.3433
18520TIP3   OH277050   4.534   6.346   2.677 -0.2548  0.2441  0.0885
18520TIP3    H177051   4.450   6.381   2.649 -1.0600 -1.3035  0.4951
18520TIP3    H277052   4.584   6.423   2.703 -2.0610  1.0922  1.2401
18521TIP3   OH277053   4.761   5.175  17.034  0.1215  0.1292  0.2210
18521TIP3    H177054   4.739   5.132  17.117  2.4448 -1.3151  0.1694
18521TIP3    H277055   4.730   5.115  16.967 -0.0446  0.3871  0.0649
18522TIP3   OH277056   0.832   6.624   5.356 -0.0976 -0.3840 -0.0422
18522TIP3    H177057   0.894   6.552   5.346 -0.8744 -1.0414 -0.2020
18522TIP3    H277058   0.779   6.621   5.277  0.5789  1.0835 -0.5771
18523TIP3   OH277059   0.426   5.558   4.484  0.1053  0.0419  0.2655
18523TIP3    H177060   0.437   5.570   4.578  3.4781 -1.9293  0.2975
18523TIP3    H277061   0.461   5.471   4.467  0.0494  0.5213 -2.8977
18524TIP3   OH277062   3.260   0.255  14.912 -0.0849 -0.1061  0.0102
18524TIP3    H177063   3.307   0.314  14.852 -1.0146  0.0101 -0.6207
18524TIP3    H277064   3.237   0.179  14.859  2.2203 -1.6999  1.1251
18525TIP3   OH277065   0.018   4.098  12.300 -0.5818 -0.3567 -0.4868
18525TIP3    H177066  -0.059   4.083  12.355 -0.9292  0.2297 -0.8047
18525TIP3    H277067   0.091   4.063  12.351 -0.6524  1.6974  1.1268
18526TIP3   OH277068   0.167   0.391   1.655 -0.3465 -0.6506  0.3916
18526TIP3    H177069   0.103   0.343   1.603 -0.8829  2.3092 -1.9502
18526TIP3    H277070   0.251   0.370   1.615 -0.5252 -0.0199 -0.3263
18527TIP3   OH277071   5.135   1.285  15.898 -0.1068  0.5883 -0.0544
18527TIP3    H177072   5.179   1.298  15.982 -0.3647  0.1579  0.1481
18527TIP3    H277073   5.171   1.203  15.864 -1.4805 -0.3282  0.5959
18528TIP3   OH277074   6.329   4.507   6.326 -0.2809 -0.0478  0.1635
18528TIP3    H177075   6.384   4.438   6.363  0.9029  1.3459  1.1230
18528TIP3    H277076   6.380   4.587   6.337 -1.1955  0.8745 -1.7928
18529TIP3   OH277077   3.050   2.358   4.137 -0.0805  0.0195  0.9830
18529TIP3    H177078   3.098   2.275   4.130  0.1334  0.2450 -0.4492
18529TIP3    H277079   2.962   2.337   4.105 -0.2439  0.1791  1.3204
18530TIP3   OH277080   1.437   0.951   5.147 -0.5161 -0.9153 -0.0353
18530TIP3    H177081   1.412   0.926   5.059  0.9759 -2.6814 -0.0074
18530TIP3    H277082   1.525   0.988   5.138 -1.0578  0.5798  0.4983
18531TIP3   OH277083   5.207   2.066  16.112  0.0637  0.0568 -0.3743
18531TIP3    H177084   5.189   2.098  16.200 -1.8356 -0.8148 -0.4092
18531TIP3    H277085   5.199   1.971  16.119 -1.4630  0.0444 -1.7375
18532TIP3   OH277086   1.645   3.910  12.494  0.1736 -0.0994  0.3736
18532TIP3    H177087   1.713   3.970  12.462 -0.1299  1.5398  2.6028
18532TIP3    H277088   1.675   3.883  12.580 -0.3726 -2.1663 -0.0246
18533TIP3   OH277089   0.127   1.698  12.439 -0.2205 -0.2453  0.2158
18533TIP3    H177090   0.201   1.728  12.387 -2.3041  0.8791 -2.3997
18533TIP3    H277091   0.109   1.609  12.407  1.1281 -1.3580  2.3112
18534TIP3   OH277092   4.947   2.201   4.422 -0.2405  0.1161  0.1773
18534TIP3    H177093   4.969   2.281   4.375 -1.7924  0.5646  0.1649
18534TIP3    H277094   4.980   2.214   4.511 -1.8220  1.4595  0.6191
18535TIP3   OH277095   0.301   6.348   1.617 -1.1537 -0.0910  0.1918
18535TIP3    H177096   0.215   6.312   1.639 -0.9538 -0.8036 -0.1437
18535TIP3    H277097   0.291   6.443   1.626 -1.4441 -0.2693  1.9957
18536TIP3   OH277098   1.994   1.916  11.777  0.1262 -0.4408  0.3647
18536TIP3    H177099   2.060   1.948  11.715 -0.2592  0.1327  0.2481
18536TIP3    H277100   1.956   1.839  11.734 -0.2739  0.0670 -0.2064
18537TIP3   OH277101   6.811   2.120  14.791  0.1818 -0.3348 -0.1243
18537TIP3    H177102   6.785   2.103  14.700 -0.9919  0.5558  0.0221
18537TIP3    H277103   6.844   2.210  14.790 -2.1039  0.6030  0.7204
18538TIP3   OH277104   1.786   5.125   3.036 -0.1750  0.8218  0.4847
18538TIP3    H177105   1.815   5.035   3.023 -0.5461  0.9316 -1.4295
18538TIP3    H277106   1.838   5.176   2.974 -2.9664  1.2870 -1.7006
18539TIP3   OH277107   1.588   1.305   4.521  0.3482  0.7432 -0.0086
18539TIP3    H177108   1.622   1.311   4.610  0.4213 -1.0355  0.1060
18539TIP3    H277109   1.502   1.347   4.524 -0.3317 -0.6735  1.2793
18540TIP3   OH277110   1.063   3.909  10.469 -0.8674 -0.1155 -0.0819
18540TIP3    H177111   1.041   3.955  10.550 -0.6232 -1.0907  0.5599
18540TIP3    H277112   0.990   3.927  10.410 -1.5586 -0.2327  0.7197
18541TIP3   OH277113   0.238   4.868  12.001  0.3608  0.5620  0.5710
18541TIP3    H177114   0.172   4.821  12.053 -0.5704  0.3206 -0.7899
18541TIP3    H277115   0.277   4.929  12.064  0.3349 -0.7340  1.9304
18542TIP3   OH277116   5.290   3.543   2.692 -0.0200 -0.3676 -0.7284
18542TIP3    H177117   5.231   3.506   2.758  0.2028 -0.7357 -0.7338
18542TIP3    H277118   5.305   3.633   2.721  1.6564 -1.0788  0.8494
18543TIP3   OH277119   3.492   0.702   6.204  0.2954  0.2141  0.1660
18543TIP3    H177120   3.519   0.748   6.124  0.1474  1.1957  0.6669
18543TIP3    H277121   3.401   0.731   6.218  0.1217 -0.4210  0.3645
18544TIP3   OH277122   6.564   6.133  16.283  0.0282 -0.1901 -0.4797
18544TIP3    H177123   6.597   6.210  16.330 -0.9002 -0.4781  0.6827
18544TIP3    H277124   6.475   6.157  16.258  0.7558  0.2891 -2.9262
18545TIP3   OH277125   5.966   3.545  11.342  0.9418  0.1176 -0.2203
18545TIP3    H177126   5.915   3.609  11.392  0.5947 -0.8905  0.7660
18545TIP3    H277127   5.909   3.468  11.338  2.1451 -0.8404  0.4073
18546TIP3   OH277128   6.828   4.707  13.456  0.1906  0.4703  0.6008
18546TIP3    H177129   6.901   4.647  13.441  0.9144  0.9870  1.9018
18546TIP3    H277130   6.869   4.789  13.484 -0.8476  1.1276  0.2797
18547TIP3   OH277131   3.503   2.498   4.617  0.8462  0.6432  0.5552
18547TIP3    H177132   3.527   2.573   4.671  2.4828  1.3444 -1.0495
18547TIP3    H277133   3.481   2.536   4.531  0.6832 -0.6242  0.0128
18548TIP3   OH277134   3.603   3.956  13.540 -0.1364  0.3385  0.1853
18548TIP3    H177135   3.638   3.893  13.603  0.2606 -0.5597 -0.9067
18548TIP3    H277136   3.644   4.039  13.564 -2.6134  0.8474  3.2893
18549TIP3   OH277137   1.220   0.955  12.336  0.1478 -0.1024  0.0815
18549TIP3    H177138   1.261   1.017  12.276  1.1722 -0.3127  0.5418
18549TIP3    H277139   1.219   0.872  12.288 -0.2745  0.0317 -0.1456
18550TIP3   OH277140   6.180   0.636   0.639  0.4208  0.1186  0.2537
18550TIP3    H177141   6.229   0.565   0.681  0.6390  0.5104  0.6660
18550TIP3    H277142   6.222   0.645   0.553  0.1910 -0.4580  0.0726
18551TIP3   OH277143   2.788   2.400  16.497  0.5527  0.2724 -0.7201
18551TIP3    H177144   2.733   2.333  16.539 -0.6735  1.1774 -0.8199
18551TIP3    H277145   2.859   2.415  16.559  0.1502 -0.2216 -0.1227
18552TIP3   OH277146   0.085   4.564  12.895  0.3314 -0.0918  0.5418
18552TIP3    H177147   0.105   4.629  12.828  3.0003 -1.5342 -0.1794
18552TIP3    H277148   0.054   4.615  12.969  1.3273  1.9132 -0.3507
18553TIP3   OH277149   1.812   0.785  15.452 -0.6368 -0.8676  0.1901
18553TIP3    H177150   1.848   0.807  15.366  1.1890 -2.1767  0.5598
18553TIP3    H277151   1.717   0.787  15.439 -0.4983  1.8381 -1.0730
18554TIP3   OH277152   1.595   4.603  15.622 -0.1172  0.3454 -0.2880
18554TIP3    H177153   1.594   4.553  15.704  2.0831  1.1421  0.2919
18554TIP3    H277154   1.605   4.694  15.650 -1.8623  0.9315 -1.4123
18555TIP3   OH277155   3.162   1.934   5.689  0.0339 -0.2135  0.1650
18555TIP3    H177156   3.236   1.881   5.716 -0.0779 -0.0966  0.7169
18555TIP3    H277157   3.114   1.880   5.627 -1.1980 -1.5920  2.2043
18556TIP3   OH277158   5.836   5.910  12.047 -0.0408  0.5283  0.3453
18556TIP3    H177159   5.761   5.885  12.101  1.0796 -1.8727  0.9115
18556TIP3    H277160   5.908   5.922  12.108  0.2620  2.0841 -0.2605
18557TIP3   OH277161   4.165   0.208  12.727  0.0024  0.6691  0.3022
18557TIP3    H177162   4.080   0.249  12.712  0.2130  1.5100  1.3051
18557TIP3    H277163   4.215   0.227  12.648 -1.2106 -1.1857 -0.9931
18558TIP3   OH277164   2.181   4.609  14.568 -0.0138 -0.4142  0.1557
18558TIP3    H177165   2.216   4.528  14.606  0.1015 -0.4878 -0.1099
18558TIP3    H277166   2.257   4.651  14.528 -0.2118 -0.5254 -0.3341
18559TIP3   OH277167   3.007   1.170  14.323 -0.3410 -0.2227 -0.1382
18559TIP3    H177168   2.976   1.183  14.233 -1.3138  1.2120  0.3538
18559TIP3    H277169   2.969   1.086  14.350 -3.9948  1.4005  0.4049
18560TIP3   OH277170   5.220   3.859  14.009  0.3867 -0.3193 -0.4444
18560TIP3    H177171   5.270   3.929  14.050  0.5337 -0.3479 -0.5726
18560TIP3    H277172   5.273   3.832  13.934  0.3885 -0.6510 -0.3234
18561TIP3   OH277173   1.463   3.686   3.897 -0.1307 -0.4335 -0.2387
18561TIP3    H177174   1.387   3.696   3.840  0.5960  0.4710 -1.0877
18561TIP3    H277175   1.529   3.743   3.858  0.0423  1.1220  2.1038
18562TIP3   OH277176   5.078   6.002   2.318 -0.2268  0.2900  0.1620
18562TIP3    H177177   5.040   5.994   2.405 -2.0537 -0.3396 -0.6501
18562TIP3    H277178   5.016   5.959   2.260  0.9441  0.6843 -1.4709
18563TIP3   OH277179   4.964   4.421   1.472 -0.0933  0.3703 -0.1149
18563TIP3    H177180   4.982   4.515   1.472  3.6620 -0.2166 -0.1373
18563TIP3    H277181   4.923   4.405   1.387  3.5019  1.4456 -2.2738
18564TIP3   OH277182   2.711   4.087   4.152 -0.5574  0.5649  0.2525
18564TIP3    H177183   2.706   4.178   4.123 -0.3355  0.6509  0.4787
18564TIP3    H277184   2.701   4.036   4.072  2.3656  0.8260 -0.3867
18565TIP3   OH277185   3.227   1.883  16.553 -0.2717 -0.2573 -0.0406
18565TIP3    H177186   3.190   1.830  16.624  1.7841 -0.4322  0.9989
18565TIP3    H277187   3.309   1.839  16.531  0.2192  1.0576 -0.9791
18566TIP3   OH277188   1.396   4.425   5.052 -0.1924 -0.3841  0.0374
18566TIP3    H177189   1.371   4.337   5.022 -1.2129  0.0874 -0.5516
18566TIP3    H277190   1.363   4.484   4.984 -0.5888  0.5515  1.0128
18567TIP3   OH277191   4.171   5.795  15.454  0.6157 -0.4527  0.1872
18567TIP3    H177192   4.224   5.830  15.526 -0.5710 -0.3142  1.0184
18567TIP3    H277193   4.169   5.701  15.469 -0.9124 -0.2839  1.2749
18568TIP3   OH277194   1.002   5.875   0.270  0.0168 -0.3956 -0.2107
18568TIP3    H177195   0.934   5.859   0.205 -0.0442 -0.6845 -0.0790
18568TIP3    H277196   1.052   5.793   0.273 -0.8409 -0.9059  1.1257
18569TIP3   OH277197   0.525   5.612   4.111  0.4404 -0.0790  0.0187
18569TIP3    H177198   0.583   5.557   4.060  0.3413  0.8716 -1.1715
18569TIP3    H277199   0.579   5.646   4.182  1.1325  0.1398 -0.6031
18570TIP3   OH277200   1.080   1.162   2.553  0.6836 -0.4741  0.0472
18570TIP3    H177201   1.084   1.067   2.550 -3.4689 -1.1836  4.4103
18570TIP3    H277202   1.154   1.188   2.608  1.7268 -1.1388 -1.0087
18571TIP3   OH277203   4.626   3.947  14.098  0.2505 -0.2617 -0.3729
18571TIP3    H177204   4.679   3.868  14.109  1.8705  0.6654 -1.2075
18571TIP3    H277205   4.616   3.956  14.003  1.5299  1.4327 -0.3904
18572TIP3   OH277206   3.464   0.037  15.210  0.1484 -0.4261 -0.2467
18572TIP3    H177207   3.541   0.034  15.267 -0.3323  0.8427  0.4906
18572TIP3    H277208   3.399  -0.017  15.255  0.2331 -0.5869 -0.3145
18573TIP3   OH277209   3.794   3.445   6.140 -0.6908 -0.1563 -0.0846
18573TIP3    H177210   3.842   3.528   6.134 -1.1647  0.1001 -0.3620
18573TIP3    H277211   3.715   3.466   6.189 -0.2754 -0.6963  0.8501
18574TIP3   OH277212   4.535   2.567  12.506 -0.0774  0.2994 -0.0969
18574TIP3    H177213   4.562   2.550  12.596 -0.7288  0.8064  0.2084
18574TIP3    H277214   4.577   2.650  12.483  0.3859 -0.0128 -0.3978
18575TIP3   OH277215   5.041   5.420   1.146  0.6957  0.0879  0.5396
18575TIP3    H177216   5.076   5.507   1.167 -1.1890  1.0304 -0.0690
18575TIP3    H277217   4.950   5.423   1.174 -0.4499 -0.4268 -2.7380
18576TIP3   OH277218   4.749   3.282  13.395 -0.2417  0.4154 -0.1932
18576TIP3    H177219   4.716   3.198  13.364  1.6829 -0.7201  0.6358
18576TIP3    H277220   4.839   3.285  13.363  1.2550  0.0091  3.5526
18577TIP3   OH277221   6.192   5.016  13.545 -0.4198 -0.0027 -0.0052
18577TIP3    H177222   6.109   4.979  13.572 -0.6402  0.2624 -0.3091
18577TIP3    H277223   6.247   4.940  13.524 -0.0369 -0.2530  1.7262
18578TIP3   OH277224   5.781   6.297  16.797  0.4369 -0.0147  0.8335
18578TIP3    H177225   5.875   6.309  16.799  0.2393  1.7559  0.9999
18578TIP3    H277226   5.749   6.343  16.875 -0.5269 -0.9662  1.0208
18579TIP3   OH277227   1.567   4.144  13.337  0.4379 -0.3350 -0.2920
18579TIP3    H177228   1.550   4.171  13.247  1.1881  2.2296  0.2579
18579TIP3    H277229   1.480   4.123  13.373 -0.0309  0.0387 -1.1798
18580TIP3   OH277230   3.275   5.962  12.356 -0.0327 -0.3967  0.7137
18580TIP3    H177231   3.256   5.880  12.401 -0.7888 -1.4733 -1.4287
18580TIP3    H277232   3.190   5.993  12.324  0.7445 -1.6415 -3.0440
18581TIP3   OH277233   3.645   4.449   3.258  0.0575  0.0360 -0.1112
18581TIP3    H177234   3.655   4.539   3.289  2.0404 -0.1878  0.0268
18581TIP3    H277235   3.728   4.406   3.279 -0.2587 -1.4134 -1.5426
18582TIP3   OH277236   4.644   4.560  10.929 -0.4257 -0.5561 -0.4022
18582TIP3    H177237   4.664   4.611  10.851 -2.0994 -1.4502 -1.4813
18582TIP3    H277238   4.661   4.469  10.905  0.0544 -0.7589  0.6326
18583TIP3   OH277239   6.271   6.579   6.360 -0.2020  0.7198  0.2564
18583TIP3    H177240   6.322   6.499   6.358 -0.1601  0.7469  0.2215
18583TIP3    H277241   6.222   6.578   6.278 -0.4214  0.5881  0.3878
18584TIP3   OH277242   5.216   3.123   4.636  0.2702 -0.2831 -0.0568
18584TIP3    H177243   5.149   3.101   4.700 -1.1403 -0.3600 -1.5115
18584TIP3    H277244   5.253   3.206   4.667 -1.5830  0.5723 -0.0556
18585TIP3   OH277245   6.433   5.861   1.124  0.3125 -0.0634  0.1111
18585TIP3    H177246   6.409   5.843   1.215  1.1294 -0.7545  0.2000
18585TIP3    H277247   6.474   5.781   1.094 -0.3580 -0.0054 -1.0221
18586TIP3   OH277248   3.870   0.461   2.615 -0.3291  0.7170  0.6170
18586TIP3    H177249   3.792   0.516   2.622 -0.6134  0.3551  0.2993
18586TIP3    H277250   3.885   0.452   2.521  0.3032  1.0698  0.6768
18587TIP3   OH277251   5.239   0.640   0.600 -0.2519  0.1554 -0.2935
18587TIP3    H177252   5.206   0.723   0.633  0.2659  0.5102 -0.6510
18587TIP3    H277253   5.165   0.580   0.608  0.2818 -0.2900  3.2092
18588TIP3   OH277254   6.270   6.709   1.686  0.1178  0.8446  0.0267
18588TIP3    H177255   6.303   6.691   1.598 -0.0777  0.2642  0.0740
18588TIP3    H277256   6.315   6.647   1.742 -1.9794 -0.8818 -0.0755
18589TIP3   OH277257   0.301   2.599  13.447 -0.0657 -0.7302 -0.4317
18589TIP3    H177258   0.278   2.623  13.357  1.4186 -0.7610 -0.8517
18589TIP3    H277259   0.366   2.529  13.437  0.8042 -0.0939  0.6446
18590TIP3   OH277260   1.978   4.843  12.934  0.1053 -0.2755 -0.4366
18590TIP3    H177261   1.886   4.855  12.958  0.5052  1.6025  0.3372
18590TIP3    H277262   1.986   4.750  12.914 -2.1050 -0.3638 -1.1451
18591TIP3   OH277263   3.178   3.891  13.728 -0.0319  0.0351 -0.5599
18591TIP3    H177264   3.102   3.919  13.677 -0.9169 -1.4957 -0.1540
18591TIP3    H277265   3.147   3.814  13.776  1.4101  0.1538  0.6194
18592TIP3   OH277266   1.455   3.666  15.961 -0.0261  0.0239  0.2572
18592TIP3    H177267   1.370   3.631  15.989 -0.2038  0.2531  0.0066
18592TIP3    H277268   1.503   3.679  16.043  0.3647 -1.6040  0.3205
18593TIP3   OH277269   6.346   2.512  13.608  0.4160  0.1024  0.0356
18593TIP3    H177270   6.375   2.603  13.616 -1.1941  0.7819 -1.2380
18593TIP3    H277271   6.422   2.466  13.572  1.4741  0.7848  1.3272
18594TIP3   OH277272   0.354   2.293   4.553  0.2526  0.3306 -0.1548
18594TIP3    H177273   0.389   2.340   4.478 -0.2967  2.3902  0.7782
18594TIP3    H277274   0.420   2.228   4.574  0.9437  0.4863 -1.7035
18595TIP3   OH277275   1.155   4.107  13.397  0.1090 -0.0970 -0.4500
18595TIP3    H177276   1.148   4.141  13.308 -0.2463  0.8380 -0.0744
18595TIP3    H277277   1.107   4.024  13.395  1.0889 -0.6663 -1.4114
18596TIP3   OH277278   3.864   6.225  10.467  0.3226  0.1705 -0.0032
18596TIP3    H177279   3.775   6.228  10.502  0.4290 -0.2173  0.3051
18596TIP3    H277280   3.901   6.144  10.503  0.7384  0.2388 -0.2759
18597TIP3   OH277281   6.815   2.847   4.461 -0.2147  0.0163  0.3729
18597TIP3    H177282   6.864   2.911   4.408 -2.5249  0.7483 -1.0067
18597TIP3    H277283   6.839   2.869   4.551  1.5326  0.7025 -0.2104
18598TIP3   OH277284   6.065   3.287  13.058  0.0760  0.5118 -0.2668
18598TIP3    H177285   6.097   3.364  13.011 -1.1927  1.0282 -0.3435
18598TIP3    H277286   6.086   3.213  13.001 -0.4954  1.0212 -1.1627
18599TIP3   OH277287   4.971   2.104   5.376 -0.0609  0.8040 -0.4464
18599TIP3    H177288   5.056   2.129   5.340  0.7689 -2.9566 -1.4720
18599TIP3    H277289   4.911   2.112   5.302  0.3397 -0.6429 -0.9665
18600TIP3   OH277290   0.764   4.159   2.642  0.1301  0.0594  0.1907
18600TIP3    H177291   0.783   4.158   2.736 -0.8519 -1.2852  0.3958
18600TIP3    H277292   0.851   4.158   2.601  0.5809 -0.8316  1.1030
18601TIP3   OH277293   4.495   2.886   4.877  0.3597 -0.1763 -0.0700
18601TIP3    H177294   4.574   2.857   4.831  0.0013  1.7117 -2.0457
18601TIP3    H277295   4.516   2.975   4.906 -0.5886 -0.1493  0.5669
18602TIP3   OH277296   0.491   4.021  14.426 -0.2439 -0.3249  0.5066
18602TIP3    H177297   0.436   4.071  14.365  0.0523  0.4828  0.8929
18602TIP3    H277298   0.557   4.083  14.455 -0.4535 -0.6543  1.7568
18603TIP3   OH277299   1.595   1.699   5.870 -0.1532  0.0046 -0.0650
18603TIP3    H177300   1.532   1.655   5.925 -0.4148  0.3676 -0.0712
18603TIP3    H277301   1.605   1.786   5.908  1.6087 -0.5749  0.9456
18604TIP3   OH277302   4.404   0.915  11.279  0.1658 -0.0638 -0.2302
18604TIP3    H177303   4.401   1.010  11.263 -2.8249 -0.2679 -1.5369
18604TIP3    H277304   4.381   0.905  11.371  1.3491  0.4920  0.1372
18605TIP3   OH277305   1.461   2.057  14.486 -0.3418  0.4402 -0.1818
18605TIP3    H177306   1.387   2.001  14.510  0.1995 -0.6562 -0.9992
18605TIP3    H277307   1.537   1.999  14.486  0.1504  1.0317 -1.5591
18606TIP3   OH277308   1.418   4.059   4.571  0.1476  0.2677  0.5212
18606TIP3    H177309   1.488   4.041   4.633  0.4656 -0.2803  0.0164
18606TIP3    H277310   1.440   4.145   4.534  0.4120  0.2132  0.5509
18607TIP3   OH277311   1.170   2.675   6.089  0.3795  0.0461 -0.3577
18607TIP3    H177312   1.232   2.734   6.133 -0.5654  0.5239  0.3693
18607TIP3    H277313   1.138   2.618   6.158 -2.5801  2.0423  0.1215
18608TIP3   OH277314   4.364   2.045  16.857 -0.2525  0.2352  0.0752
18608TIP3    H177315   4.276   2.078  16.875 -0.2544 -1.3881  4.0791
18608TIP3    H277316   4.367   1.960  16.901  3.6888  0.7771  1.2415
18609TIP3   OH277317   0.678   4.842  11.144 -0.4386  0.3774 -0.6968
18609TIP3    H177318   0.625   4.903  11.092  1.3519  3.5460  0.9132
18609TIP3    H277319   0.666   4.870  11.234  0.4108 -1.7855  0.1575
18610TIP3   OH277320   3.214   3.512  12.100  0.6955 -0.3300  0.6997
18610TIP3    H177321   3.152   3.580  12.125  0.0422 -1.2771  1.7561
18610TIP3    H277322   3.245   3.476  12.183  0.6609 -1.6371  0.1698
18611TIP3   OH277323   0.764   3.137  16.232  0.5438  0.1435  0.6361
18611TIP3    H177324   0.669   3.138  16.238  0.4773 -0.0573 -0.1883
18611TIP3    H277325   0.791   3.060  16.281  0.1784 -0.5669 -0.2512
18612TIP3   OH277326   4.629   5.605  15.187  0.0457  0.1343  0.4008
18612TIP3    H177327   4.625   5.673  15.254  0.6814  0.4846  0.0855
18612TIP3    H277328   4.672   5.646  15.113  0.4267 -0.6054  0.2009
18613TIP3   OH277329   6.764   0.141   0.297 -0.0238  0.2775  0.4045
18613TIP3    H177330   6.810   0.068   0.338  0.3886 -0.3574 -1.1346
18613TIP3    H277331   6.691   0.101   0.251 -1.2785  1.1286  1.5880
18614TIP3   OH277332   1.277   4.853   5.714  0.1352  0.4377  0.4659
18614TIP3    H177333   1.352   4.803   5.747  1.1460  1.8889  0.4612
18614TIP3    H277334   1.315   4.937   5.687 -1.1693  0.4428 -1.5028
18615TIP3   OH277335   1.254   6.260   1.840 -1.0336 -0.0999 -0.6705
18615TIP3    H177336   1.285   6.339   1.795 -0.3104  1.2280  1.9806
18615TIP3    H277337   1.312   6.190   1.809  0.9686  1.2348 -0.1059
18616TIP3   OH277338   3.943   2.731  12.262 -0.1979 -0.2036 -0.3503
18616TIP3    H177339   3.918   2.818  12.232 -0.7002 -0.4792 -0.7395
18616TIP3    H277340   3.866   2.697  12.306  0.2701 -0.1273  0.5505
18617TIP3   OH277341   0.329   5.318   2.441 -0.3798 -0.2362 -0.5574
18617TIP3    H177342   0.277   5.384   2.486  0.0782  0.4989 -1.0838
18617TIP3    H277343   0.376   5.366   2.374  1.0670 -0.8734 -0.0327
18618TIP3   OH277344   6.065   2.518  15.628  0.1361  0.1961  0.0744
18618TIP3    H177345   6.013   2.543  15.705  0.2281 -2.0917  0.9449
18618TIP3    H277346   6.154   2.505  15.662  0.4636  0.3847 -0.6839
18619TIP3   OH277347   6.703   2.420   1.597  0.3081  0.0378  0.0887
18619TIP3    H177348   6.623   2.387   1.637  0.6012 -0.4965  0.2452
18619TIP3    H277349   6.679   2.506   1.562  0.1651  0.7535  1.8459
18620TIP3   OH277350   4.890   3.841   0.850 -0.1054  0.4138 -0.2141
18620TIP3    H177351   4.927   3.753   0.844 -0.1601  0.3571  0.2513
18620TIP3    H277352   4.910   3.870   0.939 -1.6300  0.1792  0.2203
18621TIP3   OH277353   3.876   3.916   1.492  0.1932 -0.1886 -0.7306
18621TIP3    H177354   3.910   3.929   1.404  0.0950  2.0546 -0.5156
18621TIP3    H277355   3.785   3.946   1.488  0.2762  0.2430  0.1658
18622TIP3   OH277356   1.648   6.569   1.703  0.0688 -0.3774  0.7345
18622TIP3    H177357   1.638   6.543   1.611 -1.8097 -0.6725  0.9964
18622TIP3    H277358   1.738   6.604   1.707 -0.2142  0.8665 -1.5079
18623TIP3   OH277359   3.305   1.487  13.371 -0.6193 -0.7182 -0.2347
18623TIP3    H177360   3.376   1.542  13.402 -1.5326 -0.3972  1.3933
18623TIP3    H277361   3.337   1.397  13.380 -0.3304 -0.5670  0.2462
18624TIP3   OH277362   4.658   2.802  14.234  0.5314 -0.0929 -0.2065
18624TIP3    H177363   4.669   2.810  14.329 -1.0585 -0.7383  0.0778
18624TIP3    H277364   4.668   2.891  14.201  0.7918  0.1941  0.6143
18625TIP3   OH277365   0.467   5.500   0.160  0.1681  0.1903  0.1993
18625TIP3    H177366   0.531   5.430   0.142 -1.5284 -1.4860  0.3357
18625TIP3    H277367   0.447   5.536   0.073 -1.4918 -1.9295 -0.3996
18626TIP3   OH277368   1.651   6.258  16.957  0.1148 -0.5847 -0.1354
18626TIP3    H177369   1.674   6.346  16.926  1.0774 -0.5262  0.6959
18626TIP3    H277370   1.613   6.215  16.880  1.6677 -0.1637 -1.1907
18627TIP3   OH277371   5.713   5.472  12.124 -0.2351 -0.2431 -0.3331
18627TIP3    H177372   5.808   5.480  12.124 -0.1511 -1.0734 -1.0425
18627TIP3    H277373   5.692   5.423  12.203 -0.0973  0.1328 -0.0615
18628TIP3   OH277374   6.179   1.598   2.819 -0.1249  0.2707 -0.4575
18628TIP3    H177375   6.231   1.520   2.798  0.0531  0.5997 -1.2610
18628TIP3    H277376   6.184   1.652   2.740  0.6446  1.5895  0.4538
18629TIP3   OH277377   5.848   1.943   0.357 -0.4681 -0.0549  0.1226
18629TIP3    H177378   5.933   1.943   0.401 -0.8774  1.4027  0.9888
18629TIP3    H277379   5.845   2.027   0.311 -2.0202  0.5944  1.3265
18630TIP3   OH277380   2.208   4.530   1.692  0.6374 -0.2262  0.4577
18630TIP3    H177381   2.223   4.581   1.613 -0.0782  0.3235  0.6631
18630TIP3    H277382   2.177   4.594   1.756  0.4023 -0.8069  0.9309
18631TIP3   OH277383   5.364   2.530  16.960 -0.1326  0.3660  0.3591
18631TIP3    H177384   5.344   2.583  16.883  0.7061  0.4343  0.1746
18631TIP3    H277385   5.412   2.455  16.926  0.8618  0.7454  0.8678
18632TIP3   OH277386   2.443   5.889   4.223  0.0899 -0.3586 -0.2348
18632TIP3    H177387   2.496   5.916   4.148  1.2499 -1.1926  0.2670
18632TIP3    H277388   2.447   5.963   4.283  0.1328 -0.1645 -0.4744
18633TIP3   OH277389   4.855   0.493  11.822 -0.4525  0.1907  0.5064
18633TIP3    H177390   4.765   0.518  11.804 -0.0904  0.7585 -0.5930
18633TIP3    H277391   4.888   0.563  11.880  0.0760  1.4968 -1.2802
18634TIP3   OH277392   2.374   0.922   3.324  0.3369  0.3889  0.0100
18634TIP3    H177393   2.419   0.839   3.311  1.8321  1.2918 -0.8925
18634TIP3    H277394   2.421   0.964   3.396  1.0820  1.4095 -1.0410
18635TIP3   OH277395   6.786   3.262  11.532 -0.2926  0.1975 -0.0012
18635TIP3    H177396   6.723   3.195  11.509  0.2076 -0.2249 -0.1634
18635TIP3    H277397   6.836   3.225  11.605  0.6295 -0.0206 -0.7248
18636TIP3   OH277398   2.756   4.470   1.755  0.2229 -0.1529  0.2427
18636TIP3    H177399   2.735   4.562   1.769 -0.0442 -0.4823  2.3043
18636TIP3    H277400   2.704   4.444   1.679 -3.4421  0.2347  2.4282
18637TIP3   OH277401   4.297   4.418  14.304 -0.1256 -0.0884  1.1935
18637TIP3    H177402   4.204   4.419  14.327 -0.5066 -0.2331 -0.2441
18637TIP3    H277403   4.309   4.496  14.250  0.3752 -0.5740  0.5935
18638TIP3   OH277404   3.579   0.035   6.020  0.7256  0.4890  0.5886
18638TIP3    H177405   3.659   0.070   6.060  1.0738 -0.2622  0.5834
18638TIP3    H277406   3.534   0.111   5.984  1.0471  1.0240  1.2857
18639TIP3   OH277407   3.985   1.873   2.588  0.0240  0.1341  0.1956
18639TIP3    H177408   3.989   1.966   2.563 -0.2089  0.2570  0.5916
18639TIP3    H277409   4.060   1.833   2.545  0.1836  0.5304  0.0979
18640TIP3   OH277410   1.199   5.408  12.458 -0.0588 -0.1845 -0.6626
18640TIP3    H177411   1.223   5.315  12.459  2.9188  0.4494  0.8329
18640TIP3    H277412   1.157   5.422  12.543  0.4946  0.0269 -0.4198
18641TIP3   OH277413   6.817   4.047   6.284 -0.9262  0.1549 -0.2916
18641TIP3    H177414   6.823   3.960   6.322 -0.1890  0.9192  1.4664
18641TIP3    H277415   6.724   4.068   6.284 -0.9713  0.0199  0.9014
18642TIP3   OH277416   0.424   6.495  14.202  0.0303 -0.4879  0.5920
18642TIP3    H177417   0.344   6.516  14.153  0.2471  0.9990  0.8297
18642TIP3    H277418   0.404   6.412  14.246 -1.5182  0.0165  0.9117
18643TIP3   OH277419   3.453   3.126  16.048  0.3833  0.4881 -0.4980
18643TIP3    H177420   3.432   3.046  16.096  0.9263  0.7780  0.2430
18643TIP3    H277421   3.374   3.179  16.052  0.3503  0.4120 -0.1099
18644TIP3   OH277422   2.815   1.890   1.819 -0.3010  0.1677 -0.3588
18644TIP3    H177423   2.814   1.982   1.793 -0.3636 -0.0983 -1.3109
18644TIP3    H277424   2.723   1.865   1.820 -0.3142  0.2284  0.3314
18645TIP3   OH277425   6.642   1.317  16.980 -0.3605 -0.1303  0.1617
18645TIP3    H177426   6.695   1.340  17.056 -0.3530  1.7073 -0.3529
18645TIP3    H277427   6.680   1.236  16.947  0.7950  0.0473  1.0270
18646TIP3   OH277428   4.191   3.266  14.458  0.8451 -0.1241 -0.0694
18646TIP3    H177429   4.268   3.222  14.423  1.1967  0.4684 -0.0543
18646TIP3    H277430   4.215   3.359  14.461  0.0547  0.1026 -0.2824
18647TIP3   OH277431   4.713   6.450  16.853  0.2038 -0.0413 -0.4691
18647TIP3    H177432   4.751   6.366  16.824  0.3283 -0.3517  0.5456
18647TIP3    H277433   4.747   6.514  16.790  0.6509 -0.6479 -0.8679
18648TIP3   OH277434   0.975   3.077   3.702 -0.2902  0.1403 -0.6944
18648TIP3    H177435   1.051   3.100   3.756 -0.3732 -1.6664  0.2350
18648TIP3    H277436   0.904   3.130   3.738  0.6196  2.4474 -2.0700
18649TIP3   OH277437   0.157   1.316  15.352  0.4393  0.5755 -0.5813
18649TIP3    H177438   0.237   1.347  15.396  0.6516 -0.6624 -0.0493
18649TIP3    H277439   0.188   1.286  15.266  1.6675 -4.6127  1.2675
18650TIP3   OH277440   1.684   5.317  16.539  0.0902 -0.3594 -0.4075
18650TIP3    H177441   1.618   5.248  16.538 -0.7953  0.4681 -0.0862
18650TIP3    H277442   1.669   5.365  16.621 -0.3651  1.1937 -1.3529
18651TIP3   OH277443   6.361   0.555   4.596 -0.9101  0.0218 -0.5471
18651TIP3    H177444   6.427   0.624   4.597  0.6910 -1.4281 -0.0839
18651TIP3    H277445   6.377   0.506   4.677 -1.1006 -1.6701 -1.4918
18652TIP3   OH277446   0.622   4.113   1.691  0.2408 -0.0559 -0.5864
18652TIP3    H177447   0.621   4.019   1.708 -0.2849  0.4750  3.0663
18652TIP3    H277448   0.706   4.143   1.725 -1.2866  1.2688  2.4157
18653TIP3   OH277449   5.344   3.863  13.757  0.5339 -0.7493  0.1627
18653TIP3    H177450   5.401   3.787  13.746  0.1213 -0.8209 -1.9328
18653TIP3    H277451   5.329   3.895  13.668 -0.9097  0.5914  0.8336
18654TIP3   OH277452   2.809   5.444   4.023  0.8206  0.4489 -0.4622
18654TIP3    H177453   2.770   5.418   3.940  1.4646 -1.2331 -0.2792
18654TIP3    H277454   2.750   5.410   4.090  1.3039  0.0758 -0.2189
18655TIP3   OH277455   3.156   2.767   1.942  0.0710  0.5476  0.6007
18655TIP3    H177456   3.200   2.851   1.929  0.4089  0.6306  2.0758
18655TIP3    H277457   3.226   2.707   1.969 -0.6907  0.8293  3.6065
18656TIP3   OH277458   6.130   3.269   4.157  0.2033  0.6867 -0.5025
18656TIP3    H177459   6.100   3.227   4.238 -0.8736  2.4115  0.0732
18656TIP3    H277460   6.225   3.269   4.164  0.1383  2.7627  1.9342
18657TIP3   OH277461   2.263   4.004  15.991 -0.2329  0.1513 -0.4698
18657TIP3    H177462   2.309   3.924  15.964  0.0415 -0.0533  0.5557
18657TIP3    H277463   2.207   3.976  16.063 -1.2646  0.6016 -1.0751
18658TIP3   OH277464   4.038   3.204  13.328 -0.3053  0.2257  0.4941
18658TIP3    H177465   4.009   3.294  13.319 -1.3670 -0.0918  0.6316
18658TIP3    H277466   3.974   3.164  13.388  1.5680  0.0373  2.5052
18659TIP3   OH277467   1.565   0.199  11.299  0.5312  0.8031  0.0573
18659TIP3    H177468   1.535   0.271  11.242  1.2373 -0.0401 -1.4132
18659TIP3    H277469   1.496   0.193  11.366 -0.4856  1.6344 -0.8586
18660TIP3   OH277470   1.992   5.155   2.043  0.5774 -0.6644 -0.2488
18660TIP3    H177471   2.061   5.115   2.097 -0.1720 -0.3040  0.9922
18660TIP3    H277472   2.031   5.237   2.012 -0.0674  0.8003  2.4784
18661TIP3   OH277473   1.864   5.263  10.555 -0.0618  0.1351 -0.0988
18661TIP3    H177474   1.905   5.241  10.472  1.3348 -0.4136  0.7162
18661TIP3    H277475   1.911   5.341  10.586 -1.0048  0.7336 -0.1161
18662TIP3   OH277476   2.718   4.072  15.468  0.2096  0.3024  0.3343
18662TIP3    H177477   2.660   4.087  15.543  0.5097  1.6063  0.3244
18662TIP3    H277478   2.721   4.156  15.423 -1.0666 -0.7838 -1.9496
18663TIP3   OH277479   6.496   1.028   3.170 -0.1827  0.0983 -0.4607
18663TIP3    H177480   6.552   0.957   3.205 -0.0561 -0.0181 -0.8903
18663TIP3    H277481   6.503   1.098   3.235  2.1300  0.9031 -1.4545
18664TIP3   OH277482   0.469   4.909  11.842 -0.6489  0.4082 -0.3730
18664TIP3    H177483   0.393   4.901  11.899 -1.4281  0.3819 -1.3822
18664TIP3    H277484   0.438   4.964  11.770  0.8036  1.8760  0.0516
18665TIP3   OH277485   2.887   4.621  10.855 -0.0298  0.4179  0.9240
18665TIP3    H177486   2.956   4.657  10.911  0.5585  2.6484 -1.0537
18665TIP3    H277487   2.896   4.526  10.864  3.0983  0.6056  1.0348
18666TIP3   OH277488   6.836   2.416   2.869  0.0571 -0.2972 -0.8149
18666TIP3    H177489   6.751   2.385   2.900  0.4869 -1.5232 -0.8058
18666TIP3    H277490   6.838   2.508   2.893 -0.9162 -0.4625 -0.0354
18667TIP3   OH277491   2.137   0.905   1.473  0.0997  0.4579 -0.4947
18667TIP3    H177492   2.223   0.876   1.503  0.0044 -1.3498 -1.8051
18667TIP3    H277493   2.090   0.930   1.553  2.0198  2.1398  0.1853
18668TIP3   OH277494   6.372   1.969   0.226  0.4258 -0.9076  0.1837
18668TIP3    H177495   6.446   1.969   0.288  2.0188  3.0909 -1.4015
18668TIP3    H277496   6.302   2.015   0.272  0.2165 -1.4032  0.3665
18669TIP3   OH277497   4.390   4.583   3.258  0.1251 -0.8222  0.3599
18669TIP3    H177498   4.393   4.663   3.206 -0.8692 -0.5398  0.7241
18669TIP3    H277499   4.480   4.572   3.289  0.4240 -0.2370 -0.2691
18670TIP3   OH277500   5.218   2.567   5.540  0.1416  0.0409 -0.3655
18670TIP3    H177501   5.293   2.609   5.582 -1.8739  1.4402  2.0849
18670TIP3    H277502   5.148   2.630   5.547 -1.3073 -1.1872 -2.6742
18671TIP3   OH277503   3.488   3.805  12.396 -0.0568  0.2512 -0.2180
18671TIP3    H177504   3.563   3.832  12.342  0.6674 -0.2428  0.5128
18671TIP3    H277505   3.412   3.843  12.352  0.5837  0.4683 -1.1784
18672TIP3   OH277506   5.927   2.466   5.578 -0.1017 -0.0962  0.1786
18672TIP3    H177507   5.892   2.391   5.626  0.6716 -1.2090 -0.9323
18672TIP3    H277508   5.850   2.506   5.537 -0.3614 -1.2214 -0.4692
18673TIP3   OH277509   5.565   2.771   0.797  0.1087 -0.0367 -0.5079
18673TIP3    H177510   5.544   2.790   0.889 -1.9643 -1.1433 -0.6951
18673TIP3    H277511   5.646   2.721   0.801 -0.8133 -1.4903  0.8862
18674TIP3   OH277512   4.300   3.141   6.215 -0.2620 -0.2361 -0.1248
18674TIP3    H177513   4.260   3.099   6.139  0.0542 -1.5445  0.3980
18674TIP3    H277514   4.353   3.212   6.179 -2.2506  0.9187 -0.9058
18675TIP3   OH277515   4.420   5.491   3.539 -0.2246  0.0300  0.3053
18675TIP3    H177516   4.329   5.488   3.511 -0.7551 -0.5939  1.9788
18675TIP3    H277517   4.444   5.584   3.534 -1.7319  0.5818  2.0599
18676TIP3   OH277518   2.348   3.180   4.066 -0.0396  0.2387  0.2971
18676TIP3    H177519   2.337   3.162   3.973  1.5217  1.4760 -0.1670
18676TIP3    H277520   2.357   3.094   4.107 -0.1804 -0.2902 -0.7659
18677TIP3   OH277521   6.860   0.897  14.077 -0.9318 -0.4004 -0.6250
18677TIP3    H177522   6.776   0.923  14.039 -1.1112 -0.8816 -0.5681
18677TIP3    H277523   6.853   0.923  14.169 -0.9640 -0.3161 -0.6505
18678TIP3   OH277524   0.125   0.302   2.441 -0.2315 -0.3533 -0.3031
18678TIP3    H177525   0.215   0.282   2.468 -0.2172  1.4232  1.2307
18678TIP3    H277526   0.094   0.222   2.400  1.1564 -1.9743  1.5754
18679TIP3   OH277527   4.330   6.105   2.618  0.0091  0.5088 -0.3176
18679TIP3    H177528   4.271   6.162   2.669 -1.0054 -0.6414 -0.1595
18679TIP3    H277529   4.412   6.106   2.668 -1.0122 -0.7430  1.5447
18680TIP3   OH277530   1.891   3.720   3.538 -1.0166  0.1689 -0.2371
18680TIP3    H177531   1.937   3.667   3.603  0.9460 -0.7700 -2.2547
18680TIP3    H277532   1.880   3.662   3.463 -1.4013  1.7676 -1.4842
18681TIP3   OH277533   1.656   0.467   0.150 -0.6387 -0.3096 -0.0854
18681TIP3    H177534   1.660   0.385   0.199  1.6403 -0.3555 -0.2348
18681TIP3    H277535   1.715   0.526   0.197 -0.9964  0.7399 -0.8979
18682TIP3   OH277536   2.949   5.938   4.596  0.0365 -0.6687 -0.4054
18682TIP3    H177537   2.866   5.981   4.615 -1.2660 -2.5841 -1.3632
18682TIP3    H277538   2.961   5.876   4.668  0.4863 -0.5999 -0.4193
18683TIP3   OH277539   6.325   1.545   1.469  0.2400  0.1155 -0.2696
18683TIP3    H177540   6.341   1.638   1.488 -1.1492  0.6286 -1.4362
18683TIP3    H277541   6.351   1.500   1.549 -0.3043  1.6363  0.8259
18684TIP3   OH277542   3.253   2.357   4.633 -0.6506 -0.4180  0.2725
18684TIP3    H177543   3.168   2.400   4.623  0.2373  1.1166 -0.9701
18684TIP3    H277544   3.312   2.426   4.663  0.1256 -1.5414  1.4607
18685TIP3   OH277545   5.440   5.366  15.591 -0.3258  0.9505 -0.3264
18685TIP3    H177546   5.353   5.331  15.610  0.1650  0.3242  0.8679
18685TIP3    H277547   5.432   5.459  15.609 -0.5261  0.7552  0.6741
18686TIP3   OH277548   3.181   6.776  10.979 -0.3070  0.2094 -0.1052
18686TIP3    H177549   3.142   6.863  10.985 -0.3780  0.6193 -4.0700
18686TIP3    H277550   3.107   6.718  10.961  0.0246 -0.2921  0.1408
18687TIP3   OH277551   2.677   3.408   1.477  0.7732  0.5137 -0.1818
18687TIP3    H177552   2.604   3.364   1.434 -0.8535  1.0036  1.9210
18687TIP3    H277553   2.754   3.379   1.429 -0.6406 -1.1761 -1.5647
18688TIP3   OH277554   6.173   4.321  13.081  0.1812  0.5158 -0.1538
18688TIP3    H177555   6.218   4.382  13.023  0.6942  0.4674  0.1873
18688TIP3    H277556   6.228   4.317  13.159 -1.4835  2.1128  1.2041
18689TIP3   OH277557   1.067   3.121   2.895 -0.4807  0.9764  0.1621
18689TIP3    H177558   1.155   3.088   2.916 -0.0074  1.2984 -1.1790
18689TIP3    H277559   1.061   3.204   2.942  0.1857  1.2596 -0.2453
18690TIP3   OH277560   1.919   2.939   2.070  0.2253 -0.1051 -0.5371
18690TIP3    H177561   1.888   3.007   2.130 -0.3148 -0.7954 -0.0292
18690TIP3    H277562   2.003   2.911   2.107  0.3064  0.0754 -0.5838
18691TIP3   OH277563   0.024   5.960   2.947 -0.4658 -0.3665  0.4546
18691TIP3    H177564   0.087   6.026   2.918 -0.3528  0.0146  1.5379
18691TIP3    H277565  -0.046   5.964   2.882 -0.7782  1.2977  0.8500
18692TIP3   OH277566   1.708   1.315   2.736 -0.1696  0.6636 -0.0356
18692TIP3    H177567   1.663   1.376   2.794 -2.1499 -1.2051  0.5193
18692TIP3    H277568   1.801   1.324   2.758 -0.7448  1.0185  2.4674
18693TIP3   OH277569   6.260   0.858   5.125 -0.7401 -0.1488  0.2193
18693TIP3    H177570   6.335   0.916   5.138  0.2718 -1.6085  1.1877
18693TIP3    H277571   6.264   0.833   5.033 -1.2666  1.3818 -0.2457
18694TIP3   OH277572   1.801   1.073  16.427  0.1550  0.1265  0.2293
18694TIP3    H177573   1.778   1.026  16.506 -0.5553  0.0326 -0.0160
18694TIP3    H277574   1.750   1.154  16.432 -2.5213 -1.2769 -1.6297
18695TIP3   OH277575   2.418   3.964  14.063  0.1531  0.1063  0.1951
18695TIP3    H177576   2.500   3.993  14.101  0.1459 -0.7388  0.8813
18695TIP3    H277577   2.377   4.044  14.030  0.6441  0.7074  1.0144
18696TIP3   OH277578   3.253   5.011   5.365  0.8991 -0.5074 -0.0217
18696TIP3    H177579   3.259   5.073   5.292  0.0352 -0.8732 -0.4211
18696TIP3    H277580   3.191   4.945   5.335 -0.7529  0.2065  1.6600
18697TIP3   OH277581   2.562   4.272   5.337 -0.0816  0.3312  0.2833
18697TIP3    H177582   2.533   4.206   5.275 -0.1036  1.3172 -0.7829
18697TIP3    H277583   2.657   4.258   5.345 -0.2129 -0.3551  0.7164
18698TIP3   OH277584   5.771   1.697  12.874 -1.0450  0.1896  0.6324
18698TIP3    H177585   5.781   1.689  12.779  0.2694  1.1282  0.6618
18698TIP3    H277586   5.687   1.655  12.893 -0.4419 -1.7554 -0.7003
18699TIP3   OH277587   4.643   5.227  10.877  0.9468 -0.1027 -0.2305
18699TIP3    H177588   4.604   5.155  10.926 -0.7741  0.5136 -0.6125
18699TIP3    H277589   4.716   5.256  10.931 -0.6119  0.2748  1.8065
18700TIP3   OH277590   0.333   1.274  12.468 -0.0736 -0.3005  0.8303
18700TIP3    H177591   0.379   1.242  12.546  0.1162 -1.4571  0.2695
18700TIP3    H277592   0.248   1.230  12.471  0.3264 -1.1729 -0.1489
18701TIP3   OH277593   3.709   2.275  13.761 -0.3356 -0.1611 -0.7490
18701TIP3    H177594   3.686   2.217  13.688 -2.7751  0.6968 -0.7827
18701TIP3    H277595   3.628   2.281  13.812 -0.3249  3.2755 -0.8522
18702TIP3   OH277596   5.389   5.397  11.393  0.0288 -0.5558  0.6648
18702TIP3    H177597   5.485   5.401  11.396  0.1098  2.8324 -0.8438
18702TIP3    H277598   5.364   5.347  11.470  3.0026 -0.9914  1.4690
18703TIP3   OH277599   5.381   2.046   5.429 -0.0140  0.2113  0.1355
18703TIP3    H177600   5.324   1.969   5.433 -0.9716  0.9205  0.7188
18703TIP3    H277601   5.332   2.109   5.376  0.3191  0.7534  0.4640
18704TIP3   OH277602   4.743   4.719   0.587 -0.2392  0.2751 -0.1131
18704TIP3    H177603   4.793   4.707   0.506  1.1200  0.7836  0.6183
18704TIP3    H277604   4.678   4.785   0.566 -0.3864 -0.1300 -0.9889
18705TIP3   OH277605   5.201   5.198  15.674  0.2331 -0.3468  0.4936
18705TIP3    H177606   5.191   5.224  15.582 -0.3819 -0.6060  0.4826
18705TIP3    H277607   5.224   5.105  15.670  0.9411 -0.1775  0.5807
18706TIP3   OH277608   1.328   4.640   3.501  0.3215 -0.7559 -0.5672
18706TIP3    H177609   1.385   4.628   3.577  0.4304  2.3829 -0.0263
18706TIP3    H277610   1.358   4.574   3.438  2.2107 -1.4866  0.9801
18707TIP3   OH277611   1.296   3.473   1.435  0.1972 -0.0759 -0.0725
18707TIP3    H177612   1.387   3.475   1.463  0.7029  1.6374 -1.6473
18707TIP3    H277613   1.297   3.422   1.354 -0.4180 -0.8557  0.4012
18708TIP3   OH277614   1.707   2.648   5.319 -0.2383  0.4023 -0.2202
18708TIP3    H177615   1.771   2.592   5.275  0.7979 -1.3053  3.1775
18708TIP3    H277616   1.734   2.737   5.297  1.4480 -0.3285 -1.3080
18709TIP3   OH277617   5.191   3.072  16.589 -0.2330  1.0019  0.0083
18709TIP3    H177618   5.261   3.059  16.525 -1.2844  2.1295 -1.4345
18709TIP3    H277619   5.217   3.150  16.638  1.4115 -0.8049  2.2123
18710TIP3   OH277620   2.332   4.811  13.719  0.3731 -0.2569 -0.8480
18710TIP3    H177621   2.276   4.810  13.796  1.5645  1.2928  0.1019
18710TIP3    H277622   2.421   4.811  13.754  1.0124  3.6121 -1.9750
18711TIP3   OH277623   4.086   1.901  14.746  0.2425  0.6252  0.3235
18711TIP3    H177624   4.149   1.843  14.789  0.2293  1.5980  1.7176
18711TIP3    H277625   4.049   1.848  14.675  2.9069  0.1551 -0.8316
18712TIP3   OH277626   5.405   4.925   0.780 -0.2418 -0.1631 -0.7085
18712TIP3    H177627   5.381   4.906   0.870 -2.1927  1.2946 -0.8392
18712TIP3    H277628   5.352   5.002   0.757  2.2110  1.2163 -2.2188
18713TIP3   OH277629   4.203   3.171   5.037  0.3758  0.0957 -0.3741
18713TIP3    H177630   4.259   3.110   5.086  0.7479  0.7665  0.0489
18713TIP3    H277631   4.129   3.117   5.009  1.5313 -0.9709 -1.5283
18714TIP3   OH277632   1.417   0.935   0.360  0.5684 -0.1877  0.2968
18714TIP3    H177633   1.359   0.966   0.431  0.6955  0.8964 -0.0452
18714TIP3    H277634   1.369   0.956   0.280  1.3632  0.5877  0.0146
18715TIP3   OH277635   5.904   2.822   4.995 -0.1965  0.0866  0.3216
18715TIP3    H177636   5.978   2.763   5.008 -1.0189 -1.0320  0.0682
18715TIP3    H277637   5.843   2.773   4.940 -0.3391  1.6804 -0.9963
18716TIP3   OH277638   2.921   0.606  15.202  0.8452  0.1454 -0.4176
18716TIP3    H177639   2.990   0.564  15.150  1.7669  1.0367  0.0416
18716TIP3    H277640   2.969   0.652  15.271 -0.1846  1.1431 -0.3484
18717TIP3   OH277641   2.029   3.800   1.714 -0.3021 -0.3490  0.4617
18717TIP3    H177642   2.069   3.713   1.720 -0.0788 -0.1576  2.4978
18717TIP3    H277643   1.937   3.784   1.691  0.2929 -0.9233 -1.8063
18718TIP3   OH277644   1.555   6.610  16.173 -0.4803  0.2696 -0.1778
18718TIP3    H177645   1.466   6.629  16.141 -1.1094  0.4761  1.5583
18718TIP3    H277646   1.601   6.694  16.167 -0.0219 -0.0968 -2.1529
18719TIP3   OH277647   1.340   2.566  12.912 -0.3353  0.0960 -0.4270
18719TIP3    H177648   1.287   2.573  12.832  0.9154 -1.5602 -1.4880
18719TIP3    H277649   1.424   2.605  12.887  0.0034 -0.2723  0.1277
18720TIP3   OH277650   3.032   2.533   3.357 -0.2274 -0.3051 -0.4174
18720TIP3    H177651   3.052   2.612   3.306 -0.0064 -0.6767 -0.9232
18720TIP3    H277652   2.971   2.563   3.424  0.2600  0.4022 -0.2720
18721TIP3   OH277653   0.809   1.960   2.700  0.0093 -0.3344 -0.1096
18721TIP3    H177654   0.738   1.969   2.636  0.0591 -1.0415 -0.2763
18721TIP3    H277655   0.845   1.873   2.683  0.6895 -0.1196  0.2119
18722TIP3   OH277656   2.297   0.389  11.085 -0.1760 -0.2375 -0.1826
18722TIP3    H177657   2.343   0.373  11.003 -0.5169 -1.0205 -0.2290
18722TIP3    H277658   2.273   0.302  11.117 -0.0548  0.0579  0.7422
18723TIP3   OH277659   2.658   6.802  14.384 -0.8402  0.0292  0.0656
18723TIP3    H177660   2.571   6.824  14.350 -0.8972 -0.2920  0.0026
18723TIP3    H277661   2.716   6.866  14.343 -0.5799 -1.5527 -2.2705
18724TIP3   OH277662   1.466   5.970  11.623  0.6927 -0.3487  0.1294
18724TIP3    H177663   1.492   6.060  11.642  0.9588 -0.0728 -1.3630
18724TIP3    H277664   1.381   5.979  11.579  1.0800 -0.7565 -0.7197
18725TIP3   OH277665   0.509   1.282  10.377  0.1670 -0.0621  0.3707
18725TIP3    H177666   0.551   1.197  10.379 -0.5291 -0.3989  1.4140
18725TIP3    H277667   0.569   1.340  10.423  1.2403  0.3373 -1.4161
18726TIP3   OH277668   0.613   4.096   6.555  0.1510 -0.1149 -0.2574
18726TIP3    H177669   0.689   4.107   6.612  1.1682 -1.3874 -1.2943
18726TIP3    H277670   0.596   4.001   6.556 -0.3786 -0.0506 -1.3449
18727TIP3   OH277671   3.859   6.565  15.609 -0.3222  0.3250  0.3346
18727TIP3    H177672   3.768   6.544  15.589 -0.3716  0.7942  0.0404
18727TIP3    H277673   3.870   6.655  15.577  1.1039 -0.7430 -2.5194
18728TIP3   OH277674   3.931   6.280  15.603 -0.1784  0.2234 -0.5023
18728TIP3    H177675   3.885   6.300  15.521 -0.6995  2.8799  0.3520
18728TIP3    H277676   3.940   6.364  15.647  0.5173 -1.0533  1.9899
18729TIP3   OH277677   6.054   1.227   3.046 -0.3128  0.3280 -0.9644
18729TIP3    H177678   5.988   1.215   2.978 -0.1324  1.1699 -1.3092
18729TIP3    H277679   6.059   1.322   3.058 -0.8043  0.1797  0.6972
18730TIP3   OH277680   2.042   2.266   5.904 -0.0243 -0.0222  0.1952
18730TIP3    H177681   2.039   2.170   5.907  0.9549 -0.1531 -1.4889
18730TIP3    H277682   1.975   2.290   5.840  1.4775  0.1858 -1.3962
18731TIP3   OH277683   2.008   0.839  16.520  0.1373  0.0162 -0.4519
18731TIP3    H177684   1.920   0.804  16.506  0.9516 -2.2768 -0.3163
18731TIP3    H277685   2.061   0.797  16.452  0.8543  2.7904 -1.7477
18732TIP3   OH277686   6.790   4.717   5.013  0.4843 -0.2515 -0.3634
18732TIP3    H177687   6.846   4.721   4.936 -0.2076 -0.0792 -0.8700
18732TIP3    H277688   6.743   4.800   5.013  2.2763  0.8368  1.6638
18733TIP3   OH277689   2.530   0.553  16.834  0.2621  0.0802  0.4212
18733TIP3    H177690   2.559   0.462  16.840  2.3726  0.7191  0.8076
18733TIP3    H277691   2.530   0.573  16.740  2.1729  0.3256  0.4276
18734TIP3   OH277692   1.651   1.758   1.006  0.4160  0.1845  0.3557
18734TIP3    H177693   1.666   1.812   1.085 -1.4112  0.7887  0.3452
18734TIP3    H277694   1.636   1.822   0.936  2.5912 -0.3406 -0.6608
18735TIP3   OH277695   5.594   1.617  16.656  0.8112 -0.0306 -0.3228
18735TIP3    H177696   5.551   1.702  16.656 -0.3548 -0.6001 -0.0297
18735TIP3    H277697   5.633   1.610  16.569  0.1501  0.4309 -0.6630
18736TIP3   OH277698   6.180   3.849   4.225 -0.0006 -0.1606  0.7515
18736TIP3    H177699   6.207   3.787   4.294 -0.7351 -2.3952 -0.8459
18736TIP3    H277700   6.148   3.926   4.273 -0.5512 -1.6371  2.9172
18737TIP3   OH277701   0.118   6.512  11.279  0.0160 -0.2059  0.1165
18737TIP3    H177702   0.182   6.453  11.318  1.4965  1.4928  0.4209
18737TIP3    H277703   0.041   6.505  11.335  0.4371 -1.2627  0.5742
18738TIP3   OH277704   6.026   4.912  15.855 -0.5294  0.5374 -0.4650
18738TIP3    H177705   5.937   4.947  15.860 -1.2115 -0.8008 -2.1475
18738TIP3    H277706   6.019   4.838  15.794  1.0942 -1.5990  1.7239
18739TIP3   OH277707   6.758   2.835   2.540 -0.4775 -0.1028 -0.0021
18739TIP3    H177708   6.761   2.881   2.624  2.3125 -2.3427  1.2897
18739TIP3    H277709   6.678   2.783   2.544 -0.5404  0.0610  1.1177
18740TIP3   OH277710   5.810   2.942   1.101  0.0740 -0.6496 -0.1392
18740TIP3    H177711   5.822   3.031   1.068 -2.3763 -0.4061 -0.5513
18740TIP3    H277712   5.861   2.939   1.182  0.8639  0.8354 -0.5379
18741TIP3   OH277713   3.103   2.682   1.301  0.2410 -0.0902 -0.3017
18741TIP3    H177714   3.120   2.588   1.302  0.6363 -0.0627 -1.8984
18741TIP3    H277715   3.178   2.721   1.346 -1.3349 -0.6659  3.0873
18742TIP3   OH277716   1.370   0.796  14.494  0.1612  0.2052 -0.3558
18742TIP3    H177717   1.319   0.838  14.424 -0.2563  0.3553  0.0367
18742TIP3    H277718   1.427   0.734  14.448  0.5614  0.9721 -0.9218
18743TIP3   OH277719   0.708   3.230  15.977  0.1368  0.2073  0.1635
18743TIP3    H177720   0.769   3.173  15.929 -2.3350 -1.2325 -1.4965
18743TIP3    H277721   0.732   3.218  16.069  2.7808  0.2907 -0.4327
18744TIP3   OH277722   4.881   0.753  15.170 -0.3515 -0.0652 -0.6521
18744TIP3    H177723   4.927   0.670  15.176 -0.3376 -0.0781 -0.9204
18744TIP3    H277724   4.877   0.772  15.076 -0.8990 -0.0712 -0.6378
18745TIP3   OH277725   2.538   0.337   1.398  0.5260 -0.4107 -0.4315
18745TIP3    H177726   2.570   0.364   1.312  1.6140  1.7508  0.5445
18745TIP3    H277727   2.595   0.266   1.424  2.7290  1.3857 -0.0122
18746TIP3   OH277728   0.034   2.337   0.617  0.4354 -0.2718 -0.0077
18746TIP3    H177729   0.063   2.373   0.701  1.5087 -0.2362 -0.3768
18746TIP3    H277730  -0.031   2.399   0.585  0.8146  0.2858  0.2961
18747TIP3   OH277731   6.840   4.207  10.556 -0.2462  0.3890  0.7496
18747TIP3    H177732   6.767   4.191  10.496 -1.0478 -1.1177  2.0469
18747TIP3    H277733   6.915   4.223  10.499 -1.0805 -0.5379 -0.6497
18748TIP3   OH277734   6.503   1.043   6.567  0.1316 -0.1164 -0.3762
18748TIP3    H177735   6.523   1.132   6.539 -0.9837  0.0155 -0.8134
18748TIP3    H277736   6.581   1.014   6.613  0.1225  1.4691  0.6917
18749TIP3   OH277737   6.696   2.550   4.711 -0.1896 -0.0888 -0.3649
18749TIP3    H177738   6.684   2.461   4.677  0.4138 -1.0633  1.7911
18749TIP3    H277739   6.654   2.549   4.797 -0.1959  1.7486 -0.3025
18750TIP3   OH277740   2.108   1.333  15.615 -0.0605  0.0692 -0.1843
18750TIP3    H177741   2.146   1.402  15.670  0.9404  1.5866 -2.6323
18750TIP3    H277742   2.120   1.253  15.666  1.3669  1.2929  1.5242
18751TIP3   OH277743   2.986   5.265   5.289  0.3808 -0.4942 -0.2153
18751TIP3    H177744   3.038   5.325   5.344 -1.3412  1.1310 -0.2400
18751TIP3    H277745   3.029   5.269   5.203  1.4606 -0.8774  0.2881
18752TIP3   OH277746   1.757   2.802   0.403 -0.0855  0.4340 -0.2707
18752TIP3    H177747   1.752   2.826   0.310  1.3227  0.2729 -0.4204
18752TIP3    H277748   1.731   2.881   0.450 -0.4196  0.6447 -0.8006
18753TIP3   OH277749   2.111   2.106  16.700  0.1515 -0.2421 -1.2222
18753TIP3    H177750   2.185   2.052  16.670  1.0832  0.5031 -0.3458
18753TIP3    H277751   2.040   2.085  16.639  0.9696 -1.2551 -1.8710
18754TIP3   OH277752   3.184   2.823   4.711 -0.5365 -0.0615 -0.3023
18754TIP3    H177753   3.152   2.842   4.799 -1.6665  0.2941 -0.7721
18754TIP3    H277754   3.108   2.789   4.664  0.9820 -4.7768  0.0967
18755TIP3   OH277755   5.259   2.856  16.917 -0.0052  0.3850 -0.2782
18755TIP3    H177756   5.308   2.936  16.935 -1.1240  0.8952  0.5644
18755TIP3    H277757   5.256   2.851  16.821  2.1988 -0.0001 -0.3814
18756TIP3   OH277758   1.831   0.435   2.504 -0.6552  0.2060 -0.4509
18756TIP3    H177759   1.763   0.495   2.536 -1.4120 -0.0895 -1.4650
18756TIP3    H277760   1.789   0.387   2.433  0.6740  0.1235 -1.2072
18757TIP3   OH277761   0.734   6.603  13.404  0.0679 -0.3462 -0.1161
18757TIP3    H177762   0.767   6.553  13.478 -1.2784  0.1971  0.8896
18757TIP3    H277763   0.705   6.686  13.442  0.3846  0.3982 -1.4308
18758TIP3   OH277764   0.415   2.438  11.405  0.5750 -0.0787 -0.2242
18758TIP3    H177765   0.443   2.529  11.406 -0.5218  0.2782  2.2678
18758TIP3    H277766   0.478   2.393  11.461 -1.2299 -0.0238  1.9893
18759TIP3   OH277767   4.306   4.905  14.281 -0.0729  0.0543 -0.0733
18759TIP3    H177768   4.252   4.949  14.215 -0.3781 -0.1742  0.0283
18759TIP3    H277769   4.389   4.954  14.280  1.1864 -1.8495 -2.9345
18760TIP3   OH277770   6.505   2.004  10.622 -0.3362  0.2358  0.0882
18760TIP3    H177771   6.599   2.013  10.635 -0.2848  0.3136 -0.3079
18760TIP3    H277772   6.478   1.934  10.681  0.2199 -0.8030 -0.8432
18761TIP3   OH277773   3.501   1.430   6.112 -0.0718 -0.2648 -0.1485
18761TIP3    H177774   3.550   1.512   6.104 -0.6182  0.0082 -0.8336
18761TIP3    H277775   3.560   1.363   6.079 -0.2312  0.0927 -1.1898
18762TIP3   OH277776   5.482   6.052  12.362 -0.3619 -0.4242 -0.6228
18762TIP3    H177777   5.461   6.027  12.272  0.1091  2.9161 -1.8393
18762TIP3    H277778   5.441   6.138  12.372  0.2678 -0.3616  2.1122
18763TIP3   OH277779   6.566   3.176   0.291 -0.2723 -0.0084  1.1326
18763TIP3    H177780   6.523   3.261   0.291 -0.0940  0.0908  0.2347
18763TIP3    H277781   6.495   3.112   0.285 -0.3295  0.1828 -1.7160
18764TIP3   OH277782   2.666   0.529   0.180  0.5495  0.7340 -0.4006
18764TIP3    H177783   2.604   0.571   0.239 -0.3233 -1.5745  0.4592
18764TIP3    H277784   2.652   0.572   0.095 -1.4984  0.9800  0.0151
18765TIP3   OH277785   3.552   2.853   5.525  0.0724 -0.0787 -0.5256
18765TIP3    H177786   3.499   2.932   5.513  0.8677  0.3542 -1.3440
18765TIP3    H277787   3.494   2.792   5.569 -1.2746  0.2125 -1.7970
18766TIP3   OH277788   1.822   0.776   5.843 -0.1987 -0.1301 -0.4959
18766TIP3    H177789   1.853   0.827   5.768  2.0891 -0.0082  0.4349
18766TIP3    H277790   1.830   0.836   5.918 -1.1378 -0.6713  0.0537
18767TIP3   OH277791   1.525   4.084  10.841  0.0835 -0.1308 -0.7214
18767TIP3    H177792   1.543   4.171  10.804  0.8394  0.6069  1.2177
18767TIP3    H277793   1.601   4.065  10.896  0.1159 -2.2322 -1.4093
18768TIP3   OH277794   2.048   6.176   5.398  0.1626 -0.0219 -0.4670
18768TIP3    H177795   2.085   6.244   5.341 -1.0109 -0.9090 -2.3749
18768TIP3    H277796   2.120   6.116   5.414  0.5742  0.3790 -0.7925
18769TIP3   OH277797   1.758   1.351  16.509  0.6365 -0.0293  0.7695
18769TIP3    H177798   1.687   1.391  16.561  1.1389 -0.8500  2.1544
18769TIP3    H277799   1.775   1.414  16.440 -1.4535  0.1999  0.3795
18770TIP3   OH277800   2.361   1.225   0.857  0.1239  0.5241  0.1664
18770TIP3    H177801   2.405   1.295   0.808 -0.7025  0.6227 -0.4387
18770TIP3    H277802   2.270   1.253   0.862  0.0968  0.2955  1.3804
18771TIP3   OH277803   6.392   3.373  14.388  0.2976 -0.1513 -0.6081
18771TIP3    H177804   6.332   3.388  14.314 -0.1506 -1.1349 -0.4601
18771TIP3    H277805   6.398   3.458  14.432 -0.1634  0.2139 -1.2327
18772TIP3   OH277806   6.661   6.618   3.087  0.1078 -0.5552  0.4638
18772TIP3    H177807   6.687   6.542   3.034  1.2995 -1.9833  2.8894
18772TIP3    H277808   6.729   6.623   3.154 -0.6455  1.9353  1.1118
18773TIP3   OH277809   5.423   4.211  13.555  0.1309 -0.1473  0.1003
18773TIP3    H177810   5.471   4.245  13.479  0.2664 -1.0073 -0.2011
18773TIP3    H277811   5.475   4.237  13.630  0.1019  0.5369 -0.1039
18774TIP3   OH277812   1.559   6.371   3.567 -0.6433  0.3327  0.0960
18774TIP3    H177813   1.592   6.425   3.639  0.0283 -0.9016  0.7272
18774TIP3    H277814   1.589   6.283   3.587 -0.7678 -0.0927 -1.5197
18775TIP3   OH277815   4.456   3.765   5.068 -0.2990 -0.4883  0.3660
18775TIP3    H177816   4.494   3.694   5.016  1.7861  2.1440 -2.0562
18775TIP3    H277817   4.489   3.750   5.157 -0.7959 -3.0441  0.1758
18776TIP3   OH277818   3.453   2.876  13.211 -0.3222 -0.3977  0.4726
18776TIP3    H177819   3.506   2.956  13.212 -0.3692 -0.3673  1.1569
18776TIP3    H277820   3.518   2.805  13.216 -0.2930 -0.3967  0.1311
18777TIP3   OH277821   4.223   3.691   1.489 -0.4185  0.4983  0.3100
18777TIP3    H177822   4.201   3.775   1.529 -1.0935  0.8955 -0.8333
18777TIP3    H277823   4.145   3.637   1.501 -0.3501  0.3693  0.1833
18778TIP3   OH277824   3.365   1.793  16.101 -0.4181  0.0018 -1.4249
18778TIP3    H177825   3.453   1.759  16.086  1.2134  3.0889  0.0275
18778TIP3    H277826   3.329   1.807  16.014  0.7119 -0.8653 -2.0606
18779TIP3   OH277827   5.258   1.534   4.967  0.4432 -0.5236  0.1726
18779TIP3    H177828   5.240   1.463   4.905 -2.2477  0.2175 -0.0139
18779TIP3    H277829   5.283   1.608   4.912  1.7836 -0.8707  0.2750
18780TIP3   OH277830   2.390   5.881   0.657 -0.4574 -0.3038 -0.4144
18780TIP3    H177831   2.472   5.929   0.646 -1.0473  0.9349  0.4848
18780TIP3    H277832   2.333   5.915   0.588 -0.9159  0.4047  0.2996
18781TIP3   OH277833   2.826   3.164   5.146 -0.0520  0.2766  0.1284
18781TIP3    H177834   2.790   3.075   5.143  1.3908 -0.3880  1.2471
18781TIP3    H277835   2.803   3.197   5.233 -3.3421  2.3027 -1.3295
18782TIP3   OH277836   1.977   3.796   0.496  0.0373  0.1451  0.1247
18782TIP3    H177837   1.931   3.732   0.441 -0.4066  1.2416 -0.8254
18782TIP3    H277838   1.992   3.871   0.438  1.2042  0.6276  1.0040
18783TIP3   OH277839   0.693   2.754  12.742 -0.0253 -0.3918 -0.3716
18783TIP3    H177840   0.607   2.792  12.724 -0.5015 -0.3921  1.7153
18783TIP3    H277841   0.700   2.680  12.681 -1.9803 -1.0644  0.1533
18784TIP3   OH277842   0.074   0.225   2.008  0.1897 -0.3553  0.4524
18784TIP3    H177843   0.041   0.250   2.095 -0.1437  0.9571 -0.0219
18784TIP3    H277844   0.154   0.277   1.997  0.7940 -1.2839  0.3759
18785TIP3   OH277845   6.388   1.488   3.369  0.6090  0.1339 -0.4253
18785TIP3    H177846   6.312   1.500   3.427  1.1181 -1.0498  0.5129
18785TIP3    H277847   6.351   1.491   3.281 -0.5124 -0.2553  0.0096
18786TIP3   OH277848   1.462   6.384   3.080 -0.6820 -0.5044  0.1598
18786TIP3    H177849   1.399   6.442   3.124 -0.4278 -0.0672 -0.0461
18786TIP3    H277850   1.415   6.301   3.072 -0.7720 -0.5746  1.1811
18787TIP3   OH277851   0.563   0.452  14.458  0.4572 -0.1917 -0.3390
18787TIP3    H177852   0.658   0.460  14.469  0.7109 -1.9504 -0.8715
18787TIP3    H277853   0.526   0.516  14.519  1.9677 -0.5039  0.9740
18788TIP3   OH277854   3.673   2.636   6.155 -0.0336  0.3202 -0.1756
18788TIP3    H177855   3.753   2.609   6.110 -0.4573  0.0881 -0.7992
18788TIP3    H277856   3.646   2.716   6.109  0.0165  0.5881  0.2498
18789TIP3   OH277857   4.456   4.914   3.820  0.0540  0.4989  0.4289
18789TIP3    H177858   4.524   4.977   3.797 -0.2461  0.3675 -0.9678
18789TIP3    H277859   4.503   4.841   3.860  0.8053  0.2569 -0.8268
18790TIP3   OH277860   0.229   3.182  12.330  0.1634 -0.0707 -0.3528
18790TIP3    H177861   0.321   3.180  12.357  0.3596  2.7345 -0.5323
18790TIP3    H277862   0.183   3.221  12.404 -0.4702  0.7915 -1.1692
18791TIP3   OH277863   0.742   1.187   4.325 -0.7993  0.0089  0.8594
18791TIP3    H177864   0.718   1.215   4.413 -0.3704  1.0974  0.6469
18791TIP3    H277865   0.711   1.258   4.268  0.4897  0.1579  0.3168
18792TIP3   OH277866   3.566   6.006  12.587 -0.2742 -0.3408  0.1698
18792TIP3    H177867   3.593   5.937  12.527  1.9711  0.5279  0.0874
18792TIP3    H277868   3.574   6.087  12.536 -3.3832  0.0465  0.0787
18793TIP3   OH277869   2.442   2.170   2.988  0.1267  0.6475 -0.1107
18793TIP3    H177870   2.527   2.182   3.029  0.0000  1.4134 -0.0658
18793TIP3    H277871   2.403   2.096   3.034  0.3421  0.9520  0.5664
18794TIP3   OH277872   3.521   1.639  13.443  0.5452 -0.1699 -0.4169
18794TIP3    H177873   3.506   1.643  13.537  0.4081  0.4161 -0.4591
18794TIP3    H277874   3.607   1.599  13.434  0.9549  0.6123 -0.0072
18795TIP3   OH277875   3.126   1.775  11.966 -0.5284 -0.1797  0.3356
18795TIP3    H177876   3.183   1.763  11.891  0.1345  2.5138  0.2951
18795TIP3    H277877   3.186   1.791  12.039 -1.1943  0.1986  0.8114
18796TIP3   OH277878   2.806   4.489  13.331 -0.0243  0.3337  0.6038
18796TIP3    H177879   2.840   4.577  13.316 -0.8004  0.7676  1.3139
18796TIP3    H277880   2.820   4.443  13.248 -0.2779  1.3450 -0.0177
18797TIP3   OH277881   0.299   5.308   6.097  0.0946  0.1860 -0.5849
18797TIP3    H177882   0.225   5.339   6.149 -0.8057 -1.3688 -0.8797
18797TIP3    H277883   0.336   5.388   6.059 -0.2906  1.1769  1.0135
18798TIP3   OH277884   1.893   2.264   6.154  0.7201 -0.1308 -0.1144
18798TIP3    H177885   1.933   2.327   6.213  4.7450 -2.7084  0.3169
18798TIP3    H277886   1.918   2.293   6.066 -1.7589  1.4615 -0.3738
18799TIP3   OH277887   4.381   4.186   4.264  0.6696  0.0968  0.6520
18799TIP3    H177888   4.370   4.268   4.312  0.4707  0.7580 -0.4752
18799TIP3    H277889   4.368   4.118   4.329  1.5159  0.9543  1.7679
18800TIP3   OH277890   6.322   0.856  14.210  0.0396 -0.0481  0.2673
18800TIP3    H177891   6.344   0.906  14.288  1.2964  2.1926 -1.4101
18800TIP3    H277892   6.315   0.922  14.140 -2.7389 -1.7267 -1.2318
18801TIP3   OH277893   4.898   6.409  11.809 -0.1845  0.1396  0.0064
18801TIP3    H177894   4.965   6.477  11.796 -1.2998  1.6399  1.6497
18801TIP3    H277895   4.927   6.336  11.755  2.1989  1.1376 -0.1702
18802TIP3   OH277896   1.894   4.466  11.484  0.0925  0.2585 -0.0152
18802TIP3    H177897   1.936   4.548  11.512 -0.3193  0.2013  0.7709
18802TIP3    H277898   1.808   4.467  11.525 -0.0070 -0.4632 -0.1940
18803TIP3   OH277899   2.147   5.738   0.087 -0.1143  0.3552  0.1300
18803TIP3    H177900   2.056   5.734   0.118 -0.2580  1.6724 -0.0344
18803TIP3    H277901   2.197   5.767   0.163 -0.0051  0.6531 -0.0507
18804TIP3   OH277902   5.021   1.699   0.823 -0.1305  0.6191  0.4954
18804TIP3    H177903   5.024   1.792   0.801 -0.2868  0.4490 -0.2688
18804TIP3    H277904   5.084   1.658   0.764 -0.6502  0.1328  0.2597
18805TIP3   OH277905   3.186   4.440   4.590 -0.1859 -0.3921 -0.3750
18805TIP3    H177906   3.108   4.486   4.559  0.5293 -0.4249 -2.3377
18805TIP3    H277907   3.257   4.474   4.536  1.1029 -0.7226  1.0385
18806TIP3   OH277908   0.808   1.332  12.419 -0.7653 -0.0236  0.0751
18806TIP3    H177909   0.808   1.327  12.324  1.0399  0.7237 -0.0063
18806TIP3    H277910   0.800   1.425  12.439 -0.2748 -0.0909  0.6268
18807TIP3   OH277911   1.109   0.126   2.400  0.4161 -0.1570  0.0086
18807TIP3    H177912   1.149   0.184   2.335  1.8331 -2.0495 -0.9268
18807TIP3    H277913   1.038   0.082   2.352 -0.4213  0.5153  0.6070
18808TIP3   OH277914   2.408   1.958  13.792 -0.2529 -0.1518 -0.3422
18808TIP3    H177915   2.489   1.986  13.835 -1.3443  0.0540  1.7208
18808TIP3    H277916   2.433   1.944  13.701  1.4859  2.6373 -0.4096
18809TIP3   OH277917   6.427   1.393  12.667  0.0215 -0.3945 -0.6289
18809TIP3    H177918   6.352   1.370  12.722  0.3427 -1.1312 -0.4789
18809TIP3    H277919   6.426   1.488  12.664 -1.4105 -0.4061 -1.3153
18810TIP3   OH277920   3.005   0.834   5.380 -0.1315 -0.0844  0.4192
18810TIP3    H177921   3.013   0.928   5.361  1.5054 -0.6091 -1.9161
18810TIP3    H277922   3.083   0.795   5.340 -1.4623 -2.6252  0.1020
18811TIP3   OH277923   5.097   3.293   6.502 -0.0208  0.1490 -0.4653
18811TIP3    H177924   5.075   3.202   6.485 -1.7813  0.0961  1.6847
18811TIP3    H277925   5.049   3.343   6.436 -0.6089 -0.3796 -0.4410
18812TIP3   OH277926   3.607   3.283  11.791  0.6983 -0.0449  0.1291
18812TIP3    H177927   3.520   3.322  11.798  1.7083  1.9967  2.9234
18812TIP3    H277928   3.603   3.206  11.847  1.7278  2.4548  4.0093
18813TIP3   OH277929   0.889   1.031   6.108  1.1244  0.1288 -0.7547
18813TIP3    H177930   0.946   1.027   6.185  0.8453 -0.5554 -0.5755
18813TIP3    H277931   0.835   0.952   6.114 -0.4134  1.1499 -0.4835
18814TIP3   OH277932   2.242   1.217  10.951 -0.5022  0.4008  0.5021
18814TIP3    H177933   2.272   1.291  10.899  0.1502 -0.4934 -0.4390
18814TIP3    H277934   2.231   1.252  11.039 -0.6969  1.7288 -0.0232
18815TIP3   OH277935   1.220   4.938  10.506 -0.6048 -0.1624 -0.1351
18815TIP3    H177936   1.125   4.934  10.499 -0.6523 -2.3279  0.7493
18815TIP3    H277937   1.237   5.014  10.561 -1.8625  0.0484 -0.0050
18816TIP3   OH277938   1.322   3.360  13.756 -0.4102 -0.2050  0.2938
18816TIP3    H177939   1.371   3.393  13.832 -0.2038 -0.9011  0.4783
18816TIP3    H277940   1.357   3.271  13.743 -0.0852  0.0920 -0.9312
18817TIP3   OH277941   2.048   1.743  14.413  0.0491  0.5284  1.4836
18817TIP3    H177942   2.060   1.749  14.508 -1.1857 -0.5885  1.7380
18817TIP3    H277943   2.015   1.654  14.399 -0.6373  0.9786  0.0947
18818TIP3   OH277944   4.333   3.094  16.675 -0.0568 -0.4231  0.2309
18818TIP3    H177945   4.365   3.175  16.635  0.3832 -0.5447  0.3365
18818TIP3    H277946   4.289   3.048  16.603  2.0065 -1.3250 -0.5311
18819TIP3   OH277947   2.694   0.827  16.018 -0.6161 -0.1074 -0.4995
18819TIP3    H177948   2.664   0.832  16.109 -0.1848 -0.0693 -0.3583
18819TIP3    H277949   2.683   0.735  15.994  0.5669 -0.4053  0.0414
18820TIP3   OH277950   1.535   1.144  12.574  0.5463 -0.4455  0.8003
18820TIP3    H177951   1.548   1.120  12.482  2.5048  4.0835 -0.3760
18820TIP3    H277952   1.620   1.127  12.616  1.6475  2.7779  0.1704
18821TIP3   OH277953   6.603   2.595  15.937 -0.5327 -0.5953 -0.9158
18821TIP3    H177954   6.634   2.564  16.023 -1.0960  1.0633 -0.0584
18821TIP3    H277955   6.578   2.516  15.890 -1.3244 -1.4808  0.9019
18822TIP3   OH277956   1.122   1.895  14.976 -0.0326 -0.5415 -0.2378
18822TIP3    H177957   1.047   1.868  15.028 -1.0414 -2.3034 -2.4488
18822TIP3    H277958   1.085   1.947  14.905  1.2033  1.0652  0.2358
18823TIP3   OH277959   3.949   4.064  11.762 -0.0316  0.4467 -0.1315
18823TIP3    H177960   3.905   3.982  11.788  1.6773 -0.4872 -0.0203
18823TIP3    H277961   4.031   4.063  11.812  0.3355  1.9019 -0.6725
18824TIP3   OH277962   6.288   2.556   4.482 -0.4823 -0.1433 -0.1016
18824TIP3    H177963   6.210   2.538   4.429 -0.4265  0.2173 -0.3158
18824TIP3    H277964   6.287   2.491   4.551 -0.1608 -1.1030 -0.9722
18825TIP3   OH277965   0.441   2.660  14.019  0.3372  0.0584  0.0125
18825TIP3    H177966   0.387   2.581  14.013 -0.0976  0.2752  0.9546
18825TIP3    H277967   0.380   2.732  14.001 -0.4435  0.5453  3.8351
18826TIP3   OH277968   3.392   2.209   0.042 -0.2400  0.2069 -0.0799
18826TIP3    H177969   3.456   2.139   0.025 -0.6495 -0.2854  0.3799
18826TIP3    H277970   3.445   2.282   0.074  0.2960  0.4303 -1.4113
18827TIP3   OH277971   5.267   4.929  16.676  0.2647 -0.1303 -0.2053
18827TIP3    H177972   5.248   4.835  16.683 -0.7475  0.1625  1.6891
18827TIP3    H277973   5.347   4.941  16.727  1.7603 -0.2742 -2.4011
18828TIP3   OH277974   2.778   1.634   4.600  0.1591 -0.0210 -0.3752
18828TIP3    H177975   2.705   1.576   4.577 -0.3327 -0.1893  1.4491
18828TIP3    H277976   2.736   1.714   4.631  0.5539 -1.1158  3.3877
18829TIP3   OH277977   2.318   4.208  16.290 -0.9594 -0.1592  0.1933
18829TIP3    H177978   2.228   4.212  16.258 -0.6166  1.2304 -0.6670
18829TIP3    H277979   2.319   4.266  16.366 -0.7846 -0.1847  0.2092
18830TIP3   OH277980   3.865   3.515  14.757  0.3169 -0.0443 -0.9230
18830TIP3    H177981   3.942   3.571  14.742 -0.3988  0.3618 -3.5967
18830TIP3    H277982   3.872   3.446  14.691 -1.4768 -0.1318 -1.0711
18831TIP3   OH277983   2.749   2.777   4.874 -0.0813 -0.2271  0.2380
18831TIP3    H177984   2.703   2.859   4.856  0.3341  0.0887  0.6058
18831TIP3    H277985   2.784   2.750   4.789 -2.2797 -1.3244 -0.4072
18832TIP3   OH277986   0.547   2.907  11.554 -0.1926  0.5230  0.1888
18832TIP3    H177987   0.475   2.930  11.495 -0.0940  0.7693  0.1624
18832TIP3    H277988   0.504   2.873  11.632 -0.3287 -2.4851 -1.0428
18833TIP3   OH277989   2.076   2.264  14.665 -0.6094  0.3702  0.1048
18833TIP3    H177990   2.079   2.343  14.719 -0.3478 -0.5214  1.4451
18833TIP3    H277991   1.994   2.221  14.689 -0.3565 -0.1828  0.0162
18834TIP3   OH277992   0.210   1.847   1.457  0.0291  0.1799  0.5391
18834TIP3    H177993   0.256   1.916   1.505  0.6602 -0.5724  1.0372
18834TIP3    H277994   0.148   1.894   1.401  0.7738  1.1720  0.5221
18835TIP3   OH277995   4.438   0.163   6.367 -0.3134  0.1116 -0.1521
18835TIP3    H177996   4.414   0.206   6.449  0.5045  3.3946 -1.4667
18835TIP3    H277997   4.533   0.173   6.362 -0.2202 -1.0624 -0.9765
18836TIP3   OH277998   0.056   0.571  15.781 -0.6726  0.4879  0.0236
18836TIP3    H177999   0.119   0.603  15.717 -1.9449 -0.1541 -1.6342
18836TIP3    H278000   0.042   0.480  15.758 -1.1666  0.2259  1.2480
18837TIP3   OH278001   1.305   6.818   4.082 -0.3484 -0.4052 -0.1161
18837TIP3    H178002   1.303   6.885   4.014  0.1419  0.0449  0.3071
18837TIP3    H278003   1.213   6.790   4.090 -0.1061 -2.2353 -2.6509
18838TIP3   OH278004   5.409   5.050   0.228  0.0570 -0.2525 -0.5447
18838TIP3    H178005   5.398   5.109   0.303  2.3940 -2.4402  1.7267
18838TIP3    H278006   5.480   5.089   0.177 -0.7587  0.6418 -1.0340
18839TIP3   OH278007   3.874   1.161  12.894 -0.1359 -0.0690 -0.2396
18839TIP3    H178008   3.891   1.102  12.968 -0.8367  1.8071  1.4965
18839TIP3    H278009   3.849   1.244  12.935  2.3141  1.9571 -2.5801
18840TIP3   OH278010   0.568   0.201  14.175  0.2036  0.0176 -0.3284
18840TIP3    H178011   0.494   0.161  14.130 -2.2101  2.7823  0.8882
18840TIP3    H278012   0.618   0.244  14.106 -0.2899 -0.4315 -0.9725
18841TIP3   OH278013   5.372   6.555  10.614  0.2772  0.1928  0.0068
18841TIP3    H178014   5.336   6.478  10.570 -1.5611  0.7631  0.4414
18841TIP3    H278015   5.355   6.540  10.707  0.3783  0.8922  0.1456
18842TIP3   OH278016   1.530   3.549  13.261 -0.0509 -0.6519  0.1132
18842TIP3    H178017   1.589   3.530  13.188 -0.4455 -0.4987 -0.2449
18842TIP3    H278018   1.500   3.638  13.246 -1.7827 -1.3265 -0.6907
18843TIP3   OH278019   4.228   5.376  12.177 -0.1948 -0.4611  0.6100
18843TIP3    H178020   4.159   5.329  12.224 -0.5604  0.0528  0.5991
18843TIP3    H278021   4.217   5.350  12.085 -1.0911  0.4680  0.4380
18844TIP3   OH278022   5.730   6.835   2.007  0.1142 -0.4453  0.2855
18844TIP3    H178023   5.670   6.827   1.933  1.3470  0.0140 -0.7966
18844TIP3    H278024   5.810   6.872   1.969 -0.3632  3.2674  2.3917
18845TIP3   OH278025   6.531   0.928   1.635 -0.3349  0.0443 -0.2113
18845TIP3    H178026   6.542   1.000   1.697  1.7521 -1.7911  1.7231
18845TIP3    H278027   6.571   0.961   1.554  0.0838  1.2461  0.4539
18846TIP3   OH278028   2.450   1.210  15.168  0.1741  0.3016  0.3173
18846TIP3    H178029   2.452   1.294  15.214  1.2304 -0.5777  1.9988
18846TIP3    H278030   2.484   1.147  15.232  0.9237 -1.1569 -1.4246
18847TIP3   OH278031   2.129   3.700  15.579 -0.4229  0.0982  0.5146
18847TIP3    H178032   2.145   3.784  15.535  0.3639  0.4410  1.4075
18847TIP3    H278033   2.086   3.725  15.661 -0.7005 -0.4197  0.5262
18848TIP3   OH278034   6.615   0.963  16.467 -0.5027 -0.0601  0.2120
18848TIP3    H178035   6.639   1.017  16.542 -1.0415  1.8100 -0.9009
18848TIP3    H278036   6.697   0.947  16.421 -0.3602 -0.0454  0.4605
18849TIP3   OH278037   2.986   1.888   1.091 -0.0768  0.5529 -0.1728
18849TIP3    H178038   3.044   1.958   1.060  1.0697 -0.4489 -0.3544
18849TIP3    H278039   3.013   1.811   1.041 -0.6414 -0.2587  0.7529
18850TIP3   OH278040   5.375   6.146  10.536 -0.6894  0.0468 -0.0268
18850TIP3    H178041   5.428   6.164  10.613 -3.1951 -0.6627  1.9779
18850TIP3    H278042   5.298   6.202  10.546 -2.3273 -1.9921 -0.5696
18851TIP3   OH278043   6.624   0.525  15.893  0.0182  0.0382 -0.7369
18851TIP3    H178044   6.648   0.551  15.982  0.2850 -0.0031 -0.7978
18851TIP3    H278045   6.690   0.565  15.837 -1.3856  1.9478 -1.1436
18852TIP3   OH278046   5.741   2.570  11.398  0.6119 -0.3611 -0.5062
18852TIP3    H178047   5.827   2.549  11.360  0.0263  0.2519 -2.2349
18852TIP3    H278048   5.693   2.614  11.328 -0.9676 -0.2643  0.5791
18853TIP3   OH278049   4.813   3.301  15.415  0.3317  0.2663 -0.1929
18853TIP3    H178050   4.895   3.327  15.373  0.6214  0.0106  0.2087
18853TIP3    H278051   4.750   3.368  15.388  0.9445  1.1126  0.4192
18854TIP3   OH278052   5.479   2.490  15.638  0.5794  0.3587 -0.1957
18854TIP3    H178053   5.427   2.495  15.558 -0.2609  1.6765  0.3959
18854TIP3    H278054   5.507   2.580  15.654  0.1082  0.2544  1.3938
18855TIP3   OH278055   1.372   2.380  13.468 -0.1785 -0.1922 -0.8590
18855TIP3    H178056   1.333   2.297  13.497 -0.6407 -0.2017 -1.4893
18855TIP3    H278057   1.298   2.440  13.463 -0.2103 -0.3382 -2.5324
18856TIP3   OH278058   5.492   2.532   1.065  0.3482  0.1171 -0.0835
18856TIP3    H178059   5.586   2.547   1.051 -0.0122  0.4902 -2.6382
18856TIP3    H278060   5.477   2.444   1.030 -0.6660  1.1433 -2.5295
18857TIP3   OH278061   2.827   1.320  14.747  0.4055 -0.1870  0.3998
18857TIP3    H178062   2.857   1.231  14.762  0.8212 -0.0328  0.4833
18857TIP3    H278063   2.878   1.351  14.672  0.7525  0.2179  0.7973
18858TIP3   OH278064   3.236   6.131  14.843  0.8972 -0.0691  0.0254
18858TIP3    H178065   3.221   6.224  14.828 -0.1843 -0.1701  0.3433
18858TIP3    H278066   3.241   6.093  14.755 -0.7486  0.0111 -0.1431
18859TIP3   OH278067   1.394   0.153   2.877 -0.0895 -0.0729 -0.1340
18859TIP3    H178068   1.317   0.103   2.902  0.9159 -0.4442  2.4732
18859TIP3    H278069   1.460   0.086   2.857 -0.1859  0.2480 -1.6980
18860TIP3   OH278070   4.754   4.706  12.330  0.1375  0.1550  0.3869
18860TIP3    H178071   4.807   4.663  12.262 -1.1352  2.0000 -1.9276
18860TIP3    H278072   4.678   4.648  12.341 -0.1140  0.2882 -0.5195
18861TIP3   OH278073   2.270   1.200   3.095  0.2754 -0.4293 -0.4715
18861TIP3    H178074   2.331   1.177   3.165  0.7060  0.7421 -0.4243
18861TIP3    H278075   2.306   1.282   3.059 -0.6250 -0.3532 -1.2304
18862TIP3   OH278076   2.463   0.653   3.706 -0.2616  0.1164 -0.3655
18862TIP3    H178077   2.441   0.727   3.649  0.5268 -0.6762 -1.7578
18862TIP3    H278078   2.558   0.653   3.710 -0.2927  1.0115  2.1955
18863TIP3   OH278079   1.040   2.976  11.176 -0.8913 -0.1335 -0.2379
18863TIP3    H178080   1.061   2.978  11.083  0.3036  0.4319  0.0260
18863TIP3    H278081   0.944   2.981  11.179 -0.9339  0.0162 -1.4281
18864TIP3   OH278082   2.144   0.738  12.920  0.5505 -0.0996  0.0649
18864TIP3    H178083   2.083   0.806  12.946  0.4699  0.3668 -1.2757
18864TIP3    H278084   2.138   0.672  12.990  0.1618  0.9460  1.0497
18865TIP3   OH278085   1.096   5.637   0.355  0.4506  0.2093  0.4806
18865TIP3    H178086   1.104   5.668   0.445 -1.0400 -1.5990  1.3198
18865TIP3    H278087   1.166   5.572   0.346  1.5749  1.4575 -0.2326
18866TIP3   OH278088   1.279   4.406   1.035 -0.3464 -0.1033  0.1795
18866TIP3    H178089   1.245   4.482   0.986 -0.9566 -0.2188  0.4123
18866TIP3    H278090   1.209   4.340   1.028 -0.0855 -0.4186  0.5063
18867TIP3   OH278091   6.132   4.284   0.965  0.2887 -0.1006  0.0246
18867TIP3    H178092   6.130   4.379   0.974  0.6484 -0.1392  0.5693
18867TIP3    H278093   6.040   4.259   0.952  0.3167  0.4215 -1.3415
18868TIP3   OH278094   4.028   2.682   0.858  0.3025  0.4401  0.3332
18868TIP3    H178095   4.035   2.738   0.935 -0.4110  1.2444 -0.1685
18868TIP3    H278096   3.953   2.717   0.810 -1.4086 -2.0821  0.9376
18869TIP3   OH278097   4.622   3.416  10.432  0.4185 -0.4104  0.1019
18869TIP3    H178098   4.690   3.481  10.414  0.8931 -0.5142  1.4180
18869TIP3    H278099   4.647   3.341  10.378  0.3340  0.1827 -0.7859
18870TIP3   OH278100   4.788   1.904   3.171 -0.1685  0.0689  0.1330
18870TIP3    H178101   4.840   1.892   3.250  1.3179  0.3277 -0.7589
18870TIP3    H278102   4.797   1.997   3.151 -2.2542  0.4551  0.7729
18871TIP3   OH278103   6.467   2.386   6.052 -0.1876 -0.0781  0.7782
18871TIP3    H178104   6.514   2.317   6.099  2.3790 -0.8497 -2.5121
18871TIP3    H278105   6.432   2.341   5.974 -1.0608  1.7640  0.0505
18872TIP3   OH278106   6.151   1.893  13.718  0.4143  0.0063 -0.2298
18872TIP3    H178107   6.163   1.889  13.623  0.5330  1.5186 -0.2982
18872TIP3    H278108   6.232   1.856  13.754  0.0844 -1.2268 -0.6947
18873TIP3   OH278109   0.656   2.308  14.888  0.1165 -0.0848 -0.2860
18873TIP3    H178110   0.677   2.235  14.829  2.8076  1.2806 -1.1648
18873TIP3    H278111   0.583   2.352  14.845 -0.9499 -1.6903 -0.2101
18874TIP3   OH278112   1.167   6.513  12.348 -0.0497  0.8287  0.4934
18874TIP3    H178113   1.236   6.467  12.396 -0.3469  0.3796  0.5071
18874TIP3    H278114   1.181   6.489  12.257  1.0571  2.4034  0.2196
18875TIP3   OH278115   1.316   6.503   1.651  0.3084 -0.2872 -0.1942
18875TIP3    H178116   1.376   6.565   1.610  1.1604 -0.6220  0.5121
18875TIP3    H278117   1.228   6.537   1.632  0.7594  1.8209  1.2177
18876TIP3   OH278118   3.970   3.336   0.039  0.0973 -0.3872 -0.6641
18876TIP3    H178119   3.945   3.362  -0.049  0.4377  3.2206  0.1313
18876TIP3    H278120   4.065   3.329   0.036  0.0471 -1.0368 -0.7539
18877TIP3   OH278121   4.603   1.392  13.974 -0.7871 -0.5617  0.6832
18877TIP3    H178122   4.567   1.424  14.056 -0.4105  0.0956  0.5998
18877TIP3    H278123   4.677   1.337  14.000  0.5818  1.2304  0.7514
18878TIP3   OH278124   4.922   2.042  16.302 -0.1264 -0.5111  0.1411
18878TIP3    H178125   4.885   2.081  16.223 -2.4310 -1.2753  0.7405
18878TIP3    H278126   4.943   1.952  16.277  2.7907  0.2609 -0.5552
18879TIP3   OH278127   0.992   3.496   2.320  0.1678  0.1698 -0.6114
18879TIP3    H178128   0.959   3.472   2.233  2.3744 -1.3557 -1.1240
18879TIP3    H278129   1.084   3.468   2.319  0.1848 -0.1797  2.3463
18880TIP3   OH278130   1.735   1.359  15.763 -0.5819  0.7533 -0.0908
18880TIP3    H178131   1.742   1.420  15.837  1.4294  2.2589 -1.3972
18880TIP3    H278132   1.809   1.300  15.773  0.0574  1.3354 -1.1575
18881TIP3   OH278133   2.457   4.567   2.459 -0.2908 -0.1573  0.2091
18881TIP3    H178134   2.466   4.659   2.485  2.6655 -0.5342  0.9054
18881TIP3    H278135   2.496   4.563   2.372 -1.7077 -0.5431 -0.4263
18882TIP3   OH278136   4.232   5.711  15.194  0.1843  0.6645  0.3945
18882TIP3    H178137   4.236   5.744  15.284 -0.6387 -0.8325  1.0149
18882TIP3    H278138   4.160   5.761  15.154  1.4848  2.3757  0.0694
18883TIP3   OH278139   1.719   6.266   1.758 -0.3846  0.1498  1.0467
18883TIP3    H178140   1.712   6.353   1.720  1.1191 -0.1381 -0.0046
18883TIP3    H278141   1.630   6.243   1.785 -0.8603  1.8357  0.9917
18884TIP3   OH278142   5.186   0.795  13.899  0.6205 -0.1244  0.5415
18884TIP3    H178143   5.154   0.817  13.812 -1.3744 -2.8444  0.4615
18884TIP3    H278144   5.170   0.701  13.908 -0.7117  0.2809  4.3863
18885TIP3   OH278145   4.698   5.123  14.718  0.1860 -0.7067 -0.5225
18885TIP3    H178146   4.614   5.078  14.714  1.1396 -2.5267 -1.2367
18885TIP3    H278147   4.679   5.212  14.689 -1.7681 -0.6005  0.9183
18886TIP3   OH278148   0.169   1.377  13.515 -0.2678 -0.3518 -0.2713
18886TIP3    H178149   0.080   1.404  13.492 -0.1457  0.7115  0.4539
18886TIP3    H278150   0.225   1.427  13.455  0.0510  2.4057  2.1203
18887TIP3   OH278151   2.728   5.385   5.977 -0.3354  0.1038  0.5536
18887TIP3    H178152   2.721   5.455   6.043  1.7477  1.1218 -0.2203
18887TIP3    H278153   2.751   5.431   5.896 -0.2286 -1.3838 -0.2942
18888TIP3   OH278154   3.503   2.207   5.325  0.2922 -0.0784  0.2066
18888TIP3    H178155   3.545   2.120   5.330  0.8972  0.1188 -1.0320
18888TIP3    H278156   3.575   2.268   5.341  0.2200  0.2338 -0.6501
18889TIP3   OH278157   2.223   3.245   2.820 -0.3328  0.1424 -0.3479
18889TIP3    H178158   2.296   3.237   2.759 -0.2396  0.4711 -0.2811
18889TIP3    H278159   2.146   3.219   2.769  0.1772 -3.4771  0.4597
18890TIP3   OH278160   5.426   4.747   5.309 -0.2522 -0.0671 -0.0425
18890TIP3    H178161   5.508   4.702   5.330  0.3799  0.5794 -1.0002
18890TIP3    H278162   5.384   4.763   5.394 -0.1876 -1.8289  0.3696
18891TIP3   OH278163   1.718   2.985  12.435  0.0217  0.0087  0.0803
18891TIP3    H178164   1.754   2.897  12.450  0.1919  0.1135  0.3018
18891TIP3    H278165   1.638   2.971  12.385  1.2253 -0.1448 -1.9118
18892TIP3   OH278166   1.536   3.450   3.767  1.1969  0.4441  0.6759
18892TIP3    H178167   1.631   3.461   3.774  0.9866  3.0684  0.6487
18892TIP3    H278168   1.502   3.490   3.847  0.1105 -1.3095  1.1425
18893TIP3   OH278169   3.475   5.814   5.414 -0.1005 -0.1793 -0.0551
18893TIP3    H178170   3.391   5.824   5.370 -0.2226  0.6941  0.3500
18893TIP3    H278171   3.540   5.835   5.348 -0.1361 -1.7962 -0.6487
18894TIP3   OH278172   6.583   6.444  11.636  0.8219  0.0171  0.8075
18894TIP3    H178173   6.561   6.526  11.681  1.4540  0.3887  0.4534
18894TIP3    H278174   6.549   6.375  11.694 -0.1643  0.5313  0.8648
18895TIP3   OH278175   3.400   2.855  14.252 -0.1277  0.1139  0.5151
18895TIP3    H178176   3.457   2.810  14.314 -1.2632 -0.4328  1.1947
18895TIP3    H278177   3.393   2.794  14.178 -0.4362 -0.1710  0.7717
18896TIP3   OH278178   0.869   2.049  12.523 -0.2677 -0.1474  0.4811
18896TIP3    H178179   0.918   1.977  12.563 -0.7154  0.1794  1.6718
18896TIP3    H278180   0.837   2.100  12.598 -2.3893 -0.3325 -0.2209
18897TIP3   OH278181   3.625   1.616  14.039 -0.6844 -0.4301  0.1394
18897TIP3    H178182   3.556   1.585  13.979 -0.1631 -1.7101  0.1719
18897TIP3    H278183   3.580   1.678  14.096 -2.1594 -2.1286  0.9623
18898TIP3   OH278184   4.119   2.467   0.013  0.5159 -0.0135  0.0577
18898TIP3    H178185   4.060   2.537  -0.017  0.7173  0.2313  0.2290
18898TIP3    H278186   4.139   2.417  -0.067 -0.2058 -0.3181  0.0578
18899TIP3   OH278187   3.246   2.072   3.547 -0.7863  0.3359 -0.6549
18899TIP3    H178188   3.172   2.067   3.608  0.8527  0.8724  1.4603
18899TIP3    H278189   3.257   2.166   3.531  0.0125  0.3302 -0.1901
18900TIP3   OH278190   3.644   1.407  16.256  0.0587  0.3875 -0.2685
18900TIP3    H178191   3.554   1.421  16.226 -0.3074 -1.0196  0.1037
18900TIP3    H278192   3.639   1.330  16.313  1.0035  1.9731  2.1234
18901TIP3   OH278193   0.099   1.266  15.693 -0.2674  0.1353 -0.1343
18901TIP3    H178194   0.005   1.267  15.679 -0.1489 -0.3444 -1.0070
18901TIP3    H278195   0.126   1.357  15.683 -0.5307  0.1589 -0.6745
18902TIP3   OH278196   0.526   1.367  15.911 -0.5013 -0.1176  0.2002
18902TIP3    H178197   0.589   1.296  15.919  0.0586  0.4343  0.8122
18902TIP3    H278198   0.521   1.384  15.817  1.6219  0.9998  0.2424
18903TIP3   OH278199   3.281   3.689  11.550 -0.6577 -0.2935 -0.4713
18903TIP3    H178200   3.253   3.658  11.636 -3.3857  0.4770 -0.9778
18903TIP3    H278201   3.354   3.748  11.568 -0.8928 -0.4776  1.2537
18904TIP3   OH278202   5.906   6.023  10.619 -0.2336 -0.3733 -0.6795
18904TIP3    H178203   5.828   5.969  10.632 -1.5399  1.1829 -1.6630
18904TIP3    H278204   5.873   6.113  10.621  1.1441  0.2888 -3.2680
18905TIP3   OH278205   0.106   3.872  17.063 -0.0903 -0.0310  0.2197
18905TIP3    H178206   0.062   3.832  17.138 -0.1711 -1.9734 -0.7783
18905TIP3    H278207   0.175   3.810  17.041  0.6406  1.0573 -0.6329
18906TIP3   OH278208   4.439   3.545   1.784 -0.0693  0.0888  0.0692
18906TIP3    H178209   4.529   3.511   1.790  0.8090  1.9781 -1.2784
18906TIP3    H278210   4.445   3.632   1.822 -1.9797 -0.6908  2.3529
18907TIP3   OH278211   2.679   3.707  14.352 -0.1321 -0.1900 -0.1986
18907TIP3    H178212   2.601   3.680  14.304 -0.5608 -1.6997  1.2520
18907TIP3    H278213   2.669   3.802  14.361 -1.5222 -0.2757 -0.5285
18908TIP3   OH278214   3.284   0.683   0.413 -0.1509  0.5300  0.1472
18908TIP3    H178215   3.347   0.708   0.481  1.7882 -1.5032 -0.7830
18908TIP3    H278216   3.329   0.702   0.331 -0.2178 -2.0268 -0.5514
18909TIP3   OH278217   1.119   3.586   0.356 -0.0385 -0.5818  0.0342
18909TIP3    H178218   1.072   3.553   0.279 -0.1613 -3.1075  1.0919
18909TIP3    H278219   1.211   3.569   0.336 -0.1641 -2.5840  0.9617
18910TIP3   OH278220   2.915   0.577  14.887 -0.2868 -0.4797  0.4965
18910TIP3    H178221   2.979   0.520  14.928  2.0143  0.0831 -2.0297
18910TIP3    H278222   2.959   0.661  14.878 -1.3945 -0.0013 -1.1664
18911TIP3   OH278223   3.465   2.279  15.520  0.9721  0.3588 -0.0656
18911TIP3    H178224   3.406   2.238  15.456 -0.9396  1.9460  0.5746
18911TIP3    H278225   3.457   2.225  15.598 -0.0727  0.8339  0.1770
18912TIP3   OH278226   3.703   0.716   0.420  0.7034  0.1906 -0.0806
18912TIP3    H178227   3.737   0.803   0.398  0.7811  0.3067  0.4859
18912TIP3    H278228   3.629   0.733   0.478  0.5094 -0.1116 -0.2356
18913TIP3   OH278229   1.711   1.724   3.230  0.0755  0.3422  0.1921
18913TIP3    H178230   1.796   1.695   3.196 -0.1599  0.3256 -0.3910
18913TIP3    H278231   1.677   1.782   3.163 -0.8954 -0.5617 -0.1192
18914TIP3   OH278232   5.529   1.939   4.570 -0.4769  0.5761  0.9386
18914TIP3    H178233   5.469   1.976   4.634 -0.6118  0.9494  0.5950
18914TIP3    H278234   5.473   1.909   4.499 -0.4147 -0.6410  1.3654
18915TIP3   OH278235   2.311   3.597   1.391 -0.3429  0.4773  0.0460
18915TIP3    H178236   2.335   3.532   1.326  0.8563  0.5371  0.3995
18915TIP3    H278237   2.277   3.547   1.464 -2.3503  0.4463 -0.8556
18916TIP3   OH278238   4.054   2.546  16.341  0.3292  0.0550 -0.2413
18916TIP3    H178239   4.059   2.624  16.396 -0.1007 -0.1461  0.0872
18916TIP3    H278240   4.066   2.578  16.252 -2.1229  0.8414 -0.3708
18917TIP3   OH278241   1.007   0.934  14.030  0.1310  0.7543  0.1472
18917TIP3    H178242   1.083   0.988  14.012  0.8104 -0.1232  0.2871
18917TIP3    H278243   1.043   0.854  14.069 -0.8952  0.5008  0.6078
18918TIP3   OH278244   4.742   1.781   4.627  0.4329 -0.3030  0.3470
18918TIP3    H178245   4.758   1.702   4.576 -0.1988  0.6072 -1.3741
18918TIP3    H278246   4.655   1.810   4.598  1.3477  1.9313 -0.3937
18919TIP3   OH278247   6.636   2.631  16.718  0.2332  0.1944 -0.3056
18919TIP3    H178248   6.710   2.637  16.658 -1.7329  1.7668 -2.7470
18919TIP3    H278249   6.631   2.538  16.741  2.3449 -0.1038 -0.8014
18920TIP3   OH278250   6.574   4.695   3.017  0.1941  0.0325 -0.0710
18920TIP3    H178251   6.531   4.728   2.938 -0.1201 -1.4789 -0.5551
18920TIP3    H278252   6.666   4.684   2.992 -0.0358 -1.1117 -0.4656
18921TIP3   OH278253   3.395   3.470  14.061  0.1220 -0.5472  0.3201
18921TIP3    H178254   3.333   3.411  14.104  0.2518  0.7800  2.4828
18921TIP3    H278255   3.340   3.531  14.011 -0.0729 -1.5886 -0.7875
18922TIP3   OH278256   3.707   5.698   1.226 -0.3965  0.2393 -0.2689
18922TIP3    H178257   3.740   5.634   1.162  1.7266  1.0748 -0.1013
18922TIP3    H278258   3.659   5.645   1.290 -0.8241 -0.8574 -1.4437
18923TIP3   OH278259   1.605   1.999   0.069 -0.5597 -0.5147 -0.7365
18923TIP3    H178260   1.554   1.919   0.055 -0.9635 -0.9370  2.4732
18923TIP3    H278261   1.540   2.068   0.080 -0.2735 -0.1820 -1.0924
18924TIP3   OH278262   5.697   2.692   5.910 -0.2101 -0.2236 -0.5744
18924TIP3    H178263   5.660   2.628   5.851  0.1914  0.1184 -1.2089
18924TIP3    H278264   5.639   2.691   5.986  0.0558 -1.6786 -0.3547
18925TIP3   OH278265   4.438   6.103   5.668 -0.3831 -0.2260 -0.4359
18925TIP3    H178266   4.466   6.018   5.701  0.4164  0.0932 -0.2727
18925TIP3    H278267   4.512   6.135   5.616  0.1503  1.2347  1.1151
18926TIP3   OH278268   5.484   1.671  12.826  0.0919 -0.4562 -0.1763
18926TIP3    H178269   5.491   1.739  12.759  1.5720 -0.4817 -0.0936
18926TIP3    H278270   5.391   1.668  12.848  0.0018  1.7090 -0.0223
18927TIP3   OH278271   4.483   5.358  11.861  0.5041 -0.6989 -0.3951
18927TIP3    H178272   4.559   5.416  11.860  1.9488 -2.4803 -1.2785
18927TIP3    H278273   4.520   5.270  11.851 -1.5208 -1.8669  1.3792
18928TIP3   OH278274   4.348   6.311  14.021  0.3014 -0.7901  0.1005
18928TIP3    H178275   4.393   6.357  14.092  1.5129 -0.2614 -0.9641
18928TIP3    H278276   4.372   6.359  13.942 -0.2404 -1.9168 -0.7822
18929TIP3   OH278277   0.209   6.580   4.678 -0.4862  0.0375  0.5412
18929TIP3    H178278   0.180   6.495   4.643 -3.6278  0.4726  1.8095
18929TIP3    H278279   0.247   6.625   4.603 -2.1196 -1.1106 -1.0613
18930TIP3   OH278280   5.322   5.671  15.298 -0.8039 -0.1691  0.0449
18930TIP3    H178281   5.407   5.714  15.293 -0.5650 -0.5588  0.6571
18930TIP3    H278282   5.282   5.688  15.213 -0.5888  0.9897  0.1588
18931TIP3   OH278283   2.734   4.812   4.289  0.1242 -0.2020  0.5528
18931TIP3    H178284   2.689   4.814   4.205  0.9495 -0.5442  0.0906
18931TIP3    H278285   2.711   4.727   4.327  3.4141 -2.2171 -1.4509
18932TIP3   OH278286   1.103   0.955   3.616  0.4846  0.4155  0.5056
18932TIP3    H178287   1.008   0.956   3.608  0.1554 -0.1836  3.2498
18932TIP3    H278288   1.124   0.867   3.647  2.1737 -0.0719 -1.7685
18933TIP3   OH278289   3.872   0.761  11.249 -0.5149  0.2699 -0.3443
18933TIP3    H178290   3.851   0.818  11.175 -0.5477 -0.6061 -1.0301
18933TIP3    H278291   3.793   0.762  11.304  0.5041  3.2751  1.3132
18934TIP3   OH278292   0.686   4.806   0.193  0.1098  0.4752 -0.3651
18934TIP3    H178293   0.778   4.780   0.185  0.7939  2.0342  1.5251
18934TIP3    H278294   0.648   4.789   0.107  2.6353  1.5058 -1.7818
18935TIP3   OH278295   1.934   6.295   3.177  0.1185  0.1706 -0.6669
18935TIP3    H178296   1.933   6.199   3.180 -1.3281 -0.0162 -3.6273
18935TIP3    H278297   1.842   6.320   3.168  0.5275  1.7889 -0.6696
18936TIP3   OH278298   2.893   2.762  14.591 -0.1816  0.2649 -0.4572
18936TIP3    H178299   2.908   2.853  14.615 -1.1334 -0.1704  2.1919
18936TIP3    H278300   2.981   2.729  14.569  0.2505  1.6609 -0.9448
18937TIP3   OH278301   3.003   2.525  13.475  0.2412 -0.8276  0.2704
18937TIP3    H178302   3.011   2.499  13.567 -1.5893  0.8094  0.9426
18937TIP3    H278303   2.912   2.506  13.453  0.7014 -1.3615 -1.2955
18938TIP3   OH278304   4.602   3.917   4.843  0.6109 -0.3044  0.9029
18938TIP3    H178305   4.666   3.926   4.914  1.6526 -0.7253  0.0391
18938TIP3    H278306   4.517   3.930   4.886  1.3341  2.7571  1.7051
18939TIP3   OH278307   6.763   3.189  16.817 -0.1910 -0.1504 -0.0063
18939TIP3    H178308   6.808   3.273  16.811 -0.5655  0.1068  0.7159
18939TIP3    H278309   6.834   3.125  16.825  0.1208  0.0120 -1.2799
18940TIP3   OH278310   3.618   6.301  14.811 -0.0602  0.3674 -0.5952
18940TIP3    H178311   3.574   6.329  14.892  1.1826  0.8745 -0.0735
18940TIP3    H278312   3.546   6.279  14.752 -0.9950 -0.8025  0.9089
18941TIP3   OH278313   1.080   3.936   4.102  0.2276  0.3523 -0.3231
18941TIP3    H178314   1.094   4.030   4.093 -1.1209  0.5852 -0.2497
18941TIP3    H278315   1.158   3.896   4.064  1.1489  1.5016  0.2971
18942TIP3   OH278316   3.922   2.532  16.672  0.3901 -0.3433 -0.3150
18942TIP3    H178317   3.932   2.437  16.675 -1.8145 -0.6849 -1.9325
18942TIP3    H278318   4.010   2.564  16.649  0.8715 -2.0957 -1.1085
18943TIP3   OH278319   3.369   3.854   3.361 -0.0763  0.0107  0.6632
18943TIP3    H178320   3.341   3.772   3.321  0.4135  0.2448 -0.1887
18943TIP3    H278321   3.465   3.850   3.360  0.0077  1.2679 -0.8919
18944TIP3   OH278322   5.262   3.394   6.221  0.0728  0.2022 -0.4505
18944TIP3    H178323   5.170   3.379   6.197  0.1302  1.0433 -1.2462
18944TIP3    H278324   5.309   3.323   6.177  0.1345  1.5427 -2.6789
18945TIP3   OH278325   4.745   3.370   3.362 -0.8738  0.4377  0.1657
18945TIP3    H178326   4.810   3.369   3.292 -1.2615 -0.6198 -0.2019
18945TIP3    H278327   4.772   3.442   3.418 -0.2636  0.9903 -0.7980
18946TIP3   OH278328   0.217   0.816   4.416  0.5200 -0.6059 -0.4262
18946TIP3    H178329   0.279   0.826   4.344  0.6768  2.4129  0.0298
18946TIP3    H278330   0.134   0.849   4.381 -0.0958 -1.6388 -0.0133
18947TIP3   OH278331   0.731   2.552   1.428  0.5554  0.3640 -0.5130
18947TIP3    H178332   0.704   2.485   1.491  0.0888  0.1484 -0.9327
18947TIP3    H278333   0.811   2.589   1.465 -0.6528  1.5012  1.1218
18948TIP3   OH278334   3.767   0.958  11.561  0.1309  0.2826 -0.1052
18948TIP3    H178335   3.683   0.981  11.522 -0.3572  0.3970  0.9967
18948TIP3    H278336   3.797   1.039  11.604 -0.2148 -0.3110  1.3135
18949TIP3   OH278337   1.794   4.722   1.751  0.6262  0.2371  0.4169
18949TIP3    H178338   1.793   4.720   1.655 -2.9582  1.5642  0.2717
18949TIP3    H278339   1.835   4.806   1.773  1.2587  0.0279  0.0648
18950TIP3   OH278340   6.751   6.644   3.883  0.5780  0.0762 -0.1839
18950TIP3    H178341   6.747   6.666   3.976  0.8848 -2.6190  0.5587
18950TIP3    H278342   6.692   6.706   3.841  0.9970  1.8370  1.6902
18951TIP3   OH278343   3.697   3.010  13.252 -0.7680 -0.0783 -0.2461
18951TIP3    H178344   3.751   3.005  13.332 -1.0364  1.2233  0.0361
18951TIP3    H278345   3.761   3.009  13.181 -0.4352  0.2286  0.0404
18952TIP3   OH278346   4.640   1.713  11.603  0.5936 -0.3435 -0.5234
18952TIP3    H178347   4.581   1.652  11.559  0.6838 -0.6203 -0.2670
18952TIP3    H278348   4.684   1.760  11.533  0.6296 -0.6761 -0.7240
18953TIP3   OH278349   0.045   5.546   4.826  0.1714  0.4707 -0.0566
18953TIP3    H178350  -0.023   5.591   4.875 -0.4683 -0.4863 -0.0404
18953TIP3    H278351   0.126   5.564   4.873  0.0382  2.1188 -0.4127
18954TIP3   OH278352   1.885   0.525  12.798  0.6766 -0.3297 -0.6406
18954TIP3    H178353   1.977   0.548  12.799  0.3387  1.1077 -0.8263
18954TIP3    H278354   1.868   0.486  12.884  0.9415  1.5519  0.2926
18955TIP3   OH278355   1.991   5.399  12.836 -0.1431  0.2549 -0.2388
18955TIP3    H178356   2.026   5.311  12.823  0.3320  0.4330 -0.1571
18955TIP3    H278357   1.896   5.386  12.844  0.1643 -0.6631  3.3302
18956TIP3   OH278358   2.177   6.174   4.888 -0.0399  0.8125  0.3053
18956TIP3    H178359   2.230   6.253   4.879 -0.7048  1.2277  0.0295
18956TIP3    H278360   2.121   6.191   4.964 -0.1400  0.5716  0.2860
18957TIP3   OH278361   0.687   2.497   4.790  0.1922  0.1739  0.3461
18957TIP3    H178362   0.715   2.585   4.816 -3.1182  2.1211 -1.8809
18957TIP3    H278363   0.719   2.488   4.700 -0.3443 -0.4547  0.2125
18958TIP3   OH278364   1.130   6.676  14.299 -0.1442  0.1210  0.3384
18958TIP3    H178365   1.214   6.720  14.310  0.6077 -1.1156 -0.1903
18958TIP3    H278366   1.139   6.594  14.349 -2.1321  1.2557  2.7679
18959TIP3   OH278367   0.210   2.434   6.320  0.3796 -0.0031  0.0508
18959TIP3    H178368   0.158   2.509   6.290  2.3510  1.8318  0.9382
18959TIP3    H278369   0.155   2.358   6.300 -1.7427  1.6375 -0.8773
18960TIP3   OH278370   2.321   3.076  14.227 -0.3590  0.2986 -0.3723
18960TIP3    H178371   2.297   3.060  14.318  1.4953 -0.6736  0.0090
18960TIP3    H278372   2.396   3.017  14.212 -0.7476  0.2929 -2.5861
18961TIP3   OH278373   3.274   5.288  11.477  0.4895  0.0856 -0.3607
18961TIP3    H178374   3.249   5.287  11.569  1.7063  0.1837 -0.0221
18961TIP3    H278375   3.281   5.380  11.454 -1.8124  0.1460 -1.1478
18962TIP3   OH278376   4.690   2.002   5.228  0.3279 -0.2983  0.2680
18962TIP3    H178377   4.669   1.911   5.248  0.1046  0.0821  1.8336
18962TIP3    H278378   4.766   1.996   5.170  1.5718 -1.4472  1.9337
18963TIP3   OH278379   5.694   0.853   4.259 -0.1234 -0.4151  0.2389
18963TIP3    H178380   5.758   0.869   4.190 -0.3775 -1.2622 -0.2088
18963TIP3    H278381   5.718   0.768   4.295 -0.4385 -0.3155  0.6930
18964TIP3   OH278382   4.899   4.094   3.823  0.2425 -0.4630 -0.4761
18964TIP3    H178383   4.921   4.001   3.821 -0.1168 -0.5560 -0.2187
18964TIP3    H278384   4.983   4.138   3.835  0.1970 -0.8738  1.9228
18965TIP3   OH278385   1.582   1.362  14.697 -0.3422 -0.0787  0.2968
18965TIP3    H178386   1.639   1.315  14.756  1.3997 -0.3563 -1.5017
18965TIP3    H278387   1.609   1.454  14.705  1.2268 -0.3410 -1.3596
18966TIP3   OH278388   3.418   4.464  13.246 -0.0533 -0.9378 -0.5023
18966TIP3    H178389   3.355   4.522  13.288  1.6762  0.5177  0.1798
18966TIP3    H278390   3.389   4.376  13.271 -1.0898 -0.2611  0.8178
18967TIP3   OH278391   6.696   0.764   1.758 -0.2682  0.1369 -0.6347
18967TIP3    H178392   6.626   0.806   1.708  0.0427 -0.4200 -1.5589
18967TIP3    H278393   6.678   0.670   1.750 -0.3069  0.0373  0.4552
18968TIP3   OH278394   3.315   5.795  11.946 -0.3442 -0.3174 -0.0968
18968TIP3    H178395   3.333   5.865  11.884 -0.0906  0.3943  0.7700
18968TIP3    H278396   3.397   5.783  11.994  0.9209 -3.8278 -2.7187
18969TIP3   OH278397   0.208   0.730  16.254 -0.3974 -0.1928 -0.1353
18969TIP3    H178398   0.204   0.718  16.160  2.5472  1.2840 -0.5758
18969TIP3    H278399   0.247   0.817  16.266  1.5924 -1.2707  2.3567
18970TIP3   OH278400   4.935   0.290   2.544  0.6932  0.5597 -0.5519
18970TIP3    H178401   4.943   0.377   2.505  1.6923  0.2310 -1.1227
18970TIP3    H278402   5.019   0.247   2.526 -0.3756 -1.1473 -1.8036
18971TIP3   OH278403   0.796   2.938  15.376  0.2254 -0.1545  0.4400
18971TIP3    H178404   0.719   2.992  15.394 -1.1796 -1.5891 -0.8783
18971TIP3    H278405   0.840   2.982  15.303 -0.5492 -0.4236 -0.1998
18972TIP3   OH278406   0.704   3.224   4.946  0.7675 -0.0920 -0.1520
18972TIP3    H178407   0.731   3.233   4.855  0.0323 -1.1465 -0.5011
18972TIP3    H278408   0.764   3.160   4.983  0.2435 -0.6678 -0.2788
18973TIP3   OH278409   3.420   1.994   2.794  0.2463 -0.0292  0.4377
18973TIP3    H178410   3.424   2.083   2.830  2.0539  0.2178 -0.2570
18973TIP3    H278411   3.418   1.937   2.871 -0.8459  0.5915  0.8917
18974TIP3   OH278412   4.462   1.766   6.007  0.0734 -0.0137  0.0901
18974TIP3    H178413   4.390   1.741   6.065  0.3656  0.8937  0.8722
18974TIP3    H278414   4.539   1.767   6.064  0.3964  0.7452 -0.3395
18975TIP3   OH278415   2.034   6.124  13.646 -0.0116  0.2839  1.2688
18975TIP3    H178416   2.016   6.209  13.686 -2.6843  0.4138  0.0367
18975TIP3    H278417   1.947   6.085  13.634  0.8119 -0.9045 -1.7102
18976TIP3   OH278418   0.142   5.750  11.389 -0.0021 -0.0797  0.4524
18976TIP3    H178419   0.234   5.735  11.412 -0.0628  1.2010  1.6728
18976TIP3    H278420   0.146   5.789  11.301  0.5530 -0.7163  0.1797
18977TIP3   OH278421   1.479   4.274  12.047 -0.4734  0.1407 -0.2362
18977TIP3    H178422   1.570   4.265  12.076 -0.5093  0.7090  0.0655
18977TIP3    H278423   1.484   4.326  11.967 -0.5956  0.9657  0.2752
18978TIP3   OH278424   5.519   0.355  14.684  0.3572 -0.1983  0.0286
18978TIP3    H178425   5.469   0.356  14.766  0.9066 -2.5099  0.4760
18978TIP3    H278426   5.454   0.334  14.617  0.1413  0.3035  0.0785
18979TIP3   OH278427   5.948   5.994   3.947  0.3904  0.6238  0.2475
18979TIP3    H178428   5.948   6.066   4.010 -3.3668  1.4799 -0.4583
18979TIP3    H278429   5.897   5.925   3.990  1.2090 -0.3734 -0.3408
18980TIP3   OH278430   3.376   3.637   4.575  0.2374 -0.4159  0.1924
18980TIP3    H178431   3.434   3.649   4.501  0.9046  0.3230  0.8165
18980TIP3    H278432   3.432   3.643   4.652 -0.3810 -1.5294  0.7657
18981TIP3   OH278433   6.487   4.162   1.540 -0.0603  0.1534 -0.1618
18981TIP3    H178434   6.534   4.079   1.543 -0.0947  0.0572 -1.4650
18981TIP3    H278435   6.395   4.137   1.533 -0.1990  0.3283  0.9020
18982TIP3   OH278436   4.751   4.683   4.327  0.4255  0.4468 -0.1856
18982TIP3    H178437   4.745   4.731   4.409 -0.9216  1.7255 -0.9776
18982TIP3    H278438   4.665   4.641   4.317  0.9767 -0.6631 -0.3766
18983TIP3   OH278439   2.848   4.695   5.966  0.0372  0.3675 -0.5481
18983TIP3    H178440   2.799   4.778   5.967 -0.4290  0.1315  1.2755
18983TIP3    H278441   2.939   4.721   5.954 -0.0199  1.2546  0.6745
18984TIP3   OH278442   3.902   4.751  10.654  0.1919 -0.3535  0.5358
18984TIP3    H178443   3.931   4.712  10.571 -0.7042  0.4210 -0.1772
18984TIP3    H278444   3.972   4.812  10.677 -0.2753  0.6411 -0.5460
18985TIP3   OH278445   0.332   5.043   0.455  0.1232 -0.3770  0.1327
18985TIP3    H178446   0.374   4.985   0.519 -1.0205 -0.1516  1.1290
18985TIP3    H278447   0.378   5.026   0.373  1.6054 -0.7233  0.9865
18986TIP3   OH278448   0.713   6.587  11.201  0.0907 -0.3619 -0.4859
18986TIP3    H178449   0.747   6.593  11.290 -0.6052  1.2354 -0.2823
18986TIP3    H278450   0.790   6.595  11.145  0.3553  0.4871 -0.0243
18987TIP3   OH278451   4.077   4.364   5.939 -0.3726  0.0672 -0.0106
18987TIP3    H178452   3.989   4.326   5.951 -0.4615  0.2679 -0.0237
18987TIP3    H278453   4.095   4.408   6.022 -0.7055  0.8815 -0.3601
18988TIP3   OH278454   6.483   6.564   0.008  0.8585 -0.0309 -0.1416
18988TIP3    H178455   6.578   6.565  -0.006  0.8949  0.7704  0.1163
18988TIP3    H278456   6.455   6.652  -0.018  0.3315  0.0685  0.7490
18989TIP3   OH278457   5.593   2.590   1.910 -0.4849  0.2805  0.4014
18989TIP3    H178458   5.533   2.533   1.957  0.7392 -0.5421  1.0125
18989TIP3    H278459   5.554   2.677   1.917 -0.3914  0.1939  2.9101
18990TIP3   OH278460   2.471   0.650   5.097 -0.3908 -0.4675 -0.0810
18990TIP3    H178461   2.560   0.684   5.113 -0.4951 -1.8477  5.8300
18990TIP3    H278462   2.484   0.575   5.039  1.4735  1.8196 -2.9529
18991TIP3   OH278463   6.295   3.636  16.626 -0.3438 -0.3968 -0.1217
18991TIP3    H178464   6.371   3.646  16.568 -0.8510 -0.2961 -0.7840
18991TIP3    H278465   6.293   3.716  16.678 -0.2247 -0.2220 -0.3834
18992TIP3   OH278466   3.064   3.119   5.355  0.2864 -0.1437 -0.0689
18992TIP3    H178467   3.065   3.099   5.448 -0.1071 -0.1119 -0.0580
18992TIP3    H278468   2.983   3.168   5.341 -0.1996 -1.0812 -0.6200
18993TIP3   OH278469   1.777   2.512   5.935 -0.5697  0.2381 -0.7997
18993TIP3    H178470   1.818   2.590   5.972  1.2681 -2.3634  3.4681
18993TIP3    H278471   1.821   2.498   5.851  0.9318  2.2874 -0.4173
18994TIP3   OH278472   2.183   0.933  14.524 -0.0178 -0.3812  0.0678
18994TIP3    H178473   2.263   0.963  14.566 -0.4218  0.4273  0.2856
18994TIP3    H278474   2.150   0.864  14.581 -1.4440  1.7984  2.1100
18995TIP3   OH278475   4.129   0.955   3.908 -0.0815 -0.2797 -0.5204
18995TIP3    H178476   4.056   1.012   3.933  1.8520  1.6110  1.1887
18995TIP3    H278477   4.160   0.991   3.825 -0.2278 -0.1983 -0.5398
18996TIP3   OH278478   2.676   1.497   5.595  0.5875 -0.0758  0.6856
18996TIP3    H178479   2.698   1.589   5.580  0.2464 -0.3698 -2.3776
18996TIP3    H278480   2.753   1.449   5.562  0.0587 -0.8954  0.6131
18997TIP3   OH278481   2.114   6.147  15.843 -0.1085  0.4912 -0.6432
18997TIP3    H178482   2.053   6.169  15.913  1.1402  2.9224 -0.2251
18997TIP3    H278483   2.074   6.185  15.764 -0.1966  0.1363 -0.7716
18998TIP3   OH278484   6.793   0.535   3.424  0.5250  0.1739 -0.3123
18998TIP3    H178485   6.803   0.622   3.462  1.9152 -0.6970  1.4682
18998TIP3    H278486   6.806   0.475   3.497 -1.0229 -1.5439 -1.3702
18999TIP3   OH278487   4.470   5.343   2.892 -0.2647 -0.2303  0.0219
18999TIP3    H178488   4.533   5.376   2.828 -1.1159 -0.0262 -0.7242
18999TIP3    H278489   4.489   5.394   2.972  1.3662 -1.0827  0.2325
19000TIP3   OH278490   1.795   1.294  14.903 -0.1812 -0.0439 -0.3149
19000TIP3    H178491   1.769   1.223  14.962 -0.5115  0.8217  0.6037
19000TIP3    H278492   1.883   1.270  14.873 -1.2647 -2.1726 -2.1409
19001TIP3   OH278493   3.951   4.862   1.359 -0.1193 -0.2011  0.1614
19001TIP3    H178494   3.878   4.914   1.327  1.2483  1.2285 -0.7552
19001TIP3    H278495   3.937   4.858   1.454 -0.5738  1.3875  0.1937
19002TIP3   OH278496   3.676   4.501   2.838  0.6688 -0.1138 -0.1356
19002TIP3    H178497   3.752   4.546   2.875  0.5867  0.4334 -0.6295
19002TIP3    H278498   3.713   4.445   2.769  0.5150  0.9461 -1.0971
19003TIP3   OH278499   1.493   1.022  13.394  0.0553 -0.3407  0.0898
19003TIP3    H178500   1.471   0.949  13.452 -0.6144 -0.0278  0.2358
19003TIP3    H278501   1.415   1.034  13.339  0.9524 -1.1469 -1.4348
19004TIP3   OH278502   3.984   1.625  12.654 -0.4430  0.5437 -0.1372
19004TIP3    H178503   3.947   1.668  12.731 -0.6183  1.1640 -0.5639
19004TIP3    H278504   3.970   1.687  12.583 -0.4197 -0.0923 -0.7023
19005TIP3   OH278505   0.861   1.237   4.881  0.3912  0.3439  0.0253
19005TIP3    H178506   0.840   1.195   4.965  1.3312 -0.0026  0.1057
19005TIP3    H278507   0.809   1.190   4.817  0.1983  0.1425  0.3264
19006TIP3   OH278508   3.821   0.212   4.820 -0.1493  0.6873  0.0944
19006TIP3    H178509   3.824   0.123   4.855 -0.6784  0.9573  0.8566
19006TIP3    H278510   3.728   0.235   4.824 -0.5228  0.1773 -2.9594
19007TIP3   OH278511   4.264   5.586   1.058  0.1199 -0.3634 -0.1880
19007TIP3    H178512   4.174   5.620   1.058 -0.2889 -1.3775 -1.3374
19007TIP3    H278513   4.267   5.528   1.134  0.5084  1.3833  1.1739
19008TIP3   OH278514   6.730   6.696   0.708 -0.0566  0.2360 -0.4241
19008TIP3    H178515   6.639   6.709   0.679  0.1289 -0.2607 -1.2668
19008TIP3    H278516   6.742   6.761   0.777 -0.8078  0.8497 -0.8488
19009TIP3   OH278517   0.716   5.361   3.492 -0.9372  0.2719 -0.2750
19009TIP3    H178518   0.679   5.324   3.572 -2.5200  0.3048 -0.9522
19009TIP3    H278519   0.777   5.294   3.461  0.9195  0.8969  1.7161
19010TIP3   OH278520   6.345   3.880  10.501 -0.1730 -0.4006 -0.2618
19010TIP3    H178521   6.277   3.887  10.434 -0.5088 -1.9565 -0.1143
19010TIP3    H278522   6.324   3.949  10.564 -0.6324  0.2034 -1.0454
19011TIP3   OH278523   6.026   5.436  12.335 -0.0502  0.0227 -0.0097
19011TIP3    H178524   6.058   5.346  12.333 -0.4459 -0.1512  1.0751
19011TIP3    H278525   6.077   5.480  12.267  1.4378 -0.6052  0.6333
19012TIP3   OH278526   1.352   6.711   1.917 -0.2873  0.3345 -0.7216
19012TIP3    H178527   1.306   6.716   1.833 -0.8635 -1.5127 -0.5582
19012TIP3    H278528   1.409   6.635   1.909 -0.7803 -0.2218  0.7528
19013TIP3   OH278529   1.716   5.099  12.864  0.3239  0.0841  0.0379
19013TIP3    H178530   1.669   5.041  12.804 -0.2750  0.4831  0.1099
19013TIP3    H278531   1.805   5.103  12.829  0.2511 -0.5176 -0.2207
19014TIP3   OH278532   3.851   6.363   5.472  0.1808 -0.8207  0.1324
19014TIP3    H178533   3.783   6.360   5.405  0.6146  1.9283 -0.5357
19014TIP3    H278534   3.810   6.323   5.549 -2.3454  0.9979 -0.1545
19015TIP3   OH278535   5.462   4.305  16.172  0.8307  0.1682 -0.2049
19015TIP3    H178536   5.457   4.370  16.102 -2.7332  1.5140  1.0883
19015TIP3    H278537   5.544   4.326  16.218  1.1158  1.9989 -1.4448
19016TIP3   OH278538   0.910   6.683   0.017 -0.5584 -0.7587 -0.2205
19016TIP3    H178539   0.970   6.750   0.051 -1.1294 -0.1632 -0.3841
19016TIP3    H278540   0.912   6.614   0.084 -1.1772  0.1184  0.7325
19017TIP3   OH278541   1.479   5.784  12.043  0.0242  0.2194  0.3628
19017TIP3    H178542   1.458   5.834  12.121 -1.8434  1.4111 -0.8222
19017TIP3    H278543   1.456   5.842  11.970  2.3974 -0.5352 -1.1301
19018TIP3   OH278544   0.543   1.851  13.972 -0.9471 -0.2225 -0.0738
19018TIP3    H178545   0.583   1.906  14.039  0.6262 -2.4006  0.9077
19018TIP3    H278546   0.575   1.888  13.889  0.4965  0.0682  0.5705
19019TIP3   OH278547   1.751   1.230   3.492 -0.5024 -0.6269 -0.2817
19019TIP3    H178548   1.840   1.194   3.486  0.0261  0.0423  2.2649
19019TIP3    H278549   1.709   1.178   3.561 -1.1601  0.7882  0.4251
19020TIP3   OH278550   6.645   1.785  14.201  0.1573 -0.4807  0.2034
19020TIP3    H178551   6.650   1.770  14.106  1.4149  0.4458  0.1027
19020TIP3    H278552   6.552   1.779  14.221 -0.2753  0.5848 -1.3140
19021TIP3   OH278553   6.812   0.201  13.048 -0.5392 -0.1830  0.5079
19021TIP3    H178554   6.851   0.114  13.056 -1.1531 -0.5010  0.0956
19021TIP3    H278555   6.756   0.196  12.970  1.4525  1.3513 -1.1387
19022TIP3   OH278556   0.830   5.581   1.841  0.1086 -0.0905  0.1538
19022TIP3    H178557   0.874   5.616   1.919  0.7474 -1.5316  0.4754
19022TIP3    H278558   0.757   5.641   1.826 -0.5713 -0.2311  2.4059
19023TIP3   OH278559   4.553   2.497  10.991 -0.0356  0.6558 -0.1500
19023TIP3    H178560   4.482   2.526  10.934  0.3298  0.3841 -0.7582
19023TIP3    H278561   4.509   2.458  11.066 -0.5314  2.2911  0.4395
19024TIP3   OH278562   1.914   2.091  11.982 -0.4711 -0.3402 -0.6013
19024TIP3    H178563   1.856   2.054  12.049 -0.0282 -1.8013 -0.9907
19024TIP3    H278564   1.903   2.034  11.906 -1.0916  1.3918 -1.8865
19025TIP3   OH278565   3.043   2.425  11.449  0.0191  0.2351  0.3995
19025TIP3    H178566   2.984   2.360  11.410  0.7023  0.5261 -1.1956
19025TIP3    H278567   3.130   2.400  11.417  0.2784  2.0032 -0.3493
19026TIP3   OH278568   0.883   2.945   5.034  0.3199 -0.6861  0.0407
19026TIP3    H178569   0.922   2.993   4.960 -0.7406  0.4851  0.2184
19026TIP3    H278570   0.928   2.980   5.111  0.4769 -0.9458  0.0691
19027TIP3   OH278571   0.328   4.367   3.931 -0.4390  0.5842 -0.1980
19027TIP3    H178572   0.258   4.313   3.895  0.9164  0.1088 -2.2712
19027TIP3    H278573   0.300   4.457   3.912 -1.4810  0.5292  0.9576
19028TIP3   OH278574   0.567   4.168   1.195  0.7475 -0.4641 -0.1495
19028TIP3    H178575   0.584   4.081   1.232 -0.3447 -0.3316  0.7175
19028TIP3    H278576   0.552   4.151   1.102 -0.9251 -1.4475  0.2401
19029TIP3   OH278577   6.312   6.098   1.887 -0.0692 -0.4259  0.2522
19029TIP3    H178578   6.320   6.142   1.803 -1.0021  1.8166  1.2615
19029TIP3    H278579   6.221   6.067   1.888  0.3894 -1.8530 -0.1712
19030TIP3   OH278580   2.431   5.224  15.065  0.0870  0.1173 -0.3683
19030TIP3    H178581   2.517   5.266  15.054  0.7492 -0.7211  1.2387
19030TIP3    H278582   2.444   5.135  15.032 -0.0611 -0.1119  0.1911
19031TIP3   OH278583   2.357   6.239   0.737 -0.0845 -0.0790 -0.4590
19031TIP3    H178584   2.298   6.276   0.672 -0.6448 -0.1138  0.0300
19031TIP3    H278585   2.315   6.159   0.765 -0.6221  0.7178  1.0946
19032TIP3   OH278586   2.551   3.326  16.930 -0.4499 -0.4474  0.3935
19032TIP3    H178587   2.473   3.294  16.885 -0.3511 -0.2264  0.0583
19032TIP3    H278588   2.622   3.314  16.867 -0.2348 -0.5308  0.6510
19033TIP3   OH278589   0.904   3.529   6.004  0.0926 -0.2621 -0.5809
19033TIP3    H178590   0.923   3.618   6.035 -0.4318 -0.6985  1.1430
19033TIP3    H278591   0.820   3.536   5.959  0.1011  0.1369 -0.5342
19034TIP3   OH278592   0.511   6.706  12.098 -0.6624 -0.0406  0.2091
19034TIP3    H178593   0.428   6.706  12.050 -0.2820  1.0485 -0.4845
19034TIP3    H278594   0.507   6.785  12.153  0.4967  0.8799 -0.9428
19035TIP3   OH278595   1.353   5.001  16.877 -0.1470 -0.2646 -0.0349
19035TIP3    H178596   1.383   5.064  16.943 -1.4204 -0.2262  0.5360
19035TIP3    H278597   1.328   4.923  16.928 -3.3082  0.5553 -0.1451
19036TIP3   OH278598   1.091   4.220  10.847 -0.0801  0.1597 -0.2245
19036TIP3    H178599   1.184   4.225  10.868 -0.1880  1.1561  0.0851
19036TIP3    H278600   1.052   4.176  10.923  0.4098 -2.3174 -1.3323
19037TIP3   OH278601   2.643   5.505  16.638 -0.3717 -0.0482  0.3224
19037TIP3    H178602   2.637   5.423  16.688 -1.5771  0.3947  0.9185
19037TIP3    H278603   2.559   5.548  16.651  0.0349  1.0278 -0.4655
19038TIP3   OH278604   0.092   6.458  13.062  0.4167  0.4384  0.3256
19038TIP3    H178605   0.087   6.480  13.155 -0.2638 -0.3075  0.4750
19038TIP3    H278606   0.015   6.501  13.024  0.6852  0.7272  0.1050
19039TIP3   OH278607   3.609   6.381   5.334  0.0048 -0.0877 -0.1396
19039TIP3    H178608   3.581   6.469   5.308  0.6354 -0.1993 -1.2856
19039TIP3    H278609   3.602   6.380   5.429 -0.9967  0.8578 -0.1913
19040TIP3   OH278610   4.889   0.903   2.106  0.5690  0.3897  0.1439
19040TIP3    H178611   4.903   0.928   2.015  0.9826 -0.0737  0.0744
19040TIP3    H278612   4.802   0.935   2.127 -0.2441 -1.0040 -0.9345
19041TIP3   OH278613   1.204   2.563   1.250  0.2946  0.1291  0.4666
19041TIP3    H178614   1.227   2.574   1.157  2.4849  1.4399  1.0929
19041TIP3    H278615   1.202   2.468   1.263 -0.2514 -0.0827 -0.9451
19042TIP3   OH278616   3.171   5.295  13.651 -0.1879 -0.2460 -0.4481
19042TIP3    H178617   3.224   5.355  13.703  2.0921 -1.7432 -0.9170
19042TIP3    H278618   3.124   5.352  13.590  1.7755  1.1346 -0.7757
19043TIP3   OH278619   6.643   6.711  13.272  0.0508 -0.5470  0.3671
19043TIP3    H178620   6.695   6.760  13.335 -0.8945 -0.5753  1.1946
19043TIP3    H278621   6.694   6.712  13.191  0.6852  0.5827  0.7762
19044TIP3   OH278622   2.179   3.481   1.909 -0.6914  0.1422  0.2153
19044TIP3    H178623   2.226   3.399   1.921 -0.8870 -0.1198 -0.7464
19044TIP3    H278624   2.096   3.457   1.867  0.1259  0.9838 -2.0886
19045TIP3   OH278625   1.003   6.080   5.297 -0.1132  0.2908 -0.0330
19045TIP3    H178626   1.082   6.026   5.303 -0.6675 -0.6215 -0.7864
19045TIP3    H278627   0.957   6.065   5.380 -0.9764 -1.5625 -0.7905
19046TIP3   OH278628   5.250   6.133   4.638  0.9614 -0.3091 -0.1398
19046TIP3    H178629   5.324   6.114   4.579  1.2300 -0.4516  0.2398
19046TIP3    H278630   5.282   6.108   4.724  0.2066 -1.0404 -0.0681
19047TIP3   OH278631   5.526   0.096  11.828  0.1257  0.3434  0.1318
19047TIP3    H178632   5.536   0.189  11.846  0.6841  0.7355 -1.9097
19047TIP3    H278633   5.615   0.063  11.815 -0.1557  0.1031 -1.5050
19048TIP3   OH278634   6.395   3.927  15.283 -0.1734 -0.4033  0.6192
19048TIP3    H178635   6.445   3.973  15.350 -0.4925 -0.3360  0.8104
19048TIP3    H278636   6.304   3.950  15.300 -0.3184 -0.9418  0.5904
19049TIP3   OH278637   2.432   2.993  14.881 -0.5392  0.3368 -0.2836
19049TIP3    H178638   2.407   2.901  14.887 -1.4607  0.5271 -0.9748
19049TIP3    H278639   2.416   3.016  14.789  0.1302  1.0665 -0.2277
19050TIP3   OH278640   1.007   3.821   3.671 -0.2503 -0.3881  0.1223
19050TIP3    H178641   0.962   3.882   3.729 -0.9304 -2.6403  2.1053
19050TIP3    H278642   0.968   3.836   3.585 -2.8722 -0.3868  1.2362
19051TIP3   OH278643   2.023   4.939  15.054  0.1326 -0.0593  0.0583
19051TIP3    H178644   1.941   4.897  15.028  0.3248  0.3994 -1.3357
19051TIP3    H278645   2.044   4.900  15.139 -1.4014 -0.3507  0.3327
19052TIP3   OH278646   4.208   0.253  14.505  0.4459 -0.1881  0.4224
19052TIP3    H178647   4.223   0.257  14.600  1.3875  2.5651  0.2563
19052TIP3    H278648   4.129   0.305  14.491  0.8772  0.2749 -0.3725
19053TIP3   OH278649   5.015   0.163  12.676  0.0962 -0.1564 -0.6704
19053TIP3    H178650   5.058   0.181  12.593  0.8673 -2.7051 -0.9289
19053TIP3    H278651   5.059   0.220  12.739  0.8214  0.4398 -1.6906
19054TIP3   OH278652   5.154   6.635  12.817  0.4750  0.7618  0.0927
19054TIP3    H178653   5.058   6.638  12.821  0.5302  2.4980  0.9612
19054TIP3    H278654   5.176   6.543  12.831 -0.9867  0.6934  2.3692
19055TIP3   OH278655   5.920   6.173  11.860  0.4127  0.5052  0.2522
19055TIP3    H178656   5.825   6.161  11.864  0.5776 -1.0889  0.2220
19055TIP3    H278657   5.932   6.256  11.815 -0.9718  0.6140  0.0449
19056TIP3   OH278658   4.629   2.814   5.922  0.2531  0.1444 -0.1715
19056TIP3    H178659   4.616   2.890   5.866  1.2638  0.5056  0.0495
19056TIP3    H278660   4.595   2.841   6.008 -0.5557 -0.1226 -0.3966
19057TIP3   OH278661   0.036   3.007  15.370  0.0179  0.3068  0.3146
19057TIP3    H178662   0.050   3.019  15.464 -0.5979  0.5119  0.3858
19057TIP3    H278663  -0.013   3.084  15.343 -0.7577 -0.2675  0.0444
19058TIP3   OH278664   6.317   1.424   5.892 -0.6190  0.4329  0.3159
19058TIP3    H178665   6.282   1.354   5.947 -0.0005  0.4627  0.7619
19058TIP3    H278666   6.243   1.452   5.838 -0.7174 -0.9693 -0.3101
19059TIP3   OH278667   2.372   0.102  12.473  0.5850 -0.0670  0.3451
19059TIP3    H178668   2.364   0.039  12.545  0.2437 -0.2805  0.1213
19059TIP3    H278669   2.385   0.186  12.516  2.8806 -0.5084  0.6595
19060TIP3   OH278670   5.140   0.422  16.973  0.7534 -0.2662 -0.0112
19060TIP3    H178671   5.068   0.472  16.935 -0.0588 -0.5211  1.1310
19060TIP3    H278672   5.186   0.484  17.029  0.3349 -0.5471  0.6482
19061TIP3   OH278673   3.818   5.802   2.334  0.8391 -0.5594 -0.2018
19061TIP3    H178674   3.774   5.725   2.299  0.9300  0.0623 -1.7274
19061TIP3    H278675   3.899   5.768   2.372  1.0233 -1.1887 -1.1370
19062TIP3   OH278676   3.330   5.642   1.416  0.5353 -0.1857  0.1550
19062TIP3    H178677   3.251   5.613   1.461  0.7729 -1.8677 -0.4386
19062TIP3    H278678   3.394   5.656   1.486  0.7675 -2.3387  0.4617
19063TIP3   OH278679   0.353   0.627   1.548 -0.3583 -0.1371 -0.6486
19063TIP3    H178680   0.260   0.651   1.547 -0.4910 -0.4422  1.0587
19063TIP3    H278681   0.398   0.708   1.524 -1.0916 -0.4499 -3.3266
19064TIP3   OH278682   6.527   6.462  10.967 -0.2303 -0.0045  0.1320
19064TIP3    H178683   6.493   6.552  10.969 -1.1420 -0.2732 -1.3900
19064TIP3    H278684   6.612   6.467  11.009 -1.0295  1.2250  1.7102
19065TIP3   OH278685   0.570   1.820  13.431  0.6302  0.0843  0.6984
19065TIP3    H178686   0.484   1.813  13.389  0.3518 -1.6753  1.4669
19065TIP3    H278687   0.565   1.900  13.484  0.8273  2.1107 -2.1312
19066TIP3   OH278688   6.178   2.903   4.627  0.0119 -0.2219 -0.9904
19066TIP3    H178689   6.159   2.995   4.605  1.5362 -0.2702 -2.8472
19066TIP3    H278690   6.274   2.898   4.626 -0.0547 -1.8610 -1.0361
19067TIP3   OH278691   0.495   4.736   2.863  0.5819 -0.1549  0.1401
19067TIP3    H178692   0.424   4.796   2.841  0.6196 -0.1680 -0.0129
19067TIP3    H278693   0.559   4.746   2.793  0.8247  0.0037  0.3813
19068TIP3   OH278694   3.905   5.744   1.498 -0.0479 -0.0241 -0.3590
19068TIP3    H178695   3.869   5.759   1.586  0.3155 -1.1058 -0.0018
19068TIP3    H278696   3.874   5.656   1.475  1.7753 -0.7219 -0.3118
19069TIP3   OH278697   1.974   5.527   2.400 -0.1601 -0.5993 -0.3482
19069TIP3    H178698   1.910   5.463   2.430  0.9516 -1.5531  0.0567
19069TIP3    H278699   2.042   5.475   2.357  1.9970 -0.0136  2.0930
19070TIP3   OH278700   2.681   4.501  15.006  0.0468  0.2501  0.1554
19070TIP3    H178701   2.738   4.428  14.982  0.4423  0.8502 -0.7861
19070TIP3    H278702   2.718   4.577  14.960 -1.3063  0.7206 -0.1931
19071TIP3   OH278703   2.302   6.370   5.811 -0.1070 -0.0303 -0.0676
19071TIP3    H178704   2.302   6.287   5.859  0.2327  0.6092  1.0891
19071TIP3    H278705   2.212   6.379   5.781 -0.4344 -0.2880  0.7832
19072TIP3   OH278706   1.541   2.658  10.904  0.7063  0.0515 -0.1772
19072TIP3    H178707   1.521   2.582  10.957  1.2546  0.5010  0.7045
19072TIP3    H278708   1.634   2.676  10.921  0.5474  1.0071 -0.2303
19073TIP3   OH278709   1.805   5.477  15.045 -0.0368  0.3248 -0.2725
19073TIP3    H178710   1.811   5.397  14.993 -2.5802  0.4641 -0.9205
19073TIP3    H278711   1.855   5.458  15.124  1.3212 -1.0354 -1.3936
19074TIP3   OH278712   0.875   2.012   4.009 -0.1792  0.3187 -0.3901
19074TIP3    H178713   0.808   1.956   4.049 -0.2202  0.0178 -0.8629
19074TIP3    H278714   0.957   1.985   4.050 -0.5137  1.6622  1.2263
19075TIP3   OH278715   3.967   5.377  14.666  0.1077  0.1246  0.4135
19075TIP3    H178716   3.901   5.389  14.734  0.6177 -0.9039  1.1142
19075TIP3    H278717   3.918   5.348  14.589 -0.1402 -2.3239  1.4089
19076TIP3   OH278718   5.566   1.155   5.899 -0.3486 -0.4005 -0.2452
19076TIP3    H178719   5.598   1.065   5.909 -2.3470 -1.1635 -0.2385
19076TIP3    H278720   5.528   1.177   5.984  0.3928  0.5931 -0.1506
19077TIP3   OH278721   1.857   6.034   0.196 -0.2371  0.3256 -0.8488
19077TIP3    H178722   1.950   6.058   0.195  0.0293 -0.4725 -3.2543
19077TIP3    H278723   1.811   6.114   0.170  0.0073  0.1520 -1.8563
19078TIP3   OH278724   1.380   5.171  11.205  0.0475  0.0934 -0.4225
19078TIP3    H178725   1.409   5.213  11.124 -2.0276 -0.7099 -1.6556
19078TIP3    H278726   1.367   5.079  11.182  0.7527 -0.4629  1.2183
19079TIP3   OH278727   6.622   4.119  14.956  0.4505  0.4884 -0.4273
19079TIP3    H178728   6.689   4.187  14.955  1.0920 -0.1231 -0.1085
19079TIP3    H278729   6.540   4.165  14.939  0.6158  1.6284  1.6056
19080TIP3   OH278730   5.130   3.090  11.659  0.0950 -0.0186 -0.2230
19080TIP3    H178731   5.158   3.097  11.568 -1.6316  0.2815 -0.7810
19080TIP3    H278732   5.207   3.060  11.706  1.2921  0.7233 -1.6281
19081TIP3   OH278733   2.964   2.567  10.290  0.0221  0.3957  0.3053
19081TIP3    H178734   2.968   2.654  10.331 -0.7417 -0.2064  1.7359
19081TIP3    H278735   2.872   2.557  10.266  0.1099 -0.0200  0.1384
19082TIP3   OH278736   1.824   5.455  11.283 -0.4333  0.3086  0.5784
19082TIP3    H178737   1.814   5.511  11.206 -1.7040 -0.1723  0.3689
19082TIP3    H278738   1.788   5.371  11.256  0.8533 -0.4353  1.1064
19083TIP3   OH278739   5.259   6.361   4.789 -0.1353  0.2447  0.4647
19083TIP3    H178740   5.278   6.326   4.702  3.6836 -1.0450  1.6569
19083TIP3    H278741   5.207   6.293   4.832  0.8786 -0.6359  0.3075
19084TIP3   OH278742   6.668   2.373   5.522 -0.6001 -0.7113 -0.3984
19084TIP3    H178743   6.593   2.365   5.581  0.2914  0.4210  0.9355
19084TIP3    H278744   6.631   2.409   5.441 -1.5623 -0.5428  0.1039
19085TIP3   OH278745   3.295   0.773  14.354 -0.0061  0.3057 -0.0128
19085TIP3    H178746   3.264   0.696  14.402 -1.4782  1.4816  1.0601
19085TIP3    H278747   3.362   0.811  14.411  3.8849 -2.2732 -2.3609
19086TIP3   OH278748   2.787   4.195   0.827 -0.0882 -0.7375  0.8156
19086TIP3    H178749   2.854   4.252   0.791 -0.5712  0.6801  2.1007
19086TIP3    H278750   2.748   4.153   0.750  0.2546  0.6902 -0.1615
19087TIP3   OH278751   3.335   1.831  12.178 -0.1006 -0.1000  0.1887
19087TIP3    H178752   3.306   1.919  12.203  0.6891  0.4422 -0.7344
19087TIP3    H278753   3.431   1.837  12.176  0.0844 -1.5271  2.0108
19088TIP3   OH278754   2.501   5.289   3.753  0.4222  0.2253 -0.4459
19088TIP3    H178755   2.489   5.197   3.776  0.0371  0.3949  0.0420
19088TIP3    H278756   2.457   5.337   3.822  1.1541  0.7941 -0.3628
19089TIP3   OH278757   3.789   0.455  13.785 -0.3725  0.5010 -0.5444
19089TIP3    H178758   3.809   0.362  13.773  1.1762  0.4613  1.7927
19089TIP3    H278759   3.706   0.456  13.832 -0.4279  0.3291 -0.6350
19090TIP3   OH278760   0.049   6.310  14.930  0.5683 -0.5738 -0.3433
19090TIP3    H178761  -0.037   6.303  14.889 -0.5329  1.1845  1.4886
19090TIP3    H278762   0.110   6.317  14.857 -0.9380 -0.8968 -1.6765
19091TIP3   OH278763   2.075   3.039  15.115  0.1937  0.0127  0.1641
19091TIP3    H178764   2.114   2.952  15.124  0.3845  0.0044 -0.6524
19091TIP3    H278765   2.149   3.099  15.120 -0.0682  0.2186  1.9457
19092TIP3   OH278766   0.361   0.306  11.787  0.0476  0.1970  0.5088
19092TIP3    H178767   0.446   0.285  11.748 -0.3339  0.0129 -0.2495
19092TIP3    H278768   0.377   0.309  11.881  0.2608 -3.1652  0.7229
19093TIP3   OH278769   5.486   3.524  16.003 -0.5872  0.5179 -0.1548
19093TIP3    H178770   5.540   3.599  15.978  0.3940 -0.1424 -0.0588
19093TIP3    H278771   5.509   3.506  16.093 -0.1581 -0.4498 -0.4511
19094TIP3   OH278772   6.164   1.284   3.638  0.1637  0.0596 -0.2575
19094TIP3    H178773   6.191   1.201   3.678  1.5806  0.2503 -0.7831
19094TIP3    H278774   6.232   1.347   3.663  0.4599  0.4521 -1.9492
19095TIP3   OH278775   2.347   2.164  14.369 -0.2709  0.6323  0.1242
19095TIP3    H178776   2.419   2.113  14.406 -0.6890  0.2220  0.3890
19095TIP3    H278777   2.268   2.119  14.399 -0.6266 -0.0252 -1.7080
19096TIP3   OH278778   4.012   4.330   3.787 -0.6634  0.0447 -0.4051
19096TIP3    H178779   4.062   4.410   3.770 -2.5379  1.0407 -1.5634
19096TIP3    H278780   4.014   4.320   3.882  1.2090  0.3511 -0.3775
19097TIP3   OH278781   6.078   1.145  14.541  0.0676  0.1939  0.7405
19097TIP3    H178782   6.048   1.153  14.631 -1.0949  0.4607  0.3499
19097TIP3    H278783   6.005   1.104  14.495 -0.0839  1.6720 -0.4238
19098TIP3   OH278784   4.006   2.589   2.677  0.2732 -0.1381  0.6721
19098TIP3    H178785   4.084   2.644   2.676  0.1594  0.0326 -0.3323
19098TIP3    H278786   3.981   2.584   2.769  0.5228  1.1443  0.8300
19099TIP3   OH278787   4.048   5.099  15.862  0.6187  0.2833  0.7177
19099TIP3    H178788   3.980   5.153  15.822 -1.3234 -0.8817  2.2667
19099TIP3    H278789   4.084   5.048  15.790 -1.5410 -0.4772  0.0831
19100TIP3   OH278790   4.360   1.072   0.222  0.4064 -0.0315 -0.4189
19100TIP3    H178791   4.398   1.149   0.266 -1.5247  2.0433 -2.1306
19100TIP3    H278792   4.274   1.061   0.264  0.2709 -0.6578 -0.8535
19101TIP3   OH278793   4.248   6.650  14.914 -0.1187 -0.5879  0.1267
19101TIP3    H178794   4.340   6.646  14.938 -0.1054 -2.7807 -0.1467
19101TIP3    H278795   4.204   6.589  14.974 -1.0542 -1.1836 -1.1192
19102TIP3   OH278796   1.204   3.893   6.585  0.2479  0.6913  0.4989
19102TIP3    H178797   1.171   3.982   6.598 -0.9832  0.5425 -1.2543
19102TIP3    H278798   1.128   3.844   6.554  1.4193 -0.4157 -0.7398
19103TIP3   OH278799   1.779   0.499  14.626 -0.5872 -0.1391 -0.0653
19103TIP3    H178800   1.716   0.544  14.682 -0.6187  0.0796 -0.2743
19103TIP3    H278801   1.758   0.529  14.537 -1.6571 -1.7789 -0.4094
19104TIP3   OH278802   1.469   5.033  11.643  0.0129 -0.0923  0.1333
19104TIP3    H178803   1.486   5.095  11.714 -2.9617  1.1776 -0.1176
19104TIP3    H278804   1.458   4.949  11.687 -0.0587  0.3466  0.9796
19105TIP3   OH278805   0.006   5.288   4.838  0.5962  0.1873  0.3935
19105TIP3    H178806   0.054   5.368   4.817  1.7104 -0.2842  1.0601
19105TIP3    H278807  -0.075   5.318   4.878  0.5064  0.9927 -0.3568
19106TIP3   OH278808   3.935   0.383   5.624 -0.1420 -0.3607 -0.4415
19106TIP3    H178809   3.950   0.469   5.584 -0.4258  0.0559  0.3343
19106TIP3    H278810   3.881   0.401   5.701  1.9385 -0.8987  1.2575
19107TIP3   OH278811   2.969   3.737  13.908  0.3301 -0.3832 -0.5909
19107TIP3    H178812   2.910   3.784  13.967  0.4382  1.6862 -2.0541
19107TIP3    H278813   2.914   3.669  13.868  0.3646 -2.1571  2.1199
19108TIP3   OH278814   5.153   0.984  15.525 -0.1473 -0.7163 -0.2549
19108TIP3    H178815   5.090   0.985  15.597  0.5276 -1.0895  0.3448
19108TIP3    H278816   5.135   0.902  15.479 -0.1355 -0.7964 -0.1173
19109TIP3   OH278817   1.113   2.692  11.111  0.9346 -0.7102 -0.3652
19109TIP3    H178818   1.035   2.736  11.145  2.8615  0.8074  2.4728
19109TIP3    H278819   1.137   2.741  11.033  0.4765  0.4502  0.2073
19110TIP3   OH278820   3.289   2.035   3.065 -0.2566  0.2765  0.6484
19110TIP3    H178821   3.210   2.087   3.082 -0.5546  0.6306 -1.5270
19110TIP3    H278822   3.355   2.070   3.125 -1.2244  1.2622  1.1635
19111TIP3   OH278823   4.588   0.828   1.404 -0.1502 -0.1274 -0.0260
19111TIP3    H178824   4.534   0.749   1.403 -0.6665  0.2150  0.1482
19111TIP3    H278825   4.612   0.841   1.312  0.5867 -0.9148  0.0443
19112TIP3   OH278826   2.874   3.421   5.654 -0.5011  0.5611 -0.1008
19112TIP3    H178827   2.939   3.412   5.584  1.3760  0.0413  1.6318
19112TIP3    H278828   2.915   3.382   5.731 -2.5592  0.9632  1.2940
19113TIP3   OH278829   1.803   5.894   4.863 -0.1930  0.2205  0.3283
19113TIP3    H178830   1.833   5.824   4.921 -1.5015 -0.8236 -0.2008
19113TIP3    H278831   1.837   5.975   4.902  2.5388 -0.7734  0.2161
19114TIP3   OH278832   3.059   3.328  13.758  0.4218  0.0052 -0.3073
19114TIP3    H178833   3.149   3.317  13.790  0.6233 -0.0009 -0.8739
19114TIP3    H278834   3.064   3.310  13.665 -0.5179 -1.9855 -0.0315
19115TIP3   OH278835   5.885   5.338  11.623 -0.5075 -0.1478 -0.1754
19115TIP3    H178836   5.882   5.337  11.719  2.1298  1.7767  0.0450
19115TIP3    H278837   5.949   5.270  11.601  0.2239  0.6032 -0.4151
19116TIP3   OH278838   3.904   1.086  15.934 -0.2060  0.2284  0.4013
19116TIP3    H178839   3.983   1.046  15.971  0.1628  0.8627  0.3215
19116TIP3    H278840   3.833   1.026  15.958  0.5960 -1.6874 -1.6620
19117TIP3   OH278841   3.701   2.495  11.957 -0.1624 -0.0525  0.3794
19117TIP3    H178842   3.734   2.405  11.965 -2.7346 -1.0029  1.3639
19117TIP3    H278843   3.768   2.540  11.906  2.0334 -2.0716  1.2420
19118TIP3   OH278844   4.723   2.432   2.879 -0.6723  0.2152  0.0995
19118TIP3    H178845   4.748   2.422   2.787 -0.0418 -0.3345  0.3236
19118TIP3    H278846   4.778   2.503   2.911 -2.2547  1.7643 -0.4242
19119TIP3   OH278847   1.305   5.814  10.409 -0.2989 -0.5646 -0.0770
19119TIP3    H178848   1.283   5.738  10.464  1.1993 -1.5993 -0.8463
19119TIP3    H278849   1.399   5.807  10.394 -0.6160 -0.2984 -2.7005
19120TIP3   OH278850   5.070   1.429  14.257 -0.3602  0.1510  0.3678
19120TIP3    H178851   5.144   1.485  14.282 -1.0168  2.0946 -1.7062
19120TIP3    H278852   5.025   1.410  14.340  2.1616 -0.7516  1.6285
19121TIP3   OH278853   1.228   6.797   1.305 -0.7598  0.2368 -0.0907
19121TIP3    H178854   1.274   6.835   1.230 -1.2987 -3.2877 -2.4964
19121TIP3    H278855   1.152   6.853   1.318  0.2704  1.9258 -0.9733
19122TIP3   OH278856   3.775   2.753  15.170  0.1113 -0.2294  0.0500
19122TIP3    H178857   3.847   2.756  15.107  1.4503  0.9627  1.5482
19122TIP3    H278858   3.812   2.706  15.245 -0.9179 -0.2276  0.5667
19123TIP3   OH278859   1.667   3.995   5.173  0.2436 -0.4531  0.1234
19123TIP3    H178860   1.736   4.006   5.108  0.5831  1.2238  0.7158
19123TIP3    H278861   1.589   4.034   5.132 -0.1844 -1.6814 -0.2566
19124TIP3   OH278862   0.115   4.674   2.401  0.1212  0.3182 -0.0819
19124TIP3    H178863   0.118   4.623   2.320 -1.6110 -0.3957  0.2782
19124TIP3    H278864   0.023   4.696   2.413  0.2727  0.0230  1.9370
19125TIP3   OH278865   2.040   0.926  11.763  0.0150  0.5098  0.1261
19125TIP3    H178866   2.015   0.936  11.671 -0.3519 -1.3076 -0.0196
19125TIP3    H278867   2.039   1.015  11.798  1.3997  1.4073 -1.9183
19126TIP3   OH278868   1.525   2.818   4.058 -0.4549  0.2304  0.6184
19126TIP3    H178869   1.553   2.909   4.065 -1.7296  0.7656 -0.7382
19126TIP3    H278870   1.436   2.817   4.092 -0.5956 -0.4367  0.2533
19127TIP3   OH278871   2.902   3.785   0.983  0.2758  0.1537  0.2050
19127TIP3    H178872   2.877   3.847   1.052 -0.9215  0.5019 -0.5181
19127TIP3    H278873   2.843   3.805   0.911  0.9949 -0.7315 -0.6475
19128TIP3   OH278874   3.903   6.690   4.114 -0.1805 -0.5140  0.3734
19128TIP3    H178875   3.987   6.725   4.143 -0.7740  1.0349  0.3339
19128TIP3    H278876   3.904   6.598   4.143  1.2750 -0.3734  0.8601
19129TIP3   OH278877   1.570   4.666   0.801 -0.7629 -0.5158 -0.0802
19129TIP3    H178878   1.479   4.653   0.830 -0.4206  0.2168  1.3936
19129TIP3    H278879   1.612   4.581   0.815 -1.2244 -0.8907 -0.8691
19130TIP3   OH278880   5.117   2.670  12.921  0.3623  0.5424 -0.1361
19130TIP3    H178881   5.027   2.699  12.937  0.6825  0.9173  1.1538
19130TIP3    H278882   5.136   2.699  12.832 -0.8261  0.3476 -0.4802
19131TIP3   OH278883   3.020   0.147   0.496  0.0169  0.2360 -0.2283
19131TIP3    H178884   2.942   0.179   0.451  0.5621 -0.9709 -2.1027
19131TIP3    H278885   3.093   0.180   0.444  0.7318  0.0824  0.6540
19132TIP3   OH278886   1.618   0.798   5.293  0.3734  0.3718 -0.3154
19132TIP3    H178887   1.587   0.843   5.215 -1.0244  0.4818  0.2653
19132TIP3    H278888   1.690   0.852   5.326  0.8992  0.3820 -1.4390
19133TIP3   OH278889   4.926   1.695   1.143 -0.0038 -0.1932 -0.1799
19133TIP3    H178890   4.849   1.709   1.089 -0.5103 -0.2762  0.5065
19133TIP3    H278891   4.990   1.758   1.111  0.5681 -1.7846 -2.4586
19134TIP3   OH278892   6.088   5.629   4.524 -0.1339 -0.3471  0.3460
19134TIP3    H178893   6.076   5.550   4.472 -0.2793 -1.0232  1.3845
19134TIP3    H278894   6.045   5.698   4.474 -1.0649 -1.1559  0.0039
19135TIP3   OH278895   4.913   4.040  17.086 -0.1115  0.2466  0.3332
19135TIP3    H178896   4.886   3.956  17.049 -0.3007  0.6277 -0.4206
19135TIP3    H278897   4.847   4.059  17.153 -0.3380  0.0180  0.1764
19136TIP3   OH278898   1.222   3.765  12.046 -0.4651  0.2836 -0.1530
19136TIP3    H178899   1.139   3.769  12.093  0.3155  0.2259  1.3037
19136TIP3    H278900   1.263   3.850  12.062 -0.7594  0.7997 -1.9250
19137TIP3   OH278901   1.069   1.668   2.368  0.3446 -0.4304 -0.6683
19137TIP3    H178902   0.982   1.690   2.401  0.7020 -1.0819  0.8240
19137TIP3    H278903   1.096   1.593   2.422  2.2252  0.3786 -0.4038
19138TIP3   OH278904   6.762   5.524  16.108 -0.7798  0.3186  0.0360
19138TIP3    H178905   6.824   5.463  16.067 -0.6544  0.3064  0.2423
19138TIP3    H278906   6.761   5.498  16.200  0.4870  1.6323  0.4583
19139TIP3   OH278907   2.092   4.578  11.718  0.1053  0.3532 -0.4430
19139TIP3    H178908   2.078   4.620  11.633 -0.8222 -0.3637 -0.6602
19139TIP3    H278909   2.138   4.645  11.770 -1.3724  1.6744 -0.7547
19140TIP3   OH278910   2.347   6.202  14.102 -0.1993 -0.1178 -0.6133
19140TIP3    H178911   2.390   6.214  14.186  0.0682 -1.0628 -0.5985
19140TIP3    H278912   2.324   6.109  14.100  0.1642 -0.2044 -1.7425
19141TIP3   OH278913   1.402   4.141  15.065 -0.2821  0.1294  0.0278
19141TIP3    H178914   1.341   4.115  14.996 -2.9247  2.6352  1.1647
19141TIP3    H278915   1.353   4.129  15.146  1.3203  0.8216  1.1620
19142TIP3   OH278916   1.500   0.061  16.348 -0.2650  0.3850 -0.5551
19142TIP3    H178917   1.419   0.065  16.297 -0.5692  0.2767 -0.0837
19142TIP3    H278918   1.478   0.009  16.425 -0.3203  2.0406  0.6028
19143TIP3   OH278919   6.194   3.512   5.240  0.0726  0.0685 -0.1493
19143TIP3    H178920   6.124   3.546   5.184  0.0152 -1.0425 -0.7754
19143TIP3    H278921   6.173   3.419   5.251  0.7414  0.0119  0.7323
19144TIP3   OH278922   0.728   3.874  11.263 -0.6404 -0.2743 -0.3108
19144TIP3    H178923   0.734   3.801  11.324  0.5202 -0.5883 -0.7893
19144TIP3    H278924   0.749   3.951  11.316 -1.3459 -0.3276  0.0690
19145TIP3   OH278925   2.294   3.759   0.436 -0.0628  0.1996  0.2765
19145TIP3    H178926   2.238   3.833   0.463 -1.4693 -0.4914 -0.6038
19145TIP3    H278927   2.238   3.707   0.378  0.5147 -2.1459  1.6856
19146TIP3   OH278928   4.830   2.905  15.788 -0.3848 -0.8086 -0.0849
19146TIP3    H178929   4.752   2.930  15.739 -1.8591 -1.6492  1.7029
19146TIP3    H278930   4.894   2.972  15.768 -1.9184  0.4826 -0.8257
19147TIP3   OH278931   6.553   0.582  16.980 -0.3117 -0.7626  0.2457
19147TIP3    H178932   6.564   0.584  16.885 -0.2930 -1.5386  0.2231
19147TIP3    H278933   6.495   0.507  16.995 -0.7342 -0.3309  0.8070
19148TIP3   OH278934   2.719   6.091   4.680  0.2515  0.0565  0.4820
19148TIP3    H178935   2.635   6.129   4.653  1.6161  2.2697 -0.9926
19148TIP3    H278936   2.707   6.071   4.773 -2.3103 -0.9780  0.0188
19149TIP3   OH278937   0.738   2.072  14.732  0.2851 -0.7546  0.4289
19149TIP3    H178938   0.688   1.991  14.724 -0.4463 -0.3207  0.4439
19149TIP3    H278939   0.774   2.088  14.645 -1.0281 -0.1931 -0.0349
19150TIP3   OH278940   4.583   4.016  12.192  0.2732  0.2094  0.1130
19150TIP3    H178941   4.615   4.031  12.103 -0.3536 -0.3987 -0.2247
19150TIP3    H278942   4.618   3.930  12.215 -0.4345 -0.0982  0.0488
19151TIP3   OH278943   0.920   5.995  13.409 -0.5667 -0.4265 -0.7322
19151TIP3    H178944   0.959   5.938  13.343 -0.6803 -0.5949 -0.6535
19151TIP3    H278945   0.902   6.077  13.363  1.5196  0.3072 -0.3697
19152TIP3   OH278946   6.857   6.463   4.130  0.1333 -0.7555  0.0203
19152TIP3    H178947   6.870   6.408   4.207  3.3484  0.0055  0.1561
19152TIP3    H278948   6.843   6.551   4.165 -0.5855 -0.7462 -0.2684
19153TIP3   OH278949   0.920   5.624  12.286 -0.6505  0.6449 -0.2186
19153TIP3    H178950   0.907   5.654  12.196  2.6556 -0.4377 -1.1712
19153TIP3    H278951   0.974   5.692  12.326 -0.5309  0.2149  0.3631
19154TIP3   OH278952   5.670   5.214   4.346 -0.6081 -0.1895  0.6516
19154TIP3    H178953   5.633   5.132   4.380  0.2701 -1.0325 -0.3449
19154TIP3    H278954   5.603   5.247   4.286 -0.6933 -0.5274  0.5563
19155TIP3   OH278955   5.715   3.604   3.518 -0.7415  0.3762  0.0100
19155TIP3    H178956   5.666   3.638   3.593 -0.2573  1.8099 -0.3063
19155TIP3    H278957   5.704   3.670   3.450  0.1823 -0.1206 -0.6451
19156TIP3   OH278958   2.753   4.239   1.225  0.2756  0.1847  0.2143
19156TIP3    H178959   2.748   4.171   1.292  0.0323 -0.7302 -0.7022
19156TIP3    H278960   2.665   4.277   1.222 -0.9125 -2.3663 -2.1459
19157TIP3   OH278961   6.042   0.900  14.099 -0.6693  0.2477  0.3289
19157TIP3    H178962   6.134   0.909  14.124 -0.9374  0.3087  1.3149
19157TIP3    H278963   6.045   0.890  14.004  0.4776 -1.3719  0.4906
19158TIP3   OH278964   1.489   6.645  12.371 -0.3712  0.4254  0.4460
19158TIP3    H178965   1.438   6.710  12.322 -0.3375 -0.3485 -0.6399
19158TIP3    H278966   1.570   6.636  12.321 -1.9022 -3.3175 -1.7476
19159TIP3   OH278967   3.001   6.691   1.037 -0.8198 -0.0159 -0.1933
19159TIP3    H178968   2.952   6.694   0.955 -2.0424  0.3866  0.5385
19159TIP3    H278969   3.089   6.720   1.013 -1.2251  0.3382 -1.3121
19160TIP3   OH278970   5.601   4.768   1.060  0.1142  0.2280 -0.7817
19160TIP3    H178971   5.628   4.853   1.025 -1.4474  1.7246  1.3695
19160TIP3    H278972   5.509   4.760   1.035 -0.2866  0.0928  0.6788
19161TIP3   OH278973   5.998   6.176   0.010 -0.2289 -0.0584  0.2419
19161TIP3    H178974   6.060   6.107  -0.011 -0.4741 -0.7226  1.6132
19161TIP3    H278975   6.046   6.236   0.067 -0.4911  0.0513  0.3537
19162TIP3   OH278976   3.090   1.359  16.479 -0.5884 -0.6025  0.7288
19162TIP3    H178977   3.023   1.345  16.412  1.3451 -0.3084 -1.3676
19162TIP3    H278978   3.045   1.408  16.548 -2.3172  0.3955 -1.0128
19163TIP3   OH278979   6.560   2.655   2.497 -0.6891 -0.1097  0.0399
19163TIP3    H178980   6.495   2.690   2.557  0.8708  1.0584  1.1399
19163TIP3    H278981   6.578   2.567   2.529  1.7275  1.2133  2.8486
19164TIP3   OH278982   2.977   0.521  14.209 -0.2432 -0.2010 -0.7774
19164TIP3    H178983   2.992   0.521  14.304 -2.2583  0.4980 -0.4176
19164TIP3    H278984   3.062   0.543  14.171  0.4207  0.2499  0.8896
19165TIP3   OH278985   1.796   1.113   1.199  0.3095 -0.2184  0.0639
19165TIP3    H178986   1.779   1.195   1.245 -0.5012  2.0635 -3.9015
19165TIP3    H278987   1.887   1.117   1.173  0.2005 -0.4505 -0.3680
19166TIP3   OH278988   2.860   6.211   1.943 -0.6930 -0.0965  0.2768
19166TIP3    H178989   2.841   6.225   1.851 -1.4037 -0.4759  0.3591
19166TIP3    H278990   2.775   6.215   1.987 -0.0839  3.8962  1.5003
19167TIP3   OH278991   0.087   0.631   1.608 -0.1159  0.1421 -0.3773
19167TIP3    H178992   0.115   0.546   1.640  1.2102 -0.1468 -2.1312
19167TIP3    H278993   0.029   0.610   1.534  0.1777  0.7377 -0.7853
19168TIP3   OH278994   6.662   6.459  13.773 -0.8883 -0.2469  0.4388
19168TIP3    H178995   6.600   6.410  13.826 -1.5358 -0.3026 -0.3610
19168TIP3    H278996   6.681   6.402  13.698 -0.6007  0.1594  0.1967
19169TIP3   OH278997   3.794   3.640   3.804  0.3505 -0.1020 -0.0355
19169TIP3    H178998   3.875   3.590   3.799  0.0585 -0.5871  0.0339
19169TIP3    H278999   3.777   3.666   3.713  1.1713  0.9673  0.0992
19170TIP3   OH279000   5.183   1.573   4.552  0.1744 -0.1805 -0.3821
19170TIP3    H179001   5.168   1.633   4.479  1.2786  1.4451  0.6563
19170TIP3    H279002   5.255   1.517   4.523  0.7576  0.6035 -0.4739
19171TIP3   OH279003   5.469   6.691  11.977  0.8448 -0.1255  0.3503
19171TIP3    H179004   5.468   6.729  12.065 -0.9278  4.6806 -1.4215
19171TIP3    H279005   5.378   6.697  11.948  1.5302 -0.7574 -2.1262
19172TIP3   OH279006   1.193   1.981  13.837 -0.6261  0.0374 -0.3842
19172TIP3    H179007   1.144   1.899  13.849  0.2453 -0.5346 -0.6376
19172TIP3    H279008   1.262   1.977  13.903  0.7594 -0.4805 -1.8123
19173TIP3   OH279009   1.947   1.612  15.644  0.2164  0.2361 -0.4321
19173TIP3    H179010   1.891   1.550  15.598  0.8673 -1.4617  0.9943
19173TIP3    H279011   2.027   1.615  15.591  0.2938 -0.3713 -0.3537
19174TIP3   OH279012   3.252   3.962  12.215  0.4589  0.3072 -0.0441
19174TIP3    H179013   3.160   3.972  12.238  0.3440  0.4062 -0.5327
19174TIP3    H279014   3.284   4.052  12.209  0.2526  0.3100 -1.1914
19175TIP3   OH279015   2.649   3.506   2.676  0.8554 -0.0819  0.0442
19175TIP3    H179016   2.657   3.540   2.586  0.6395  0.9718  0.4123
19175TIP3    H279017   2.740   3.487   2.701  1.0081  0.4348 -0.0961
19176TIP3   OH279018   4.560   0.449   3.308  0.4734  0.2106 -0.4260
19176TIP3    H179019   4.498   0.403   3.251  1.0247 -1.0411 -0.0505
19176TIP3    H279020   4.574   0.533   3.264 -0.9763  0.2730 -0.8529
19177TIP3   OH279021   4.772   2.528   2.370 -0.0414  0.2905 -0.0510
19177TIP3    H179022   4.753   2.619   2.393  2.2689  0.6510  0.7052
19177TIP3    H279023   4.836   2.534   2.299 -1.4648 -0.7982 -1.4757
19178TIP3   OH279024   5.033   6.441  16.750 -0.1452  0.2873  0.6983
19178TIP3    H179025   4.989   6.358  16.735 -1.0774  0.5605  1.7785
19178TIP3    H279026   5.090   6.453  16.674 -1.5610 -0.3198 -0.4965
19179TIP3   OH279027   6.305   4.981  15.935 -0.3996 -0.5958 -0.1354
19179TIP3    H179028   6.311   5.030  15.853 -0.2163 -2.2598 -1.1545
19179TIP3    H279029   6.222   4.934  15.928  0.6664 -2.5324 -0.4268
19180TIP3   OH279030   4.721   5.658  16.791  0.0679  0.6449 -0.0336
19180TIP3    H179031   4.725   5.686  16.882  1.5439 -0.6786  0.3332
19180TIP3    H279032   4.674   5.575  16.793  1.0655  0.0633 -0.3290
19181TIP3   OH279033   1.135   0.749  14.627 -0.4060  0.1252  0.1380
19181TIP3    H179034   1.227   0.777  14.635 -0.0110 -1.1318  0.1221
19181TIP3    H279035   1.115   0.759  14.534 -0.6296  1.3937  0.3013
19182TIP3   OH279036   0.151   1.936   2.469  0.4079 -0.1373  0.1539
19182TIP3    H179037   0.114   1.887   2.543  0.7004 -0.1657  0.2840
19182TIP3    H279038   0.092   2.010   2.457  0.7672  0.2786  0.8970
19183TIP3   OH279039   2.710   4.616  13.864 -0.0195 -0.2895  0.0580
19183TIP3    H179040   2.641   4.590  13.924  0.0289  0.3037  0.3779
19183TIP3    H279041   2.697   4.561  13.787 -1.9818  1.0577 -0.6561
19184TIP3   OH279042   5.977   2.444   4.811  0.0507  0.3028 -0.2935
19184TIP3    H179043   6.004   2.534   4.790 -1.2543  0.6102 -0.6947
19184TIP3    H279044   6.056   2.404   4.848  1.0222  1.2174 -1.3047
19185TIP3   OH279045   6.281   4.777  16.231  0.1707 -0.4005 -0.0136
19185TIP3    H179046   6.195   4.756  16.266 -0.5144 -0.2922 -1.5240
19185TIP3    H279047   6.341   4.766  16.304 -1.4103  1.9082  1.7587
19186TIP3   OH279048   0.650   6.860  11.932  0.3516 -0.6719  0.4673
19186TIP3    H179049   0.637   6.785  11.991 -0.7532 -0.6725  0.2558
19186TIP3    H279050   0.577   6.853  11.870 -1.3772  2.0330  1.9851
19187TIP3   OH279051   5.877   4.408  17.083 -0.1365 -0.0238 -0.6444
19187TIP3    H179052   5.829   4.469  17.027 -1.7123 -0.9780 -0.3907
19187TIP3    H279053   5.860   4.322  17.045 -0.8290 -0.6460  0.9634
19188TIP3   OH279054   4.121   6.337   0.187 -0.2423 -0.2555  0.4577
19188TIP3    H179055   4.119   6.397   0.261  1.2960 -1.1844  1.3109
19188TIP3    H279056   4.076   6.384   0.117 -1.4581  0.7781  1.8626
19189TIP3   OH279057   4.111   6.333  11.428  0.2894  0.4196  0.1322
19189TIP3    H179058   4.155   6.393  11.489 -1.4269  1.1153  0.7312
19189TIP3    H279059   4.103   6.383  11.347  0.7231  0.2342 -0.0286
19190TIP3   OH279060   1.887   2.838   3.292 -0.4158 -0.0342  0.0044
19190TIP3    H179061   1.901   2.749   3.326 -2.1233 -0.6925 -0.8953
19190TIP3    H279062   1.961   2.852   3.233 -0.4920 -1.1651 -0.3925
19191TIP3   OH279063   4.473   4.700  11.345 -0.2729 -0.5753  0.1385
19191TIP3    H179064   4.491   4.786  11.307 -1.5848  0.3033  1.4007
19191TIP3    H279065   4.552   4.678  11.395 -0.2356  0.2891  0.4693
19192TIP3   OH279066   3.456   5.028   2.851 -0.6590  0.2763  0.2532
19192TIP3    H179067   3.511   5.034   2.930 -1.4138  0.5296  0.7757
19192TIP3    H279068   3.478   4.943   2.813  0.3317  0.5136  0.2620
19193TIP3   OH279069   2.775   5.437  14.740  0.3017  0.6206 -0.2141
19193TIP3    H179070   2.702   5.420  14.799 -0.9391  1.0296 -1.5602
19193TIP3    H279071   2.791   5.531  14.747  1.3716  0.3749  0.8014
19194TIP3   OH279072   3.360   0.527   5.363  0.6653 -0.3757 -0.1773
19194TIP3    H179073   3.274   0.535   5.321  0.3169  0.9275  0.7062
19194TIP3    H279074   3.369   0.608   5.413  2.0010 -0.9340  0.5222
19195TIP3   OH279075   6.214   6.250   1.262  0.0443  0.8287 -0.3226
19195TIP3    H179076   6.304   6.278   1.277  0.0771  0.4480  0.2043
19195TIP3    H279077   6.221   6.177   1.200 -0.0068  1.6518 -1.3222
19196TIP3   OH279078   4.501   5.577  13.602  0.1608  0.8245 -0.1503
19196TIP3    H179079   4.577   5.529  13.569 -0.2128 -0.1817  0.3842
19196TIP3    H279080   4.468   5.523  13.674 -2.2356  0.1566 -1.6203
19197TIP3   OH279081   0.891   3.280   4.181  0.2368  0.4450  0.2985
19197TIP3    H179082   0.956   3.298   4.248  1.7207 -0.1241 -0.9390
19197TIP3    H279083   0.881   3.185   4.181  0.7257  0.3843 -0.6986
19198TIP3   OH279084   2.800   5.434   2.250  0.2813  0.2127  0.5658
19198TIP3    H179085   2.766   5.416   2.337 -0.5509 -0.0078  0.2077
19198TIP3    H279086   2.859   5.360   2.232  0.1127  0.0273  0.7649
19199TIP3   OH279087   2.186   2.021  14.806 -0.2621  0.6786  0.6875
19199TIP3    H179088   2.098   2.037  14.771 -0.4143  2.3937  1.7488
19199TIP3    H279089   2.194   1.925  14.805 -1.4037  0.5377 -1.1351
19200TIP3   OH279090   6.838   5.014  16.768  0.2856 -0.0661  0.1071
19200TIP3    H179091   6.933   5.002  16.764  0.7820  2.2790  2.0807
19200TIP3    H279092   6.808   5.000  16.678  2.4465 -1.0823 -0.5254
19201TIP3   OH279093   3.318   5.089   2.128 -0.3679 -0.0935  0.7115
19201TIP3    H179094   3.242   5.095   2.070  0.2379 -0.0920 -0.1083
19201TIP3    H279095   3.281   5.069   2.214 -1.3792  1.0072  0.5724
19202TIP3   OH279096   2.782   3.881  17.112  0.0329  0.2672 -0.1269
19202TIP3    H179097   2.867   3.854  17.146  0.4075  0.4359 -0.8957
19202TIP3    H279098   2.784   3.856  17.020  0.0635  2.1242 -0.6676
19203TIP3   OH279099   5.247   4.389  13.914 -0.7888  0.5090 -0.0781
19203TIP3    H179100   5.237   4.300  13.880 -0.9779  1.3839 -2.4708
19203TIP3    H279101   5.163   4.431  13.897  0.1858  1.9392 -1.5931
19204TIP3   OH279102   2.444   4.024  11.271 -0.3883  0.2862 -0.1862
19204TIP3    H179103   2.348   4.021  11.269 -0.3704 -0.2013 -0.5489
19204TIP3    H279104   2.470   3.997  11.183  0.0553  2.5237 -0.8016
19205TIP3   OH279105   5.620   2.827  13.850  0.5849  0.3770 -0.5464
19205TIP3    H179106   5.578   2.913  13.851 -0.5394 -0.1638  0.3876
19205TIP3    H279107   5.711   2.845  13.875 -0.2105  1.0276  2.2282
19206TIP3   OH279108   4.382   5.872  16.463 -0.4522  0.1332 -0.5658
19206TIP3    H179109   4.473   5.868  16.434 -0.1711  1.7857 -0.0102
19206TIP3    H279110   4.383   5.837  16.552 -0.2381  0.7243 -0.3300
19207TIP3   OH279111   5.804   0.429  13.809  0.1739 -0.0685  0.9000
19207TIP3    H179112   5.760   0.380  13.740 -0.2803  1.5354 -0.0045
19207TIP3    H279113   5.740   0.496  13.835  0.8772  0.2473  1.8681
19208TIP3   OH279114   2.118   0.075   4.164  0.4298  0.3300  0.1120
19208TIP3    H179115   2.041   0.096   4.111  0.6112  0.8568  0.0528
19208TIP3    H279116   2.082   0.040   4.246  0.1383 -2.4175 -1.0656
19209TIP3   OH279117   4.037   3.654  11.859  0.2726  0.4730  0.4213
19209TIP3    H179118   3.989   3.728  11.895 -2.3631 -1.2715  0.8041
19209TIP3    H279119   4.049   3.595  11.934  2.0100  0.3187  0.0570
19210TIP3   OH279120   4.673   5.152   5.772 -0.4112  0.0916 -0.2160
19210TIP3    H179121   4.631   5.069   5.797 -0.7495 -0.0316 -1.1463
19210TIP3    H279122   4.765   5.139   5.795 -0.2872 -0.9039 -1.1765
19211TIP3   OH279123   5.474   5.190  14.649  0.3062  0.6948  0.8067
19211TIP3    H179124   5.473   5.284  14.629 -1.0900  1.2684  3.2014
19211TIP3    H279125   5.449   5.184  14.741 -2.4623 -2.1458  0.0733
19212TIP3   OH279126   2.448   1.445   2.949  0.1155  0.0962  0.0779
19212TIP3    H179127   2.494   1.368   2.984  1.8297  1.0679  0.0735
19212TIP3    H279128   2.449   1.508   3.021 -0.2925  0.5182 -0.2799
19213TIP3   OH279129   6.626   5.948   6.740 -0.3763 -0.0519  0.7439
19213TIP3    H179130   6.606   5.854   6.751 -0.0622 -0.0668  1.1728
19213TIP3    H279131   6.541   5.987   6.718 -0.5031 -0.4433  0.5211
19214TIP3   OH279132   3.631   0.147  10.862  0.0561 -0.0478  0.2673
19214TIP3    H179133   3.622   0.132  10.768 -1.3612 -0.1951  0.4158
19214TIP3    H279134   3.707   0.094  10.887 -1.1926 -2.2080 -0.3086
19215TIP3   OH279135   0.596   4.821   0.878 -0.0479 -0.0265 -0.9707
19215TIP3    H179136   0.506   4.824   0.909 -0.0956  2.2776 -1.1651
19215TIP3    H279137   0.604   4.896   0.819  2.3166  0.5944 -0.0007
19216TIP3   OH279138   2.821   2.314   5.322 -0.4269  0.0645  0.4397
19216TIP3    H179139   2.819   2.290   5.414  0.6250  0.1015  0.4787
19216TIP3    H279140   2.884   2.255   5.282 -1.8511 -0.8577 -0.5442
19217TIP3   OH279141   1.795   5.790   3.614 -0.0480  0.2234 -0.0074
19217TIP3    H179142   1.719   5.838   3.580  0.9045  1.4979 -0.4299
19217TIP3    H279143   1.773   5.698   3.601 -0.8296  0.6035 -1.6480
19218TIP3   OH279144   3.347   3.224  12.190  0.4704 -0.1666 -0.4279
19218TIP3    H179145   3.396   3.306  12.201 -0.7508  0.9955 -2.8217
19218TIP3    H279146   3.283   3.225  12.260  2.2824 -0.5757  1.3402
19219TIP3   OH279147   2.322   2.860   1.907  0.0544  0.1253  0.0071
19219TIP3    H179148   2.244   2.907   1.876  0.8351  0.3523 -1.7583
19219TIP3    H279149   2.393   2.893   1.852  0.7916 -2.5630 -0.8168
19220TIP3   OH279150   2.775   1.316   4.288 -0.0890  0.6567 -0.0626
19220TIP3    H179151   2.826   1.267   4.224  0.6157  1.9064 -0.5097
19220TIP3    H279152   2.840   1.360   4.342 -0.6850  1.2711  0.1750
19221TIP3   OH279153   1.494   3.904  15.851  0.3111 -0.8226 -0.1623
19221TIP3    H179154   1.478   3.825  15.903 -0.0073  0.2107  1.3780
19221TIP3    H279155   1.564   3.879  15.791  0.0054 -2.3607  0.0821
19222TIP3   OH279156   0.208   3.594  15.162 -0.6060  0.4802  0.3547
19222TIP3    H179157   0.225   3.605  15.255 -2.3506  0.3499  0.7139
19222TIP3    H279158   0.202   3.499  15.149  0.9860  0.4163 -0.1862
19223TIP3   OH279159   6.349   4.460   4.499 -0.1876 -0.5514 -0.0241
19223TIP3    H179160   6.256   4.484   4.509 -0.3959 -0.5733 -1.6296
19223TIP3    H279161   6.394   4.510   4.567 -1.3896 -0.6369  0.8652
19224TIP3   OH279162   3.456   5.302   2.444  0.1811  0.7352 -0.8384
19224TIP3    H179163   3.471   5.271   2.355 -0.3113 -1.2747 -0.2896
19224TIP3    H279164   3.528   5.264   2.495 -0.7606 -0.0343 -0.0292
19225TIP3   OH279165   3.549   0.537   1.434  0.2170  0.2527 -0.2326
19225TIP3    H179166   3.555   0.609   1.372 -0.9243  2.1409  1.6709
19225TIP3    H279167   3.479   0.481   1.400  1.1453 -0.0159 -1.7593
19226TIP3   OH279168   4.799   2.237  11.709  0.3295 -0.4904  0.1207
19226TIP3    H179169   4.753   2.168  11.758 -2.0044  1.2574  0.5869
19226TIP3    H279170   4.883   2.247  11.754  0.1642 -2.0795  0.8552
19227TIP3   OH279171   5.045   3.125  13.402 -0.2968 -0.3663 -0.1239
19227TIP3    H179172   5.030   3.041  13.359  0.8772 -1.8659  2.1645
19227TIP3    H279173   4.995   3.120  13.483 -0.0292  1.0624  0.1584
19228TIP3   OH279174   3.330   4.912   0.157 -0.4584 -0.2540  0.0567
19228TIP3    H179175   3.417   4.918   0.196 -0.0447 -0.6228 -0.7745
19228TIP3    H279176   3.345   4.874   0.071 -1.4077 -0.0021 -0.2375
19229TIP3   OH279177   2.586   2.111  13.933  0.5228  0.5400 -0.0837
19229TIP3    H179178   2.630   2.171  13.873  2.3496  0.2536  0.9023
19229TIP3    H279179   2.526   2.166  13.983  1.3024  1.3265 -0.0001
19230TIP3   OH279180   4.573   4.681  13.297 -0.5124  0.0417 -0.3477
19230TIP3    H179181   4.630   4.692  13.373 -0.0471 -0.0664 -0.6736
19230TIP3    H279182   4.633   4.655  13.226 -1.1358 -1.3100 -0.3922
19231TIP3   OH279183   3.029   4.034   5.639 -0.0777  0.5203 -0.4781
19231TIP3    H179184   2.977   4.075   5.708 -1.3986 -2.1654  0.2636
19231TIP3    H279185   3.106   4.000   5.684 -0.7398 -0.8645 -0.3130
19232TIP3   OH279186   2.633   1.230  14.222 -0.2942  0.5925 -0.4400
19232TIP3    H179187   2.591   1.168  14.281 -1.6760  0.4563 -1.5287
19232TIP3    H279188   2.579   1.309  14.228  0.3574  1.0554 -0.5035
19233TIP3   OH279189   4.614   5.846  14.061  0.5149  0.0639  0.1194
19233TIP3    H179190   4.553   5.792  14.010  0.7399 -1.0466  1.0076
19233TIP3    H279191   4.645   5.912  13.998  1.6411 -1.9183 -1.5125
19234TIP3   OH279192   5.621   2.168   0.515  0.1989  0.1529  0.1944
19234TIP3    H179193   5.560   2.242   0.518 -1.9278 -1.5191  0.3871
19234TIP3    H279194   5.626   2.145   0.422 -0.2353 -0.3066  0.2821
19235TIP3   OH279195   5.018   5.848   0.559 -0.1679 -0.5633 -0.1347
19235TIP3    H179196   4.952   5.910   0.528  1.7709  1.0469 -1.2273
19235TIP3    H279197   5.058   5.891   0.635  0.4376 -0.9947 -0.2034
19236TIP3   OH279198   4.422   6.807  16.463 -0.4217  0.6239 -0.0776
19236TIP3    H179199   4.370   6.731  16.488  3.3510 -3.5701 -3.0627
19236TIP3    H279200   4.360   6.866  16.420 -3.5791 -0.7118  2.2543
19237TIP3   OH279201   6.406   4.513  13.571 -0.1647 -0.5581 -0.4170
19237TIP3    H179202   6.436   4.511  13.661  0.9038 -2.5476 -0.7451
19237TIP3    H279203   6.357   4.431  13.560 -0.1324 -0.4384 -1.6803
19238TIP3   OH279204   1.457   5.006  15.854 -0.0790  0.3186  0.1107
19238TIP3    H179205   1.432   5.087  15.809 -0.7012 -0.7974 -1.6306
19238TIP3    H279206   1.547   4.990  15.825 -1.3754 -1.9005 -3.2150
19239TIP3   OH279207   2.766   2.965   4.026  0.2477 -0.3958 -0.6836
19239TIP3    H179208   2.782   2.981   4.119  0.2001  1.1418 -0.9245
19239TIP3    H279209   2.844   3.000   3.982 -0.1825 -0.1938 -1.2917
19240TIP3   OH279210   3.294   3.228   1.640  0.0781  0.1525  0.3671
19240TIP3    H179211   3.234   3.182   1.699 -1.1500 -0.2987 -1.1520
19240TIP3    H279212   3.269   3.320   1.649  1.6251  0.4433  2.3971
19241TIP3   OH279213   3.106   5.433   5.447  0.0213 -0.2940 -0.3243
19241TIP3    H179214   3.093   5.528   5.444 -1.2722 -0.4132  0.8115
19241TIP3    H279215   3.194   5.420   5.410 -0.5704  1.1387 -2.3858
19242TIP3   OH279216   4.010   3.382   5.612  0.1086  0.2257  0.3362
19242TIP3    H179217   4.014   3.287   5.599 -0.0130  0.3206 -0.4225
19242TIP3    H279218   3.994   3.392   5.706  0.9023 -0.4903  0.5726
19243TIP3   OH279219   2.533   2.839  14.315  0.3605  0.2849 -0.7588
19243TIP3    H179220   2.499   2.763  14.267 -0.3914  0.6764 -0.8610
19243TIP3    H279221   2.622   2.813  14.340 -0.3089 -1.1205  0.2945
19244TIP3   OH279222   1.800   3.738   5.964 -0.7461  0.4094 -0.2289
19244TIP3    H179223   1.740   3.796   6.012 -1.3182  1.6121 -2.2742
19244TIP3    H279224   1.879   3.789   5.953 -1.7682  1.5394 -3.3477
19245TIP3   OH279225   2.659   5.269  16.811 -0.5622  0.2123 -0.0968
19245TIP3    H179226   2.670   5.199  16.747  0.4211  0.2939 -0.0311
19245TIP3    H279227   2.666   5.226  16.896  1.8148  0.5798 -0.0291
19246TIP3   OH279228   6.358   0.984  16.366  0.1554 -0.0326 -0.6475
19246TIP3    H179229   6.445   0.958  16.399 -0.0784  1.4774  1.3873
19246TIP3    H279230   6.300   0.972  16.442 -0.8188  1.7748 -1.0604
19247TIP3   OH279231   2.058   6.043  10.990  0.3349  0.0795  0.2115
19247TIP3    H179232   1.997   6.022  10.920 -1.1659  3.5185  0.2786
19247TIP3    H279233   2.015   6.012  11.070 -0.1484  0.2189  0.0096
19248TIP3   OH279234   5.915   2.645   5.332 -0.0746 -0.1487  0.0924
19248TIP3    H179235   5.905   2.731   5.291  1.2592  0.2624  0.5819
19248TIP3    H279236   6.009   2.638   5.351  0.5638 -3.1992 -3.1786
19249TIP3   OH279237   1.706   5.213  15.602  0.3299 -0.2501 -0.1994
19249TIP3    H179238   1.622   5.176  15.575 -0.7438  1.8225  0.1246
19249TIP3    H279239   1.728   5.167  15.683 -1.4083  0.3785  0.6790
19250TIP3   OH279240   4.803   0.257   0.891 -0.4046 -0.3965 -0.2113
19250TIP3    H179241   4.713   0.253   0.922 -0.5869 -0.2025 -0.7076
19250TIP3    H279242   4.826   0.350   0.895 -1.2771  0.0344 -2.9865
19251TIP3   OH279243   4.353   3.131   5.492  0.0214  0.1401 -0.4356
19251TIP3    H179244   4.294   3.106   5.421 -0.3893 -0.5819  0.1415
19251TIP3    H279245   4.427   3.072   5.484  0.6095  0.9480 -1.0685
19252TIP3   OH279246   5.250   0.245  12.978  0.7578  0.3221  0.0322
19252TIP3    H179247   5.232   0.152  12.965 -1.1998  0.6887 -0.2108
19252TIP3    H279248   5.295   0.250  13.062 -1.9116 -0.6331  1.6500
19253TIP3   OH279249   5.052   5.872  14.357 -0.1903 -0.0308  0.2937
19253TIP3    H179250   4.973   5.926  14.354  0.9394  1.6534 -1.4489
19253TIP3    H279251   5.106   5.912  14.426 -0.9208 -1.3821  1.7178
19254TIP3   OH279252   3.613   6.069  15.266 -0.0292 -0.7013  0.1023
19254TIP3    H179253   3.650   6.065  15.354 -1.1452  1.1332  0.6992
19254TIP3    H279254   3.518   6.067  15.280 -0.2190 -0.9488 -1.1141
19255TIP3   OH279255   3.708   3.605  16.508  0.0000 -0.2705 -0.5331
19255TIP3    H179256   3.632   3.637  16.555 -0.7144 -0.1489 -1.7404
19255TIP3    H279257   3.759   3.684  16.489  0.0784 -0.2735 -0.3398
19256TIP3   OH279258   1.408   1.422   1.591 -0.0601  0.3010  0.1444
19256TIP3    H179259   1.453   1.465   1.664  2.2432  0.5133 -1.2893
19256TIP3    H279260   1.394   1.333   1.622 -1.5649  1.0409  1.7919
19257TIP3   OH279261   6.478   2.471  16.212  0.1856 -0.0882 -0.1115
19257TIP3    H179262   6.388   2.469  16.179  0.3011  0.1229 -0.4490
19257TIP3    H279263   6.510   2.382  16.199  0.2555  0.0083 -0.6516
19258TIP3   OH279264   5.860   5.168  16.799 -0.0613  0.4800 -0.0639
19258TIP3    H179265   5.943   5.175  16.752 -0.4535 -0.9324 -1.0509
19258TIP3    H279266   5.810   5.245  16.772  1.0168  1.5172  0.7930
19259TIP3   OH279267   1.166   0.982   0.604  0.6009  0.5683  0.0605
19259TIP3    H179268   1.261   0.997   0.608  0.4892  1.6014 -0.9427
19259TIP3    H279269   1.127   1.069   0.612 -0.3267  0.0527  1.5743
19260TIP3   OH279270   5.319   1.294   0.266 -0.5592 -0.2755 -0.2533
19260TIP3    H179271   5.276   1.215   0.234 -1.5560  0.4504 -0.7680
19260TIP3    H279272   5.360   1.332   0.189 -1.2695  0.4251 -0.3062
19261TIP3   OH279273   6.345   2.642   2.959  0.0572 -0.0833 -0.3571
19261TIP3    H179274   6.362   2.548   2.965  0.8600 -0.0129 -1.2647
19261TIP3    H279275   6.399   2.681   3.027  0.3750 -0.2050 -0.5415
19262TIP3   OH279276   2.665   2.000  10.659  0.2061  0.0234  0.2524
19262TIP3    H179277   2.746   2.019  10.611 -1.0745 -1.5778 -2.8554
19262TIP3    H279278   2.694   1.956  10.739  2.4387  0.9919  0.0583
19263TIP3   OH279279   2.053   4.586  16.295  0.1308  0.4649  0.0171
19263TIP3    H179280   1.998   4.516  16.331 -1.1785  1.6677  0.4475
19263TIP3    H279281   2.006   4.667  16.316  1.3804  1.4601 -0.8555
19264TIP3   OH279282   5.110   4.240   2.486  0.1681 -0.0859  0.0452
19264TIP3    H179283   5.051   4.223   2.559 -0.4157 -0.6995 -0.5599
19264TIP3    H279284   5.188   4.278   2.527 -1.2473  2.2937  0.6899
19265TIP3   OH279285   5.625   2.657  16.000  0.3686  0.3623  0.5180
19265TIP3    H179286   5.680   2.711  16.058  0.0312  0.7731  0.4633
19265TIP3    H279287   5.588   2.720  15.938  0.7900 -0.0874 -0.1984
19266TIP3   OH279288   4.430   1.833   0.283 -0.1385  0.6357 -0.1853
19266TIP3    H179289   4.458   1.920   0.255 -1.4002  1.0112 -0.3432
19266TIP3    H279290   4.392   1.846   0.370 -0.2827  0.2367 -0.1835
19267TIP3   OH279291   2.693   3.419  14.612 -0.1441 -0.2901 -0.0081
19267TIP3    H179292   2.775   3.390  14.651 -0.2439 -1.1291 -0.4044
19267TIP3    H279293   2.656   3.340  14.573 -0.1891  0.4671 -1.5488
19268TIP3   OH279294   1.558   3.110   4.090 -0.2219  0.9045  0.0481
19268TIP3    H179295   1.613   3.142   4.161 -2.0547  3.1972  0.5487
19268TIP3    H279296   1.591   3.154   4.012  1.0132 -0.6808 -0.3770
19269TIP3   OH279297   4.194   3.297   4.568 -0.2810 -0.4368 -0.1559
19269TIP3    H179298   4.178   3.204   4.585 -1.2048  0.1234  2.5749
19269TIP3    H279299   4.126   3.322   4.505 -2.1944 -0.9247  1.6260
19270TIP3   OH279300   6.194   0.169  11.791  0.4411 -0.2323  0.0163
19270TIP3    H179301   6.279   0.125  11.800  1.4016  1.8438  2.3505
19270TIP3    H279302   6.142   0.135  11.864  0.6604  1.2152  0.8949
19271TIP3   OH279303   5.782   3.477   1.309  0.2203  0.0248  0.4533
19271TIP3    H179304   5.732   3.524   1.242  0.6762 -0.0286  0.0745
19271TIP3    H279305   5.758   3.521   1.391  0.5026  0.8022  0.1250
19272TIP3   OH279306   4.704   5.155   1.655  0.3006 -0.2069 -0.1380
19272TIP3    H179307   4.742   5.212   1.721 -0.3539  0.6025 -0.4287
19272TIP3    H279308   4.764   5.081   1.648 -0.3677 -1.0896  2.4269
19273TIP3   OH279309   2.071   4.286   1.752  0.2737  0.1520 -0.3706
19273TIP3    H179310   2.004   4.280   1.684  0.8924 -0.8398 -0.9088
19273TIP3    H279311   2.083   4.380   1.765 -0.8519  0.3491 -0.6236
19274TIP3   OH279312   0.321   4.506  11.170 -0.2667  0.5092  0.6897
19274TIP3    H179313   0.340   4.595  11.139 -0.8067  0.9690  1.6065
19274TIP3    H279314   0.231   4.512  11.203 -0.8280 -0.7585 -0.5497
19275TIP3   OH279315   3.702   4.684  11.702 -0.2087 -0.4942 -0.5553
19275TIP3    H179316   3.639   4.622  11.739 -1.9179  0.2001 -2.1600
19275TIP3    H279317   3.726   4.646  11.618  2.3501 -1.2166  0.4005
19276TIP3   OH279318   6.548   3.088  14.232 -0.2868  0.8052 -0.5740
19276TIP3    H179319   6.573   3.176  14.205 -0.6086  1.7787  1.9846
19276TIP3    H279320   6.458   3.078  14.202  0.3894  0.4799 -2.6667
19277TIP3   OH279321   0.591   4.040  12.770  0.1959  0.2814 -0.3560
19277TIP3    H179322   0.516   4.054  12.827  1.2686 -1.5639  1.6511
19277TIP3    H279323   0.562   3.973  12.708 -0.5214  1.2712 -1.1200
19278TIP3   OH279324   4.916   6.332   2.604  0.1342 -0.2068  0.1032
19278TIP3    H179325   5.001   6.371   2.583  0.0463 -0.3475 -0.5357
19278TIP3    H279326   4.932   6.281   2.683  0.7646 -0.6095 -0.2678
19279TIP3   OH279327   4.827   4.402  12.773 -0.0933 -0.1999  0.1712
19279TIP3    H179328   4.858   4.394  12.863  1.3367  0.5753 -0.2201
19279TIP3    H279329   4.882   4.471  12.734  0.5444 -1.7109 -1.7853
19280TIP3   OH279330   3.624   3.327  16.693 -0.0951  0.2882 -0.1817
19280TIP3    H179331   3.696   3.389  16.709 -1.4496  1.3616  2.3081
19280TIP3    H279332   3.640   3.255  16.755 -0.6522  0.0772 -0.2756
19281TIP3   OH279333   0.764   3.312  14.577 -0.3451 -0.1480  0.7243
19281TIP3    H179334   0.782   3.277  14.490 -2.0110 -0.0047  0.2788
19281TIP3    H279335   0.816   3.392  14.582 -0.1001 -0.2456 -0.0795
19282TIP3   OH279336   3.154   3.024  15.776  0.1110 -0.3916  0.2277
19282TIP3    H179337   3.072   2.992  15.814 -0.1432 -0.5205 -0.4147
19282TIP3    H279338   3.133   3.042  15.685  0.3938  1.1405  0.4473
19283TIP3   OH279339   1.309   6.208  14.334  0.5141 -0.0808 -0.0092
19283TIP3    H179340   1.239   6.161  14.288 -0.2852  0.3262  0.7610
19283TIP3    H279341   1.390   6.178  14.292  0.0383 -2.2074  0.4822
19284TIP3   OH279342   5.882   2.694   3.519  0.8462  0.1362  0.2888
19284TIP3    H179343   5.950   2.694   3.586  0.0455  0.2455  1.1098
19284TIP3    H279344   5.866   2.602   3.500  0.6394  0.0899  0.6912
19285TIP3   OH279345   3.474   3.953  17.100  0.1862  0.0089 -0.1503
19285TIP3    H179346   3.545   3.933  17.040  1.0796  0.0454  0.8754
19285TIP3    H279347   3.516   3.988  17.178 -0.9527  0.0473  0.4800
19286TIP3   OH279348   3.074   4.732   4.729 -0.1643  0.1401 -0.4965
19286TIP3    H179349   3.090   4.757   4.820  0.7303 -0.7947 -0.3683
19286TIP3    H279350   3.142   4.778   4.679 -0.6073  0.5924 -0.6907
19287TIP3   OH279351   3.311   6.238  13.022  0.4594 -0.1146  0.1326
19287TIP3    H179352   3.275   6.155  12.991 -1.3628  1.5292 -2.5648
19287TIP3    H279353   3.404   6.235  12.997  0.4511 -1.3862  0.2042
19288TIP3   OH279354   0.384   2.514   5.761  0.9021 -0.5091 -0.2943
19288TIP3    H179355   0.300   2.529   5.717  0.0149 -0.5762  1.3082
19288TIP3    H279356   0.422   2.602   5.768  0.3012 -0.2804  0.2319
19289TIP3   OH279357   4.521   0.251  15.970 -0.5783  0.2124 -0.0009
19289TIP3    H179358   4.460   0.323  15.951  0.8950  1.8633  1.1568
19289TIP3    H279359   4.516   0.240  16.065 -0.0169 -0.5051 -0.0492
19290TIP3   OH279360   6.680   1.557   5.666  0.1545 -0.0618 -0.0409
19290TIP3    H179361   6.661   1.508   5.746  1.9592 -0.4879  0.1799
19290TIP3    H279362   6.709   1.490   5.604  0.8207  0.4897 -0.3402
19291TIP3   OH279363   6.607   2.382  12.726 -0.2842  0.2104 -0.0914
19291TIP3    H179364   6.615   2.323  12.802 -0.5554 -1.2233 -1.1256
19291TIP3    H279365   6.604   2.469  12.764  1.4319 -0.3254  1.4563
19292TIP3   OH279366   4.901   2.873  15.460 -0.2412 -0.0864 -0.1255
19292TIP3    H179367   4.818   2.873  15.413 -0.1477 -1.3376 -0.3006
19292TIP3    H279368   4.877   2.863  15.552 -0.4200  2.3018  0.1620
19293TIP3   OH279369   2.391   1.011  15.918 -0.0955 -0.5114  0.1707
19293TIP3    H179370   2.461   1.041  15.859 -1.3948  0.4009 -0.9633
19293TIP3    H279371   2.380   0.918  15.895  0.3788 -0.5250 -0.0235
19294TIP3   OH279372   6.500   1.665  12.680 -0.1793 -0.2634  0.3064
19294TIP3    H179373   6.474   1.752  12.650 -0.1253  0.8546  3.1748
19294TIP3    H279374   6.481   1.666  12.774  0.2241 -3.2288  0.5025
19295TIP3   OH279375   2.664   4.376   4.121 -0.3241  0.8424 -0.2802
19295TIP3    H179376   2.737   4.374   4.183 -0.5981 -1.7568  0.0805
19295TIP3    H279377   2.703   4.356   4.036 -0.1943  2.7498 -0.7115
19296TIP3   OH279378   0.005   3.329  14.145  0.1354 -0.5404 -0.1490
19296TIP3    H179379   0.080   3.388  14.158 -1.0269  1.3231 -1.5285
19296TIP3    H279380  -0.044   3.334  14.227 -1.0189  2.0967 -0.8986
19297TIP3   OH279381   5.191   0.644   0.012  0.2132  0.0308  0.8066
19297TIP3    H179382   5.283   0.648   0.039  0.6956  0.6967 -0.8320
19297TIP3    H279383   5.177   0.723  -0.039 -0.5292 -1.2604 -1.1216
19298TIP3   OH279384   2.927   6.292  14.618  0.4444  0.0425  0.0348
19298TIP3    H179385   2.928   6.367  14.678  1.8395 -0.5418  0.7821
19298TIP3    H279386   2.914   6.216  14.674 -0.1024 -0.3562 -0.6248
19299TIP3   OH279387   4.099   1.426   4.671  0.2674 -0.1736 -0.3183
19299TIP3    H179388   4.030   1.415   4.737  0.1399  1.6015 -0.0882
19299TIP3    H279389   4.063   1.490   4.610  0.7937 -1.0303 -1.5558
19300TIP3   OH279390   6.121   5.739   2.907  0.2117  0.6647  0.4273
19300TIP3    H179391   6.074   5.743   2.990  0.3648  1.4718  0.4868
19300TIP3    H279392   6.099   5.821   2.863  0.5454  0.4770 -0.1025
19301TIP3   OH279393   3.458   1.592   4.251 -0.0315 -0.1979  0.2726
19301TIP3    H179394   3.420   1.673   4.218  0.4478  0.2993  0.8936
19301TIP3    H279395   3.395   1.561   4.317 -0.9096 -1.1058 -0.9646
19302TIP3   OH279396   6.398   0.697  12.285 -0.1897 -0.0723 -0.1037
19302TIP3    H179397   6.397   0.712  12.379  1.5877  0.0257 -0.0498
19302TIP3    H279398   6.365   0.779  12.247 -4.4698 -1.3378  0.4080
19303TIP3   OH279399   2.091   1.345   0.893  0.6684 -0.0964  0.2182
19303TIP3    H179400   2.013   1.394   0.867  2.1122  1.6479 -1.0195
19303TIP3    H279401   2.065   1.301   0.974 -1.7076  0.1166 -0.3480
19304TIP3   OH279402   5.852   4.148   0.152 -0.2145  0.3102  0.4601
19304TIP3    H179403   5.947   4.156   0.157 -0.0934 -0.6388 -0.0196
19304TIP3    H279404   5.825   4.127   0.241  0.1596 -0.6247  0.3611
19305TIP3   OH279405   3.977   2.722  17.048  0.1532  0.7040 -0.3757
19305TIP3    H179406   3.930   2.804  17.033 -1.6501 -0.0842  0.6529
19305TIP3    H279407   3.909   2.659  17.071  1.4363 -1.2098 -1.5086
19306TIP3   OH279408   5.062   0.206  14.191 -0.2194  0.3593 -0.5663
19306TIP3    H179409   5.113   0.132  14.225 -3.0938 -0.5379  2.2283
19306TIP3    H279410   5.083   0.279  14.249 -1.4311  0.2169  0.0643
19307TIP3   OH279411   3.155   1.906   4.356  0.0060  0.1093 -0.0632
19307TIP3    H179412   3.238   1.953   4.350 -1.3714  2.9539  1.2037
19307TIP3    H279413   3.130   1.913   4.448 -1.5934 -0.7406 -0.3942
19308TIP3   OH279414   4.836   2.763   3.939  0.8768  0.1311  0.1150
19308TIP3    H179415   4.765   2.701   3.952  0.3609  0.7028  0.1093
19308TIP3    H279416   4.824   2.829   4.008  2.9011 -1.0696  1.7410
19309TIP3   OH279417   1.649   2.470  13.095 -0.1255  0.4129  0.1476
19309TIP3    H179418   1.598   2.542  13.060 -2.2803 -0.4982  1.2255
19309TIP3    H279419   1.723   2.462  13.035 -0.0488  3.1729 -0.2540
19310TIP3   OH279420   5.101   4.949  14.417  0.4762  0.6789  0.2620
19310TIP3    H179421   5.026   4.890  14.425  0.5529  0.5960  0.3755
19310TIP3    H279422   5.156   4.928  14.492 -0.0100  1.6361  0.9236
19311TIP3   OH279423   0.305   5.717  13.024  0.0217  0.5740  0.7181
19311TIP3    H179424   0.272   5.806  13.031 -1.4405  0.0076  1.5623
19311TIP3    H279425   0.398   5.727  13.007  0.0006  2.2573  1.4116
19312TIP3   OH279426   0.427   6.788   3.570 -0.3958  0.5272 -0.0611
19312TIP3    H179427   0.407   6.763   3.660 -0.9729  0.0426 -0.3218
19312TIP3    H279428   0.428   6.705   3.521  0.2886  0.7436 -0.4343
19313TIP3   OH279429   6.290   6.089   4.614 -0.5132 -0.0058 -0.2537
19313TIP3    H179430   6.385   6.085   4.610 -0.5717 -0.8278 -1.7883
19313TIP3    H279431   6.270   6.181   4.628  0.5180  0.5434 -2.0207
19314TIP3   OH279432   5.190   3.025   5.440  0.0658  0.3422 -0.2312
19314TIP3    H179433   5.268   3.016   5.495 -0.1867  0.8014  0.2112
19314TIP3    H279434   5.208   2.970   5.364  0.3151 -0.5134  0.4299
19315TIP3   OH279435   4.682   6.099  16.327  0.3217  0.2710  0.0168
19315TIP3    H179436   4.663   6.078  16.236  1.0971 -0.0854 -0.0731
19315TIP3    H279437   4.754   6.162  16.323 -1.4547  2.4456  0.3098
19316TIP3   OH279438   3.844   5.297   0.500 -0.4720  0.8276 -0.0969
19316TIP3    H179439   3.910   5.264   0.562 -1.9481 -0.7635  0.7332
19316TIP3    H279440   3.760   5.277   0.543 -1.6201 -1.3923 -3.0229
19317TIP3   OH279441   6.479   2.189  15.915 -0.3234 -0.1206  0.0548
19317TIP3    H179442   6.493   2.262  15.854 -0.7784  0.9102  1.1499
19317TIP3    H279443   6.467   2.113  15.859  1.0726  0.4639 -1.1113
19318TIP3   OH279444   4.236   0.524   0.430 -1.3583  0.2087 -0.4952
19318TIP3    H179445   4.281   0.574   0.362 -2.2536  0.0497 -1.2151
19318TIP3    H279446   4.188   0.589   0.481  0.3517  0.4994  0.8535
19319TIP3   OH279447   6.743   1.513  12.718  0.2902  0.0204 -0.7097
19319TIP3    H179448   6.710   1.484  12.632 -1.8998 -0.3454  0.1819
19319TIP3    H279449   6.699   1.596  12.733  0.0538 -0.2862  0.3588
19320TIP3   OH279450   4.400   5.042   1.482 -0.0906  0.6268 -0.1775
19320TIP3    H179451   4.353   5.021   1.562 -0.9874  1.2625 -0.5205
19320TIP3    H279452   4.342   5.014   1.411  0.4176  0.6349 -0.6083
19321TIP3   OH279453   3.612   3.724  13.174 -0.3649 -0.1059  0.2633
19321TIP3    H179454   3.632   3.728  13.080  3.1780 -1.6136  0.7816
19321TIP3    H279455   3.636   3.635  13.200  0.4943  0.7736  2.8712
19322TIP3   OH279456   6.340   5.479   2.504  0.1951 -0.3795 -0.1553
19322TIP3    H179457   6.362   5.462   2.596  0.4768 -0.9163 -0.3165
19322TIP3    H279458   6.255   5.435   2.492 -0.6413  1.0531  0.2660
19323TIP3   OH279459   2.372   0.105   1.182 -0.1314  0.3068 -0.6165
19323TIP3    H179460   2.402   0.176   1.239 -2.4284 -0.4712  1.7534
19323TIP3    H279461   2.338   0.150   1.105 -0.3735  1.7068  0.2594
19324TIP3   OH279462   2.660   4.983  10.422 -0.0083 -0.3899  0.2350
19324TIP3    H179463   2.685   4.967  10.331  1.4814  1.2923  0.3066
19324TIP3    H279464   2.604   4.908  10.445  1.2624 -1.9090 -1.3949
19325TIP3   OH279465   5.566   3.859  15.970  0.1969 -0.1443 -0.3133
19325TIP3    H179466   5.501   3.882  16.036  0.1050  1.7579 -1.0200
19325TIP3    H279467   5.520   3.872  15.887  0.0712 -3.1581 -0.8572
19326TIP3   OH279468   6.859   1.297   3.825 -0.2689 -0.6198 -0.3061
19326TIP3    H179469   6.935   1.349   3.851 -1.6561  0.7346  1.2864
19326TIP3    H279470   6.896   1.218   3.786  1.9467 -0.0326  0.4676
19327TIP3   OH279471   3.551   5.670  12.280 -0.2562 -0.0830  0.7163
19327TIP3    H179472   3.557   5.694  12.188  2.4996 -2.6974  0.0334
19327TIP3    H279473   3.461   5.637  12.290 -0.9642  1.2654 -0.6766
19328TIP3   OH279474   0.033   0.898  15.749 -0.2197 -0.2784  0.2712
19328TIP3    H179475   0.095   0.963  15.783  0.3663 -1.3790  1.3914
19328TIP3    H279476   0.085   0.845  15.688  0.7223 -2.6791  2.9158
19329TIP3   OH279477   6.000   0.285   5.789 -0.6261 -0.2070  0.3988
19329TIP3    H179478   6.006   0.221   5.718  1.1023  1.3851 -1.0016
19329TIP3    H279479   6.090   0.314   5.803 -1.4602  2.9633 -0.0912
19330TIP3   OH279480   6.248   6.391  14.093 -0.2204  0.0414 -0.4990
19330TIP3    H179481   6.166   6.371  14.047  0.4321 -0.4850 -1.4801
19330TIP3    H279482   6.316   6.356  14.035  0.8083  2.1041 -0.6142
19331TIP3   OH279483   2.200   2.981   1.303  0.0388  0.2600  0.0303
19331TIP3    H179484   2.288   3.018   1.306  0.1994 -0.1657  1.1666
19331TIP3    H279485   2.212   2.895   1.263  0.5166 -0.6883  2.0860
19332TIP3   OH279486   6.850   3.928   2.961 -0.1214  0.0523  0.1937
19332TIP3    H179487   6.773   3.984   2.955 -0.4759 -0.5791 -2.9674
19332TIP3    H279488   6.918   3.975   2.912 -0.0975 -1.6681 -1.5459
19333TIP3   OH279489   1.153   0.508   3.060  0.0669 -0.7901 -0.1868
19333TIP3    H179490   1.065   0.519   3.095  0.1171  1.0730 -0.5332
19333TIP3    H279491   1.189   0.597   3.058  1.5422 -1.3699 -1.1306
19334TIP3   OH279492   3.747   5.965   2.054 -0.1943 -0.2343  0.1099
19334TIP3    H179493   3.742   5.877   2.017 -0.7947  0.9359 -2.9468
19334TIP3    H279494   3.659   5.981   2.088  0.3066 -1.2609  2.0107
19335TIP3   OH279495   6.564   6.798  14.861  0.3215  0.4622  0.5690
19335TIP3    H179496   6.505   6.789  14.935 -1.4870  0.3875 -0.8075
19335TIP3    H279497   6.546   6.885  14.826 -1.7427 -0.8645 -2.0322
19336TIP3   OH279498   3.562   3.717  13.942  0.2296  0.0334 -0.2956
19336TIP3    H179499   3.641   3.740  13.990 -0.4639  0.6700  0.5776
19336TIP3    H279500   3.517   3.655  13.999 -0.3173  0.3454 -0.3802
19337TIP3   OH279501   5.501   1.316   0.926  0.3589  0.0376  0.2922
19337TIP3    H179502   5.539   1.363   0.852  0.8499 -1.6002 -0.5527
19337TIP3    H279503   5.429   1.371   0.955  0.0632  0.6712 -1.4966
19338TIP3   OH279504   3.555   0.559   4.959  0.1548  0.4848 -0.6227
19338TIP3    H179505   3.640   0.590   4.991  0.0954 -0.1928  0.2410
19338TIP3    H279506   3.569   0.466   4.941 -1.0725 -0.3310  2.1658
19339TIP3   OH279507   4.645   5.803  13.786  0.0014  0.8386  0.0253
19339TIP3    H179508   4.576   5.867  13.801  1.1553  1.7607  1.7844
19339TIP3    H279509   4.624   5.764  13.702 -1.4390  2.6382 -0.5064
19340TIP3   OH279510   1.901   1.091   2.844  0.4481  0.8740 -0.0651
19340TIP3    H179511   1.874   1.079   2.753  2.5727 -0.9912 -0.5259
19340TIP3    H279512   1.847   1.030   2.894 -0.7447  1.9246 -0.0133
19341TIP3   OH279513   1.824   0.899   2.199 -0.8145 -0.0578  0.0204
19341TIP3    H179514   1.762   0.968   2.175 -0.8836 -0.6815 -1.7393
19341TIP3    H279515   1.890   0.944   2.252 -0.7630  1.4214 -1.2029
19342TIP3   OH279516   4.168   5.240   1.037  0.3485 -0.1573  0.1400
19342TIP3    H179517   4.251   5.256   1.081  1.0059  0.2184 -1.1872
19342TIP3    H279518   4.190   5.183   0.963 -0.7366 -0.8773  0.3420
19343TIP3   OH279519   2.528   6.295  13.895  0.0638  0.8612  0.3938
19343TIP3    H179520   2.603   6.332  13.941  0.7949 -0.2500  0.1384
19343TIP3    H279521   2.481   6.245  13.962 -0.2629  1.2743  0.4768
19344TIP3   OH279522   1.749   6.423  15.346  0.0121 -0.0793 -0.5570
19344TIP3    H179523   1.755   6.346  15.402  0.9903  1.4801  1.6600
19344TIP3    H279524   1.795   6.398  15.266 -1.6496 -2.4837 -0.8674
19345TIP3   OH279525   3.029   0.296  12.122  0.6867  0.3210 -0.7672
19345TIP3    H179526   3.062   0.373  12.168  0.4628  0.5375 -0.9702
19345TIP3    H279527   2.947   0.325  12.082 -0.1777 -0.4279  0.3983
19346TIP3   OH279528   0.263   3.436   4.691  0.3841  0.0127  0.3596
19346TIP3    H179529   0.182   3.440   4.740 -1.5639  0.4781 -2.6424
19346TIP3    H279530   0.313   3.366   4.733 -1.3203  0.0252  2.5821
19347TIP3   OH279531   0.971   2.828  13.827  0.2429  0.2556  0.4977
19347TIP3    H179532   0.889   2.780  13.834  0.8558 -0.7608  1.0219
19347TIP3    H279533   0.997   2.817  13.735 -0.9391  1.8665 -0.0546
19348TIP3   OH279534   2.590   1.397  11.901  0.5504 -0.1378 -0.0134
19348TIP3    H179535   2.662   1.363  11.955 -0.6963 -1.8443  0.6673
19348TIP3    H279536   2.511   1.366  11.944 -0.7278  2.9942  0.1224
19349TIP3   OH279537   6.184   4.731   4.670 -0.4028 -0.1609  0.0894
19349TIP3    H179538   6.236   4.799   4.627  1.0836 -0.5457  1.1832
19349TIP3    H279539   6.140   4.778   4.742 -1.2900  0.0881 -0.6006
19350TIP3   OH279540   2.186   5.918   4.439 -0.2757 -0.3426 -0.0284
19350TIP3    H179541   2.249   5.990   4.432  0.2512 -0.6581  1.1301
19350TIP3    H279542   2.237   5.845   4.476 -1.1060 -0.8852  0.0718
19351TIP3   OH279543   4.831   6.551  14.511  0.5193 -0.6450  0.3754
19351TIP3    H179544   4.846   6.587  14.598 -1.1233 -1.1317  0.8998
19351TIP3    H279545   4.739   6.569  14.493  0.8062 -0.6351 -1.2362
19352TIP3   OH279546   3.863   0.790  14.459 -0.0328 -0.1376 -0.1816
19352TIP3    H179547   3.878   0.702  14.494 -2.1202  0.0943  1.5519
19352TIP3    H279548   3.937   0.842  14.490  1.3320 -1.2915 -1.4031
19353TIP3   OH279549   0.405   0.873  12.019 -0.0878  0.8575  0.1378
19353TIP3    H179550   0.381   0.842  11.931  2.6075 -0.9878 -0.0534
19353TIP3    H279551   0.457   0.952  12.003  0.0339  0.7717  0.1125
19354TIP3   OH279552   1.533   4.306   3.563  0.5074 -0.2882 -0.4619
19354TIP3    H179553   1.513   4.348   3.479  1.4884  0.2467 -0.4461
19354TIP3    H279554   1.566   4.377   3.618  2.6931 -1.1357 -0.5931
19355TIP3   OH279555   4.844   2.475  13.030 -0.2069 -0.0065 -0.0080
19355TIP3    H179556   4.796   2.456  12.950  0.4307 -3.0646  0.2011
19355TIP3    H279557   4.780   2.516  13.088 -1.4951 -0.4599 -1.0637
19356TIP3   OH279558   3.352   3.187   4.558  0.5697 -0.0772  0.3482
19356TIP3    H179559   3.265   3.150   4.543 -0.7594  3.1595 -0.9305
19356TIP3    H279560   3.410   3.112   4.559 -2.1752 -2.3864  1.0822
19357TIP3   OH279561   4.191   4.569   3.439  0.2399 -0.0800  0.4103
19357TIP3    H179562   4.271   4.569   3.385 -0.0212  0.1433  0.0159
19357TIP3    H279563   4.158   4.480   3.433 -0.8611  0.3827 -1.4430
19358TIP3   OH279564   1.802   4.648  16.016 -0.0948  0.6639  0.2324
19358TIP3    H179565   1.808   4.686  15.929 -1.2747  0.5697  0.0857
19358TIP3    H279566   1.784   4.723  16.074  1.5300  0.8438  0.5346
19359TIP3   OH279567   5.372   5.241   0.425 -0.1339  0.7539  0.3509
19359TIP3    H179568   5.457   5.284   0.414 -0.1838  1.6241  2.7513
19359TIP3    H279569   5.309   5.313   0.430 -1.0986  0.1143 -1.5576
19360TIP3   OH279570   0.531   6.452   5.755 -0.5258  0.3724 -0.0420
19360TIP3    H179571   0.507   6.423   5.668 -0.6065  1.9296 -0.5652
19360TIP3    H279572   0.544   6.371   5.805  2.0186 -0.6548 -2.1314
19361TIP3   OH279573   5.838   0.534  14.850  0.5370  0.9961  0.0812
19361TIP3    H179574   5.906   0.541  14.917 -0.4901  1.6052  1.1113
19361TIP3    H279575   5.840   0.443  14.823 -0.3933  0.1870  2.4801
19362TIP3   OH279576   2.247   1.220   5.753  0.6836  0.5616  0.4786
19362TIP3    H179577   2.295   1.183   5.827 -0.4700  1.7552  1.9004
19362TIP3    H279578   2.297   1.297   5.727 -0.0591  1.4478  1.5536
19363TIP3   OH279579   1.635   6.275   4.570  0.2586  0.7514  0.2128
19363TIP3    H179580   1.686   6.279   4.488  0.1550  2.5815  0.1961
19363TIP3    H279581   1.701   6.278   4.639  0.2661  1.0664  0.1926
19364TIP3   OH279582   6.854   3.483   3.502 -0.2587 -0.2382  0.0186
19364TIP3    H179583   6.889   3.396   3.522 -0.5852 -0.2648  0.4784
19364TIP3    H279584   6.898   3.541   3.564  1.6591  0.2993 -1.7245
19365TIP3   OH279585   2.531   4.546   2.905  0.5244 -0.0812 -0.1553
19365TIP3    H179586   2.502   4.478   2.966 -1.7196 -0.4639 -1.5219
19365TIP3    H279587   2.542   4.500   2.822 -0.7798  1.1421 -1.0507
19366TIP3   OH279588   1.219   3.174   0.384  0.5595 -0.9364  0.0809
19366TIP3    H179589   1.192   3.181   0.292  0.0727  0.4856  0.3108
19366TIP3    H279590   1.310   3.202   0.384 -0.0073  1.0169  0.2936
19367TIP3   OH279591   5.848   3.370  16.254  0.2872  0.2221 -0.1783
19367TIP3    H179592   5.785   3.395  16.322  1.4336  0.1725  0.9364
19367TIP3    H279593   5.821   3.282  16.228 -0.9324  0.7305 -0.7454
19368TIP3   OH279594   6.358   4.017  14.178 -0.4632  0.1600 -0.3589
19368TIP3    H179595   6.362   4.111  14.195 -1.5882  0.2608 -0.5673
19368TIP3    H279596   6.297   4.008  14.104  2.3403 -0.4544 -2.7610
19369TIP3   OH279597   1.690   5.925   0.691  0.0750  0.4321  0.2165
19369TIP3    H179598   1.686   5.853   0.754 -1.0749 -0.1678 -0.4954
19369TIP3    H279599   1.623   5.903   0.625 -0.1237  2.0194 -0.1620
19370TIP3   OH279600   6.662   4.466  14.936  0.3112 -0.3055 -0.2444
19370TIP3    H179601   6.584   4.425  14.901 -0.3285  0.5372  0.1515
19370TIP3    H279602   6.710   4.395  14.980 -0.5532 -0.7059  0.0620
19371TIP3   OH279603   5.788   1.143   2.128 -0.2321 -0.2469  0.1731
19371TIP3    H179604   5.741   1.070   2.168  0.0109 -0.7487 -0.4399
19371TIP3    H279605   5.825   1.191   2.202 -0.5574 -0.6327  0.5907
19372TIP3   OH279606   1.195   1.685  14.698  1.1529 -0.1797  0.0728
19372TIP3    H179607   1.113   1.639  14.716 -0.1525  2.3234  0.9586
19372TIP3    H279608   1.256   1.616  14.675 -0.8455 -2.2729  0.6725
19373TIP3   OH279609   1.097   0.386   6.115  0.0286  0.4783 -0.1899
19373TIP3    H179610   1.129   0.319   6.054 -3.0831 -1.1421 -0.2391
19373TIP3    H279611   1.119   0.352   6.202  0.7224  0.6984 -0.2729
19374TIP3   OH279612   3.989   3.101   2.954 -0.0850  0.1658 -0.8136
19374TIP3    H179613   4.005   3.091   3.048  1.2149 -2.7894 -1.2148
19374TIP3    H279614   3.944   3.185   2.945  1.6666  1.5841  2.1986
19375TIP3   OH279615   4.817   0.699  13.134  0.1996  0.3464  0.3460
19375TIP3    H179616   4.753   0.627  13.137  0.2351  0.2202 -1.1365
19375TIP3    H279617   4.764   0.778  13.146 -0.8323  0.5056 -3.7128
19376TIP3   OH279618   3.342   2.254   4.377  0.1090  0.1566 -0.2486
19376TIP3    H179619   3.418   2.207   4.411 -1.0989 -2.5059 -0.9798
19376TIP3    H279620   3.288   2.272   4.454 -0.2659 -1.3705 -0.1222
19377TIP3   OH279621   2.288   6.431  16.446 -0.3345  0.0547 -0.5806
19377TIP3    H179622   2.331   6.500  16.497 -0.0364 -0.2878 -0.3650
19377TIP3    H279623   2.223   6.394  16.505  0.2006 -0.5287 -0.3470
19378TIP3   OH279624   0.003   1.763   5.759 -0.1003  0.0435  0.2518
19378TIP3    H179625   0.008   1.809   5.844 -1.0641  1.6019 -0.4930
19378TIP3    H279626  -0.079   1.715   5.762 -0.5190  0.7241 -0.0789
19379TIP3   OH279627   4.438   5.246   5.432  0.0746 -0.0507  0.7972
19379TIP3    H179628   4.429   5.304   5.507  0.3168 -0.6248  1.2758
19379TIP3    H279629   4.366   5.270   5.374 -0.5436 -0.0954  1.5402
19380TIP3   OH279630   2.997   1.122  15.828 -0.1175 -0.5765 -0.2001
19380TIP3    H179631   3.014   1.158  15.915  0.7627 -0.8712 -0.2345
19380TIP3    H279632   2.912   1.079  15.835 -1.2037  1.4422 -0.1413
19381TIP3   OH279633   2.260   5.203  14.761 -0.3352  0.0749 -0.4391
19381TIP3    H179634   2.241   5.110  14.765 -1.5826  0.3304  0.0589
19381TIP3    H279635   2.175   5.244  14.744 -0.0862  1.2310  0.9484
19382TIP3   OH279636   3.667   3.467  12.662 -0.3971  0.0500 -0.3864
19382TIP3    H179637   3.665   3.481  12.567  0.4649 -0.1922 -0.4486
19382TIP3    H279638   3.691   3.553  12.698  0.1665 -0.0819 -0.4471
19383TIP3   OH279639   3.558   3.531  13.543  0.2842 -0.2171 -0.2361
19383TIP3    H179640   3.468   3.526  13.576 -0.7198 -0.1040 -2.8043
19383TIP3    H279641   3.600   3.597  13.598 -1.9330  1.5876 -0.5761
19384TIP3   OH279642   1.854   4.297   4.755  0.5638 -0.0854 -0.2030
19384TIP3    H179643   1.911   4.221   4.756 -0.7714 -1.1346  1.0129
19384TIP3    H279644   1.811   4.294   4.669  0.3174 -0.8686 -0.0580
19385TIP3   OH279645   0.314   6.822   5.400 -0.2929  0.8793 -0.1788
19385TIP3    H179646   0.271   6.777   5.473  1.0916  2.6826  1.8554
19385TIP3    H279647   0.393   6.769   5.384 -0.3675  0.7279 -0.0556
19386TIP3   OH279648   1.770   0.629  12.018  0.0732  0.1564  0.0511
19386TIP3    H179649   1.680   0.621  11.986  0.0977  1.9031 -0.5484
19386TIP3    H279650   1.824   0.603  11.943  0.0799 -0.7071  0.3494
19387TIP3   OH279651   3.625   2.754   2.451  0.0394 -0.3869  0.3126
19387TIP3    H179652   3.618   2.673   2.502  2.2520 -1.2733 -0.6353
19387TIP3    H279653   3.718   2.760   2.429  0.1467  2.9588  1.1475
19388TIP3   OH279654   3.709   4.305   4.285 -0.7375  0.0645 -0.4872
19388TIP3    H179655   3.775   4.305   4.353  1.9151  0.6038 -2.8960
19388TIP3    H279656   3.649   4.234   4.310  0.9494 -0.7212  1.5766
19389TIP3   OH279657   3.830   5.192   3.652 -0.0615 -0.0854 -0.4286
19389TIP3    H179658   3.890   5.134   3.698 -0.1345 -0.1867 -0.4604
19389TIP3    H279659   3.803   5.256   3.718 -0.2547 -0.2975 -0.2983
19390TIP3   OH279660   6.761   2.787  15.829 -0.1485  0.7965 -0.6463
19390TIP3    H179661   6.842   2.764  15.873  0.5538  1.8086 -1.3664
19390TIP3    H279662   6.692   2.742  15.879  0.5752  2.0638  1.5789
19391TIP3   OH279663   4.629   1.046   4.926  0.0121 -0.4924  0.4971
19391TIP3    H179664   4.687   0.973   4.944 -0.3297 -0.7677  0.4975
19391TIP3    H279665   4.661   1.117   4.981 -0.6231 -1.1220  1.7287
19392TIP3   OH279666   6.694   2.841   4.953 -1.0198 -0.0780 -0.6351
19392TIP3    H179667   6.606   2.863   4.922 -0.1284  0.6986 -2.8290
19392TIP3    H279668   6.742   2.820   4.874  0.5047 -1.5853  0.6354
19393TIP3   OH279669   5.590   0.467  12.272 -0.3906 -0.0652  0.2537
19393TIP3    H179670   5.675   0.438  12.305  0.0639  1.6935  0.7381
19393TIP3    H279671   5.526   0.412  12.318  0.3813  0.2777  1.7857
19394TIP3   OH279672   1.672   6.300   2.397  0.4855 -0.8692  0.0400
19394TIP3    H179673   1.687   6.206   2.405  0.1327 -1.0430 -1.1502
19394TIP3    H279674   1.633   6.311   2.310  1.0684  0.4351 -0.0866
19395TIP3   OH279675   2.584   0.607   4.775 -0.1274  0.0509  0.6808
19395TIP3    H179676   2.570   0.666   4.701 -0.5923 -0.4075  0.3967
19395TIP3    H279677   2.669   0.631   4.810 -0.9336  1.9012  1.5014
19396TIP3   OH279678   0.322   5.462  16.239  0.5148  0.7944 -0.4461
19396TIP3    H179679   0.257   5.396  16.262  0.4965  0.6246 -0.9699
19396TIP3    H279680   0.271   5.539  16.216  0.5525  1.3731  1.2180
19397TIP3   OH279681   3.007   2.845   2.305 -0.1285 -0.0933  0.2371
19397TIP3    H179682   3.087   2.874   2.261  0.1103  0.2306  0.8715
19397TIP3    H279683   2.944   2.833   2.234 -0.1762  1.7642 -0.0968
19398TIP3   OH279684   6.382   3.100  11.865  0.4500 -0.6670 -0.2691
19398TIP3    H179685   6.335   3.029  11.822  0.7000 -0.7424 -0.4168
19398TIP3    H279686   6.349   3.180  11.824 -0.2975 -0.6499  0.3328
19399TIP3   OH279687   5.138   2.107  11.011 -0.3735 -0.1284  0.1549
19399TIP3    H179688   5.096   2.049  10.948 -0.6472 -0.1289  0.3387
19399TIP3    H279689   5.069   2.131  11.073 -0.2334  0.2817  0.1615
19400TIP3   OH279690   4.001   2.402  10.948  0.2537 -0.4340 -0.1216
19400TIP3    H179691   3.977   2.368  10.862 -0.1140  1.8941 -1.0253
19400TIP3    H279692   3.926   2.454  10.975  0.5606 -0.7549  1.4041
19401TIP3   OH279693   5.429   6.372  15.521  0.6144 -0.6608  0.1014
19401TIP3    H179694   5.440   6.442  15.585  2.8473 -0.8820  0.0433
19401TIP3    H279695   5.409   6.294  15.573  1.0714 -0.5654  0.4217
19402TIP3   OH279696   3.712   5.349  14.534 -0.9657 -0.5046 -0.0443
19402TIP3    H179697   3.630   5.394  14.513  0.1375  1.1702 -0.9842
19402TIP3    H279698   3.697   5.258  14.509 -2.0844  0.0390 -1.4793
19403TIP3   OH279699   0.060   0.420  16.790 -0.3338  0.0210  0.1159
19403TIP3    H179700   0.148   0.432  16.754  0.6599  1.0703  2.6596
19403TIP3    H279701   0.032   0.508  16.816 -2.8638 -0.0185 -1.9933
19404TIP3   OH279702   5.782   2.485  16.359  0.2515 -0.2533 -0.2525
19404TIP3    H179703   5.759   2.418  16.295 -0.2341 -0.7393  0.4197
19404TIP3    H279704   5.796   2.436  16.440  1.6123  0.2625 -0.1535
19405TIP3   OH279705   5.917   0.547   3.731 -0.1888  0.1113 -0.0858
19405TIP3    H179706   5.948   0.638   3.730 -1.0222  0.4076  0.3348
19405TIP3    H279707   5.997   0.494   3.729  0.3045  0.8532 -0.2064
19406TIP3   OH279708   5.204   2.212   1.644 -0.3371 -0.0955 -0.5256
19406TIP3    H179709   5.172   2.270   1.575  0.9622 -0.1332 -1.1810
19406TIP3    H279710   5.226   2.131   1.598 -0.2537 -0.4187  0.0765
19407TIP3   OH279711   5.821   3.809  15.065  0.2256  0.2907  0.6683
19407TIP3    H179712   5.834   3.896  15.101  1.9521  0.0286  0.7495
19407TIP3    H279713   5.867   3.809  14.982 -0.3984 -0.3238  0.3055
19408TIP3   OH279714   4.188   3.434  11.762 -0.1929 -0.2326  0.0547
19408TIP3    H179715   4.117   3.410  11.702 -0.7144 -1.9151  1.2589
19408TIP3    H279716   4.160   3.518  11.799 -0.6641  0.0017 -0.7910
19409TIP3   OH279717   2.193   4.680  16.632 -0.2825 -0.0722  0.8325
19409TIP3    H179718   2.176   4.594  16.669 -3.3094 -0.9252 -2.0571
19409TIP3    H279719   2.166   4.741  16.701 -1.9611 -1.5064  1.5384
19410TIP3   OH279720   6.739   6.525   4.884  0.1217  0.5631 -0.4704
19410TIP3    H179721   6.784   6.441   4.875 -2.0729 -0.7009 -0.3714
19410TIP3    H279722   6.753   6.549   4.976 -0.5067 -0.5099 -0.0680
19411TIP3   OH279723   6.441   6.786   2.122 -0.2907 -0.2102  0.6805
19411TIP3    H179724   6.520   6.747   2.159  1.2655  2.3776  0.2828
19411TIP3    H279725   6.445   6.764   2.029  0.9710  1.3584  0.3173
19412TIP3   OH279726   1.574   1.629  13.526  0.0540  0.0149 -0.4589
19412TIP3    H179727   1.570   1.536  13.549 -0.7351  0.3468  0.8898
19412TIP3    H279728   1.487   1.649  13.493  0.0919  0.3626 -0.3516
19413TIP3   OH279729   2.811   2.135   1.724  0.0542 -0.2221 -0.1833
19413TIP3    H179730   2.872   2.123   1.651 -0.7010  0.1701 -0.9054
19413TIP3    H279731   2.747   2.198   1.690 -0.6941 -0.5589  0.5830
19414TIP3   OH279732   6.156   3.311   4.945  0.1915  0.2926 -0.2554
19414TIP3    H179733   6.082   3.263   4.981 -0.5680 -0.2541 -2.3684
19414TIP3    H279734   6.234   3.271   4.985 -0.6107  0.6835  1.7744
19415TIP3   OH279735   2.337   1.051   5.547 -0.0794 -0.0482  0.1762
19415TIP3    H179736   2.261   0.993   5.553 -0.8216  0.9165  0.4314
19415TIP3    H279737   2.306   1.134   5.583 -0.0131  1.4371 -2.9160
19416TIP3   OH279738   5.263   5.212   4.336 -0.6820 -0.0595  0.5391
19416TIP3    H179739   5.289   5.183   4.424  0.9112 -1.6162 -0.3697
19416TIP3    H279740   5.204   5.144   4.305 -1.1232  0.4074  0.3528
19417TIP3   OH279741   0.915   5.188   5.522 -0.1038 -0.2017  0.1968
19417TIP3    H179742   1.002   5.192   5.481  0.4168  0.7680  1.3497
19417TIP3    H279743   0.924   5.236   5.604 -1.5020 -0.8841  0.7882
19418TIP3   OH279744   4.185   2.090  14.011  0.1069 -0.0728  0.2995
19418TIP3    H179745   4.227   2.146  13.946 -1.2853  0.2303 -0.3863
19418TIP3    H279746   4.100   2.132  14.027  0.3074 -0.3004  2.1205
19419TIP3   OH279747   3.974   1.727   1.063 -0.1570 -0.1009  0.1472
19419TIP3    H179748   3.905   1.784   1.098  0.1062  0.0030  0.4928
19419TIP3    H279749   4.037   1.786   1.024 -0.0662 -0.1757  0.1799
19420TIP3   OH279750   4.120   1.420  11.999  0.3859 -0.4904  0.1362
19420TIP3    H179751   4.068   1.423  12.080  1.4998  0.2950  0.8608
19420TIP3    H279752   4.056   1.403  11.930 -0.4440 -2.4088  1.3000
19421TIP3   OH279753   6.407   2.253  10.649 -0.0287 -0.6508  0.3347
19421TIP3    H179754   6.495   2.234  10.617  0.6820  1.4688  0.8564
19421TIP3    H279755   6.376   2.170  10.684  0.3744 -2.3241 -2.8754
19422TIP3   OH279756   4.767   2.914  10.451 -0.3447 -0.2335  0.2717
19422TIP3    H179757   4.860   2.896  10.437 -0.2705 -2.0646  2.5891
19422TIP3    H279758   4.725   2.883  10.370  0.9026 -0.9766 -0.1283
19423TIP3   OH279759   0.819   1.050   2.829  0.0740 -0.0446 -0.1090
19423TIP3    H179760   0.885   1.113   2.802  0.8947 -0.6786  0.3919
19423TIP3    H279761   0.806   1.067   2.923  0.8105 -1.0488  0.1971
19424TIP3   OH279762   1.807   1.704  13.877 -0.1513 -0.1713  0.2330
19424TIP3    H179763   1.821   1.648  13.953  1.4740 -0.5368 -0.2864
19424TIP3    H279764   1.786   1.790  13.913  1.0358 -0.2338  1.1210
19425TIP3   OH279765   6.483   4.391   3.497 -0.2106  0.5403 -0.1595
19425TIP3    H179766   6.540   4.468   3.505 -1.5262  1.4645  0.6440
19425TIP3    H279767   6.429   4.409   3.420 -0.0507  0.0949 -0.3774
19426TIP3   OH279768   5.824   2.619  12.823  0.1431 -0.1797  0.3307
19426TIP3    H179769   5.854   2.604  12.734 -0.1598  2.7196 -0.3451
19426TIP3    H279770   5.747   2.674  12.815 -1.2798 -1.6978  2.3546
19427TIP3   OH279771   3.116   4.620  11.826 -0.3166  0.5993 -0.7966
19427TIP3    H179772   3.177   4.608  11.754 -0.7022  0.0691 -1.0438
19427TIP3    H279773   3.031   4.593  11.790  0.0650 -4.0295  1.0467
19428TIP3   OH279774   4.348   6.742   2.343 -0.2633 -0.1872 -0.1916
19428TIP3    H179775   4.320   6.788   2.422 -0.5459 -0.8201  0.0813
19428TIP3    H279776   4.308   6.655   2.350  0.2763 -0.4818 -0.6925
19429TIP3   OH279777   3.733   1.267   4.275 -0.3406 -0.0782 -0.8281
19429TIP3    H179778   3.796   1.334   4.247 -0.1206 -0.0865 -0.3644
19429TIP3    H279779   3.682   1.309   4.344 -0.2449 -0.3636 -0.5800
19430TIP3   OH279780   0.419   4.304  13.396  0.0196 -0.3952  0.1548
19430TIP3    H179781   0.348   4.331  13.454 -0.1918  1.1017 -0.7479
19430TIP3    H279782   0.375   4.266  13.320  0.0096  2.2041 -1.2514
19431TIP3   OH279783   1.931   0.210  11.139  0.5266  0.3767  0.2644
19431TIP3    H179784   1.997   0.183  11.075  0.5312  0.6885  0.1333
19431TIP3    H279785   1.886   0.129  11.163 -0.5146  0.4369 -1.2974
19432TIP3   OH279786   0.744   0.542   2.978  0.0998 -0.1102 -0.3267
19432TIP3    H179787   0.753   0.489   3.058 -1.8317 -0.6867 -0.4516
19432TIP3    H279788   0.736   0.477   2.908  0.8938  0.3950 -0.9003
19433TIP3   OH279789   6.639   3.192   4.959  0.1626 -0.0068 -0.0999
19433TIP3    H179790   6.639   3.266   5.019 -1.0591  0.8365 -1.0816
19433TIP3    H279791   6.713   3.138   4.987  1.3391  1.7865  0.4052
19434TIP3   OH279792   1.637   3.112  17.053  0.0420  0.4491 -0.2789
19434TIP3    H179793   1.590   3.093  17.134  1.9704 -0.1090  0.7685
19434TIP3    H279794   1.646   3.026  17.011  0.6829  0.4524 -0.1460
19435TIP3   OH279795   0.689   4.474   3.043 -0.2572  0.2979 -0.2512
19435TIP3    H179796   0.706   4.400   3.101 -1.9239 -0.4349 -0.6254
19435TIP3    H279797   0.766   4.478   2.986  0.0304 -0.9090  0.0229
19436TIP3   OH279798   3.828   0.030   0.467 -0.2105 -0.0995  0.3087
19436TIP3    H179799   3.824   0.076   0.550 -0.8045  0.8971 -0.2552
19436TIP3    H279800   3.876  -0.051   0.487  1.3600  0.9922  1.1992
19437TIP3   OH279801   3.403   5.084   1.173  0.8813  0.0672 -0.5253
19437TIP3    H179802   3.476   5.080   1.235  0.3406 -0.4586  0.0966
19437TIP3    H279803   3.415   5.007   1.117  0.0746 -0.7779  0.4317
19438TIP3   OH279804   0.155   3.659   4.421  0.5235 -0.5966  0.4192
19438TIP3    H179805   0.159   3.680   4.515  0.7035 -1.8706  0.7073
19438TIP3    H279806   0.242   3.628   4.399  0.8798  0.9433 -0.5140
19439TIP3   OH279807   1.543   3.747   0.435 -0.2136 -0.5728  0.4922
19439TIP3    H179808   1.476   3.812   0.416 -0.2264 -0.7016  0.0696
19439TIP3    H279809   1.565   3.760   0.527 -1.7027 -1.3488  0.9868
19440TIP3   OH279810   5.010   5.450   6.023  0.2441  0.1860  0.0964
19440TIP3    H179811   4.939   5.414   6.076 -0.8946  1.5241 -0.4595
19440TIP3    H279812   5.081   5.465   6.086 -0.5118  0.2371  0.9599
19441TIP3   OH279813   1.088   3.184  14.189  0.2278 -0.7255 -0.2809
19441TIP3    H179814   1.053   3.096  14.198 -0.7917 -0.5013 -1.7361
19441TIP3    H279815   1.016   3.241  14.215  0.1136 -0.3029 -1.4433
19442TIP3   OH279816   5.940   5.567  16.816 -0.1717  0.2553 -0.0466
19442TIP3    H179817   5.933   5.663  16.813 -0.6509  0.2257  0.1186
19442TIP3    H279818   5.856   5.536  16.782  0.5886 -0.1142 -1.7046
19443TIP3   OH279819   3.952   1.575   5.580  0.1429  0.4435 -0.2915
19443TIP3    H179820   3.948   1.571   5.484 -0.9456  2.0500 -0.3458
19443TIP3    H279821   4.045   1.590   5.599  0.5620 -1.0268 -0.9979
19444TIP3   OH279822   1.166   0.792  15.960  0.2459 -1.0778 -0.3820
19444TIP3    H179823   1.250   0.817  15.921  0.1770  0.9573  0.6541
19444TIP3    H279824   1.104   0.793  15.887  0.9079 -1.5419 -0.9595
19445TIP3   OH279825   5.940   0.088  15.218 -0.7497  0.6643  0.6534
19445TIP3    H179826   5.992   0.032  15.276 -1.7547 -1.3738 -0.3066
19445TIP3    H279827   6.003   0.150  15.182  0.4095  0.2122  1.8449
19446TIP3   OH279828   4.136   1.724   2.423  0.1669  0.3760  0.3495
19446TIP3    H179829   4.222   1.738   2.383  0.7255 -2.7364  0.2412
19446TIP3    H279830   4.074   1.751   2.356  1.1005 -0.8439 -1.0688
19447TIP3   OH279831   2.428   6.245   1.842 -0.3046 -0.2336  0.0754
19447TIP3    H179832   2.367   6.227   1.770  1.9591  0.2559 -2.0834
19447TIP3    H279833   2.504   6.284   1.800  1.4027 -0.5081  2.7003
19448TIP3   OH279834   1.581   4.734  17.103 -0.0651 -0.9375 -0.1358
19448TIP3    H179835   1.565   4.778  17.186  0.3126 -0.0862 -0.5005
19448TIP3    H279836   1.662   4.685  17.117  0.0758 -0.6815 -0.0382
19449TIP3   OH279837   2.733   4.510  11.243 -0.8120 -1.0539 -0.1946
19449TIP3    H179838   2.655   4.458  11.264 -1.6455 -1.0023 -2.7919
19449TIP3    H279839   2.702   4.574  11.178  0.7759  0.9602  0.9313
19450TIP3   OH279840   4.839   6.552  16.375 -0.5415  0.1284 -0.6804
19450TIP3    H179841   4.813   6.644  16.376  1.8953  0.8832 -0.9354
19450TIP3    H279842   4.779   6.510  16.436 -0.7301  2.1740  0.6475
19451TIP3   OH279843   0.161   4.823  14.323  0.0447  0.7109  0.3716
19451TIP3    H179844   0.221   4.882  14.368  0.7415  0.4503 -0.2121
19451TIP3    H279845   0.211   4.787  14.250 -0.9223  0.7486 -0.3348
19452TIP3   OH279846   1.823   6.443  15.875  0.7088 -0.3072  0.2836
19452TIP3    H179847   1.747   6.394  15.907  0.4290  1.2976  2.2894
19452TIP3    H279848   1.790   6.493  15.800  1.1752 -3.5572 -2.2908
19453TIP3   OH279849   2.537   4.312  11.232 -0.0763 -0.3709 -0.5440
19453TIP3    H179850   2.486   4.283  11.307 -1.0880  2.2519 -0.0813
19453TIP3    H279851   2.471   4.344  11.170  0.8668  0.7318 -1.0237
19454TIP3   OH279852   3.864   3.439  16.628 -0.0021 -0.8190 -0.1057
19454TIP3    H179853   3.838   3.385  16.553 -1.5929 -0.4875  0.1723
19454TIP3    H279854   3.826   3.525  16.610  0.7708 -0.3561  0.4278
19455TIP3   OH279855   0.824   4.598   2.429 -0.0565  0.0081 -0.6986
19455TIP3    H179856   0.865   4.680   2.458  0.9009  0.1617 -2.3608
19455TIP3    H279857   0.764   4.575   2.500  0.5321  1.5145  0.3432
19456TIP3   OH279858   5.281   2.709  15.018  0.0958  0.4705  0.0500
19456TIP3    H179859   5.238   2.626  15.039 -1.0679  1.5446  2.2446
19456TIP3    H279860   5.368   2.702  15.056  1.3285 -0.9430 -2.6951
19457TIP3   OH279861   3.739   2.306   2.713 -0.4776  0.3670 -0.7213
19457TIP3    H179862   3.832   2.318   2.697 -0.0429 -0.3258  1.0216
19457TIP3    H279863   3.735   2.260   2.797 -2.4344  1.9212  0.1229
19458TIP3   OH279864   3.560   5.941  14.418 -0.1350 -0.4089 -0.6962
19458TIP3    H179865   3.594   5.995  14.346  0.3717 -0.3983 -0.4551
19458TIP3    H279866   3.602   5.977  14.497 -3.4049  2.0105  0.1680
19459TIP3   OH279867   4.927   0.255  11.956 -0.0511 -0.3056 -0.0827
19459TIP3    H179868   4.930   0.281  12.048 -1.9251  0.1921 -0.1415
19459TIP3    H279869   4.895   0.332  11.910 -1.1360 -1.2014 -0.8759
19460TIP3   OH279870   6.165   5.828   3.398 -0.1840  0.1394 -0.2069
19460TIP3    H179871   6.128   5.883   3.329  0.0696 -0.7880 -1.0956
19460TIP3    H279872   6.167   5.740   3.361  1.3690 -0.1290  0.4325
19461TIP3   OH279873   0.152   1.503   1.218 -0.3140 -0.1986 -0.5900
19461TIP3    H179874   0.076   1.463   1.260 -0.3790  0.1061 -0.4168
19461TIP3    H279875   0.225   1.481   1.275  0.2138 -2.7721 -2.0820
19462TIP3   OH279876   6.598   1.491  13.186  0.4125  0.3375  0.0288
19462TIP3    H179877   6.649   1.572  13.197  1.5639 -0.3798  0.2080
19462TIP3    H279878   6.614   1.464  13.096 -1.3517  1.1836 -0.5772
19463TIP3   OH279879   5.699   4.357  12.435  0.0131 -0.2761  0.5859
19463TIP3    H179880   5.729   4.301  12.506  2.2485 -1.1707 -0.9646
19463TIP3    H279881   5.762   4.430  12.434  0.3597 -0.5691 -0.7854
19464TIP3   OH279882   6.660   6.360   3.444  0.6050  0.5253  0.2364
19464TIP3    H179883   6.630   6.312   3.522  1.8285 -1.2191 -0.3075
19464TIP3    H279884   6.580   6.396   3.406 -0.3932 -0.9926  0.7653
19465TIP3   OH279885   0.496   3.076  16.286  0.4513 -0.0680  0.1818
19465TIP3    H179886   0.521   3.115  16.369 -1.7352  0.6545  0.5539
19465TIP3    H279887   0.460   3.149  16.234  2.1097 -0.4165 -1.5840
19466TIP3   OH279888   3.686   1.850  16.156  0.1246 -0.0801 -0.3384
19466TIP3    H179889   3.684   1.878  16.247 -0.6868  0.9637 -0.6549
19466TIP3    H279890   3.731   1.765  16.157  0.6280  0.1880  0.9479
19467TIP3   OH279891   2.612   1.854  13.246 -0.2444 -0.1307  0.1354
19467TIP3    H179892   2.678   1.804  13.197 -0.8726  0.4621 -1.3743
19467TIP3    H279893   2.653   1.939  13.262 -0.2326 -0.1450  0.1807
19468TIP3   OH279894   6.469   5.360  11.808  0.1534  0.7283 -0.3330
19468TIP3    H179895   6.461   5.319  11.722 -0.3455  1.4735 -0.6487
19468TIP3    H279896   6.478   5.453  11.790 -1.9223  1.1446  0.4562
19469TIP3   OH279897   6.066   2.703   0.722 -0.3206 -0.1439 -0.4175
19469TIP3    H179898   5.995   2.720   0.659 -0.3607 -0.3152 -0.4212
19469TIP3    H279899   6.021   2.698   0.807 -0.3312 -0.3835 -0.4368
19470TIP3   OH279900   3.210   5.403  12.133  0.0009 -0.5291 -0.5850
19470TIP3    H179901   3.191   5.362  12.218 -0.0200 -1.3334 -0.9620
19470TIP3    H279902   3.180   5.338  12.069 -1.1367  0.5910 -1.2226
19471TIP3   OH279903   4.463   2.706   1.450  0.5554  0.2620  0.5405
19471TIP3    H179904   4.480   2.737   1.539  0.1315 -0.7613  0.9900
19471TIP3    H279905   4.408   2.774   1.411  0.7263  0.7068  1.0549
19472TIP3   OH279906   0.938   3.590  11.365 -0.0088 -0.3074  0.2912
19472TIP3    H179907   0.855   3.579  11.318  0.7341 -0.3719 -1.0782
19472TIP3    H279908   1.004   3.562  11.302  1.0376 -0.5493  1.4682
19473TIP3   OH279909   6.700   1.993   1.705 -0.0322 -0.3368  0.2175
19473TIP3    H179910   6.717   1.964   1.795 -0.1395  1.2029  0.7756
19473TIP3    H279911   6.626   2.054   1.713  0.2832  0.2132 -0.8335
19474TIP3   OH279912   1.151   2.585   4.346 -0.1369  0.2146 -0.2221
19474TIP3    H179913   1.193   2.632   4.418 -0.1792  0.1120 -0.1301
19474TIP3    H279914   1.222   2.536   4.304  0.2524  1.7599 -1.4402
19475TIP3   OH279915   2.497   3.499   1.682  0.0593 -0.2479  0.0723
19475TIP3    H179916   2.568   3.488   1.618 -0.9835 -0.1462 -1.1340
19475TIP3    H279917   2.420   3.464   1.638 -0.9508  1.0125  0.7833
19476TIP3   OH279918   5.323   3.966   6.432 -0.3656 -0.2194 -0.0808
19476TIP3    H179919   5.329   3.952   6.526  0.1514  1.6645  0.2124
19476TIP3    H279920   5.331   3.878   6.394 -0.4594 -1.0016  1.6075
19477TIP3   OH279921   1.964   1.494   5.207 -0.4088  0.1745  0.3737
19477TIP3    H179922   1.894   1.510   5.145 -2.1527 -1.3994  1.8215
19477TIP3    H279923   1.991   1.581   5.236 -0.4337  0.8675 -1.5797
19478TIP3   OH279924   5.361   1.062  15.681  0.0372  0.1478 -0.5247
19478TIP3    H179925   5.354   1.016  15.765  0.0206  1.0202 -0.0308
19478TIP3    H279926   5.298   1.018  15.624 -1.7184  1.0187  0.6301
19479TIP3   OH279927   5.140   1.637   2.305 -0.3946 -0.6803  0.1157
19479TIP3    H179928   5.165   1.566   2.365  1.7624  1.1222  1.4883
19479TIP3    H279929   5.122   1.711   2.363  2.4775  1.3674 -1.3849
19480TIP3   OH279930   1.793   6.863   1.904 -0.1616  0.7186 -0.1108
19480TIP3    H179931   1.718   6.914   1.876 -0.5819  0.1395 -0.0767
19480TIP3    H279932   1.756   6.776   1.924 -0.0790  1.2669  2.9790
19481TIP3   OH279933   1.153   1.069  11.514 -0.5349  0.2436 -0.3999
19481TIP3    H179934   1.067   1.102  11.487 -0.1636  1.6931  0.0909
19481TIP3    H279935   1.136   1.017  11.592 -0.6190  3.7903  2.1568
19482TIP3   OH279936   3.356   2.916  15.213 -0.5718  0.2707  0.3775
19482TIP3    H179937   3.394   2.928  15.300 -0.2715 -1.5136  0.5219
19482TIP3    H279938   3.430   2.922  15.153 -0.5631  0.0601  0.3674
19483TIP3   OH279939   3.973   2.763  12.782  0.1911  0.0904  0.2651
19483TIP3    H179940   3.924   2.827  12.731  0.5950 -0.8772 -1.4460
19483TIP3    H279941   3.976   2.799  12.870  1.0901  2.7961 -0.7810
19484TIP3   OH279942   6.392   2.754   5.173  0.2961  1.1126 -0.7627
19484TIP3    H179943   6.440   2.837   5.186 -0.6677  1.7465 -1.1563
19484TIP3    H279944   6.348   2.765   5.089  0.0900  0.2225 -0.7777
19485TIP3   OH279945   1.374   4.462  11.809 -0.3705 -1.0748  0.0426
19485TIP3    H179946   1.310   4.532  11.797  0.5655 -0.2247 -0.1633
19485TIP3    H279947   1.322   4.385  11.833 -1.6974 -1.0332 -2.4237
19486TIP3   OH279948   4.195   5.335   2.559 -1.0544 -0.1198 -0.0383
19486TIP3    H179949   4.257   5.281   2.608 -1.1415 -0.4913 -0.3323
19486TIP3    H279950   4.191   5.417   2.607  0.3832  0.2663 -0.5250
19487TIP3   OH279951   0.423   1.502   4.759 -0.5481  0.2219 -0.3889
19487TIP3    H179952   0.476   1.555   4.699 -0.7614  1.4043  0.4344
19487TIP3    H279953   0.456   1.524   4.846 -0.4244 -1.2670 -0.0311
19488TIP3   OH279954   5.969   6.517   3.372  0.3815 -0.2236  0.5084
19488TIP3    H179955   5.979   6.423   3.359  0.5769 -0.0500 -0.6629
19488TIP3    H279956   5.941   6.551   3.287 -1.6900  0.5279  1.4256
19489TIP3   OH279957   4.572   4.937   0.605 -0.4287 -0.0248 -0.5427
19489TIP3    H179958   4.536   4.921   0.692 -1.0266  1.1462 -0.5573
19489TIP3    H279959   4.630   5.012   0.616 -0.9789  0.5269 -1.2582
19490TIP3   OH279960   5.869   6.775  11.019  0.1570  0.2268 -0.8833
19490TIP3    H179961   5.847   6.827  11.096  2.4908 -1.1157  0.8128
19490TIP3    H279962   5.784   6.744  10.986 -0.8914  0.2967  1.5359
19491TIP3   OH279963   3.525   2.810   2.759 -0.0182 -0.0473 -0.3914
19491TIP3    H179964   3.569   2.739   2.713 -0.1118 -1.1292  1.0994
19491TIP3    H279965   3.592   2.845   2.818 -0.2960  0.3295 -0.2972
19492TIP3   OH279966   4.505   5.160   2.277  0.2231 -0.5089  0.1274
19492TIP3    H179967   4.534   5.226   2.341 -0.2700  0.4040 -0.5663
19492TIP3    H279968   4.449   5.208   2.217  1.6003 -1.0822 -1.7068
19493TIP3   OH279969   4.576   4.321  13.161 -0.4248 -0.6648  0.2505
19493TIP3    H179970   4.625   4.238  13.154 -0.9323 -1.0425  1.1038
19493TIP3    H279971   4.635   4.386  13.123  1.0731 -0.9762  1.9019
19494TIP3   OH279972   0.207   5.550   5.772  0.5365 -0.5268  0.1446
19494TIP3    H179973   0.209   5.595   5.688 -0.1334  1.3562  1.0712
19494TIP3    H279974   0.130   5.493   5.767 -0.2398  0.5124 -0.0897
19495TIP3   OH279975   5.281   6.522  14.880 -0.5221  0.5143 -0.2491
19495TIP3    H179976   5.218   6.466  14.925 -0.0710 -0.7199 -1.1077
19495TIP3    H279977   5.241   6.539  14.794  0.5207 -0.7704 -1.0355
19496TIP3   OH279978   2.627   0.589   2.950  0.3726  0.3611  0.0175
19496TIP3    H179979   2.547   0.600   3.002  0.3112  1.7679 -0.3473
19496TIP3    H279980   2.687   0.655   2.985  1.8037 -1.3574  1.0157
19497TIP3   OH279981   0.235   1.765   4.795  0.2342 -0.1497  0.1215
19497TIP3    H179982   0.229   1.860   4.807  0.2387  0.1059 -1.7346
19497TIP3    H279983   0.308   1.739   4.852  1.4191  1.2363 -0.6811
19498TIP3   OH279984   6.030   3.410  16.952  0.3251 -0.4712 -0.0669
19498TIP3    H179985   5.940   3.436  16.934  0.9069  0.5592 -1.8276
19498TIP3    H279986   6.080   3.492  16.942  1.4760 -1.0470  0.7490
19499TIP3   OH279987   0.361   5.960  14.925  0.0283  0.0354 -0.7994
19499TIP3    H179988   0.419   5.901  14.877  1.9307  1.8820 -0.9472
19499TIP3    H279989   0.421   6.014  14.977 -1.8389 -0.5173  2.1236
19500TIP3   OH279990   3.250   6.668  16.513  0.0463 -0.2211  0.1423
19500TIP3    H179991   3.202   6.598  16.559  2.0987 -1.2339  0.8814
19500TIP3    H279992   3.338   6.663  16.549  0.9060  1.0950 -1.6700
19501TIP3   OH279993   1.709   0.608   5.483  0.6384  0.2354 -0.3727
19501TIP3    H179994   1.671   0.680   5.433  1.6347  1.1679  0.1871
19501TIP3    H279995   1.633   0.563   5.521  0.0001  0.9415 -0.7836
19502TIP3   OH279996   4.264   3.823  12.962 -0.1490 -0.5100  0.1296
19502TIP3    H179997   4.269   3.915  12.989 -2.0577 -0.2536 -0.2429
19502TIP3    H279998   4.179   3.793  12.994 -1.6026 -0.8189 -3.4831
19503TIP3   OH279999   4.639   4.191   5.461 -0.0052 -0.1437 -0.6576
19503TIP3    H180000   4.667   4.277   5.493  0.4249 -1.2035  2.0882
19503TIP3    H280001   4.604   4.208   5.373 -0.6462  2.9284  0.0855
19504TIP3   OH280002   6.312   2.963   3.437 -0.4668  0.4147 -0.0729
19504TIP3    H180003   6.273   3.016   3.506 -0.1113  0.4680  0.0883
19504TIP3    H280004   6.404   2.989   3.435 -0.8443  1.8420 -1.8954
19505TIP3   OH280005   2.089   0.532  13.100  0.9178  0.2716 -0.3748
19505TIP3    H180006   2.136   0.542  13.182  1.0884  2.2458 -0.6703
19505TIP3    H280007   2.087   0.437  13.085  2.7799 -0.0004  0.7874
19506TIP3   OH280008   6.445   5.948   2.909  0.1444  0.3625 -0.6294
19506TIP3    H180009   6.494   6.028   2.926 -0.4497  0.5909  0.0238
19506TIP3    H280010   6.406   5.925   2.993 -0.5195 -0.0538 -1.0400
19507TIP3   OH280011   5.115   0.061  12.206 -0.7319 -0.2934  0.6374
19507TIP3    H180012   5.136   0.125  12.138 -1.3565  0.6048  1.2728
19507TIP3    H280013   5.100   0.114  12.285  1.6998 -1.3790  1.9479
19508TIP3   OH280014   4.781   5.054   5.341  0.0965 -0.4751  0.4594
19508TIP3    H180015   4.701   5.038   5.291 -0.0734 -1.3024  0.9876
19508TIP3    H280016   4.791   5.149   5.339 -0.7471 -0.3816  0.1532
19509TIP3   OH280017   3.267   1.699   5.117 -0.3206  0.6434  0.1749
19509TIP3    H180018   3.344   1.643   5.127 -0.7416  0.3840  2.4942
19509TIP3    H280019   3.303   1.786   5.101  0.5313  0.6145  1.7049
19510TIP3   OH280020   3.772   1.026  14.636  0.5660 -0.0791  0.1712
19510TIP3    H180021   3.840   0.995  14.576 -1.0125 -3.6291 -0.0576
19510TIP3    H280022   3.711   1.074  14.580  0.4810 -1.0485 -0.6001
19511TIP3   OH280023   2.496   2.302   1.986  0.0970 -0.4291  0.4211
19511TIP3    H180024   2.407   2.320   2.013 -0.1455 -0.5661 -0.2614
19511TIP3    H280025   2.490   2.285   1.892  0.6581 -1.6597  0.5836
19512TIP3   OH280026   1.727   2.900   3.851  0.1362 -0.3464 -0.0947
19512TIP3    H180027   1.706   2.985   3.812  2.2649 -0.7631 -2.3698
19512TIP3    H280028   1.788   2.920   3.922  0.0451  0.0915 -0.1400
19513TIP3   OH280029   2.424   6.704   1.798 -0.4282 -0.2023 -0.0012
19513TIP3    H180030   2.379   6.713   1.714 -0.2714  2.0998  0.0978
19513TIP3    H280031   2.373   6.638   1.846 -0.0299 -2.1977 -2.1549
19514TIP3   OH280032   0.398   6.810  17.087 -0.8022  0.0089 -0.2662
19514TIP3    H180033   0.492   6.828  17.087 -0.7524 -0.1026  1.2670
19514TIP3    H280034   0.361   6.876  17.146 -1.4526 -0.9524  0.4305
19515TIP3   OH280035   2.720   2.682   4.364  0.3638  0.3401 -0.0970
19515TIP3    H180036   2.667   2.604   4.376 -0.7945  0.8687 -1.4782
19515TIP3    H280037   2.793   2.672   4.426 -0.1743 -1.4360  0.2946
19516TIP3   OH280038   0.586   0.049  13.448  0.4635  0.2352  0.2755
19516TIP3    H180039   0.545   0.136  13.438 -1.8438 -0.7408  0.5427
19516TIP3    H280040   0.548   0.015  13.529  1.9462 -0.7308  0.5829
19517TIP3   OH280041   6.634   4.252   4.740 -0.2426 -0.5685 -0.2372
19517TIP3    H180042   6.569   4.269   4.808 -0.9377  1.0915 -1.2670
19517TIP3    H280043   6.712   4.222   4.788 -1.1285 -0.7207  1.1599
19518TIP3   OH280044   6.567   1.516  16.794  0.0110 -0.3698 -0.5253
19518TIP3    H180045   6.625   1.472  16.856 -0.6391 -0.0179  0.3516
19518TIP3    H280046   6.482   1.474  16.808 -0.4682  0.7056 -0.1413
19519TIP3   OH280047   1.690   5.666  14.598 -0.0499  0.6013 -0.5754
19519TIP3    H180048   1.782   5.643  14.581 -0.7440 -2.3404 -0.9179
19519TIP3    H280049   1.669   5.619  14.679 -1.4650  0.5058 -0.9788
19520TIP3   OH280050   4.721   6.446  13.517  0.1925 -0.2632 -0.2199
19520TIP3    H180051   4.792   6.474  13.574  0.8902  0.6530 -1.4945
19520TIP3    H280052   4.738   6.354  13.500  1.0995 -0.0478 -0.5202
19521TIP3   OH280053   5.262   3.667   6.434 -0.0096  0.2403 -0.2505
19521TIP3    H180054   5.300   3.607   6.499 -0.3089 -0.4306 -0.6846
19521TIP3    H280055   5.169   3.667   6.453 -0.3500 -1.2767 -1.6989
19522TIP3   OH280056   0.437   3.747  15.837  0.7346  0.0723  0.4412
19522TIP3    H180057   0.355   3.796  15.825 -0.3099 -1.8468 -1.0352
19522TIP3    H280058   0.455   3.752  15.931 -2.7217 -1.7835  1.3848
19523TIP3   OH280059   5.448   3.797  12.318 -0.0917 -0.7497  0.3902
19523TIP3    H180060   5.520   3.834  12.267  0.5913 -2.4855 -0.0029
19523TIP3    H280061   5.486   3.719  12.359 -1.4737 -1.1248  1.0119
19524TIP3   OH280062   2.902   6.715  16.485  0.2076  0.1887 -0.1712
19524TIP3    H180063   2.985   6.684  16.448  0.6499 -0.1633  1.0475
19524TIP3    H280064   2.836   6.657  16.450  0.8625 -1.3743  1.0717
19525TIP3   OH280065   2.245   4.757   4.497 -0.0932  0.5836 -0.0599
19525TIP3    H180066   2.237   4.662   4.489  1.7804  0.5109 -1.9027
19525TIP3    H280067   2.336   4.772   4.523 -0.8706  1.8496  2.2494
19526TIP3   OH280068   4.058   4.411  15.359 -0.9851  0.2305 -0.0500
19526TIP3    H180069   4.019   4.333  15.318  0.0723 -0.2260 -0.2216
19526TIP3    H280070   4.128   4.437  15.299  0.2497 -0.1315  1.1829
19527TIP3   OH280071   4.430   5.389   2.088 -0.1682  0.2026 -0.4093
19527TIP3    H180072   4.434   5.485   2.095 -0.4376  0.0840  3.1603
19527TIP3    H280073   4.520   5.362   2.075  0.2935  0.8854  1.1429
19528TIP3   OH280074   4.613   0.115   3.686 -0.1152  0.2240  0.4493
19528TIP3    H180075   4.643   0.075   3.767 -1.1137 -0.0381  0.6963
19528TIP3    H280076   4.531   0.070   3.664 -0.5154  1.1383 -0.0311
19529TIP3   OH280077   5.496   2.411  16.323  0.3850  0.8615 -0.1631
19529TIP3    H180078   5.568   2.356  16.354  0.8056  1.0757 -0.7409
19529TIP3    H280079   5.427   2.399  16.388  0.7085  0.1539  0.0608
19530TIP3   OH280080   2.123   5.969   2.986  0.6181  0.3678  0.5220
19530TIP3    H180081   2.146   5.895   2.929 -0.7417  1.4619 -1.5663
19530TIP3    H280082   2.172   6.043   2.952 -2.0337  1.6088 -0.9458
19531TIP3   OH280083   2.160   2.032   3.318 -1.0176  0.3835 -0.0183
19531TIP3    H180084   2.135   1.961   3.378  1.1014  0.6839  1.3268
19531TIP3    H280085   2.238   1.999   3.274 -1.4093  0.9713 -1.2053
19532TIP3   OH280086   5.092   2.888   3.259 -0.2917  0.3600  0.6720
19532TIP3    H180087   4.997   2.880   3.263 -0.1940 -2.3683 -0.5387
19532TIP3    H280088   5.118   2.901   3.350 -1.8529  2.8075  0.8697
19533TIP3   OH280089   2.020   2.891  12.347  0.3268 -0.3026 -0.5472
19533TIP3    H180090   1.971   2.905  12.266 -1.5376 -0.0359  0.5849
19533TIP3    H280091   1.965   2.832  12.399  1.8638 -1.1260  0.2293
19534TIP3   OH280092   6.450   4.623  13.844 -0.5690  0.1315 -0.2605
19534TIP3    H180093   6.422   4.713  13.857 -0.3010  0.2672 -0.5885
19534TIP3    H280094   6.412   4.574  13.916  1.6944  0.9991  1.6496
19535TIP3   OH280095   0.853   3.399   0.655 -0.0154  0.6058 -0.0351
19535TIP3    H180096   0.821   3.429   0.741  1.5159  0.7731  0.5190
19535TIP3    H280097   0.777   3.359   0.613 -1.3033  2.2681  0.5955
19536TIP3   OH280098   5.663   5.845  12.245 -0.3411 -0.3751  0.0081
19536TIP3    H180099   5.609   5.920  12.272 -0.9974 -0.1528 -1.8139
19536TIP3    H280100   5.734   5.843  12.309 -0.3179  1.7888  0.1325
19537TIP3   OH280101   3.532   5.910   3.930  0.1695 -0.6535 -0.0096
19537TIP3    H180102   3.460   5.847   3.917 -1.2051  1.0012 -0.8032
19537TIP3    H280103   3.532   5.927   4.024 -1.0363 -0.0684 -0.1009
19538TIP3   OH280104   0.482   1.149   0.079  0.5986 -0.4097  0.0318
19538TIP3    H180105   0.537   1.087   0.127  0.6492 -0.1432  0.3216
19538TIP3    H280106   0.441   1.202   0.148  0.0517 -0.5456 -0.1828
19539TIP3   OH280107   3.013   1.021  11.926  0.1143  0.1474  0.4601
19539TIP3    H180108   3.096   1.061  11.952 -0.2471  1.2508  0.0069
19539TIP3    H280109   2.976   1.083  11.863 -2.1086  0.8154  2.3116
19540TIP3   OH280110   6.075   2.620   5.004  0.4438  0.8584  0.0816
19540TIP3    H180111   6.048   2.549   5.062 -1.3818  1.9527  0.6519
19540TIP3    H280112   6.170   2.610   4.997  0.1869 -1.9092 -0.2896
19541TIP3   OH280113   5.176   2.692   1.320 -0.3796 -0.1379 -0.3294
19541TIP3    H180114   5.086   2.698   1.287 -0.4089 -0.2966 -0.2783
19541TIP3    H280115   5.228   2.738   1.255 -0.5804  0.5283 -0.0349
19542TIP3   OH280116   0.417   4.321  11.593 -0.2344  0.5364  0.3933
19542TIP3    H180117   0.393   4.328  11.685  0.3403  0.9142  0.5184
19542TIP3    H280118   0.413   4.227  11.574 -2.3768  0.5916  0.2340
19543TIP3   OH280119   2.757   5.673   3.878  0.1563  0.4117 -0.1810
19543TIP3    H180120   2.696   5.663   3.805  0.8332 -0.7636 -0.5966
19543TIP3    H280121   2.734   5.603   3.938 -0.4595  1.4281  0.8206
19544TIP3   OH280122   2.819   4.951   6.281 -0.5630 -0.6692 -0.0415
19544TIP3    H180123   2.741   4.903   6.311 -0.3990 -0.9048  0.0140
19544TIP3    H280124   2.892   4.893   6.302 -0.2746  0.0007  0.8865
19545TIP3   OH280125   3.066   3.027  11.958  0.7183  0.0878 -0.3578
19545TIP3    H180126   3.119   2.981  11.892  0.4466 -0.3555 -0.2764
19545TIP3    H280127   3.095   3.118  11.954 -0.4125  0.4241 -2.2491
19546TIP3   OH280128   5.742   5.592   0.414  0.5306 -0.1975 -0.1843
19546TIP3    H180129   5.695   5.674   0.426  0.8552  0.8974 -4.7135
19546TIP3    H280130   5.676   5.524   0.428 -0.4073  0.9048  0.9986
19547TIP3   OH280131   4.932   1.015   1.863 -0.4362  0.7348 -0.4552
19547TIP3    H180132   4.893   1.089   1.817 -1.2030  1.8898  1.8740
19547TIP3    H280133   5.025   1.018   1.840 -0.1225  3.4608  0.7859
19548TIP3   OH280134   4.087   4.729  11.289 -0.7120 -0.1568  0.2425
19548TIP3    H180135   4.103   4.798  11.225  0.2237  0.3328  0.9632
19548TIP3    H280136   4.104   4.648  11.242 -0.6506  0.1644 -0.2950
19549TIP3   OH280137   6.588   1.038   1.395 -0.1882  0.2438  0.3720
19549TIP3    H180138   6.565   1.125   1.425  1.0868  1.3528 -1.6616
19549TIP3    H280139   6.574   1.040   1.300 -0.1796 -1.7836  0.2710
19550TIP3   OH280140   2.152   6.416   5.140 -0.1152 -0.0909 -0.0761
19550TIP3    H180141   2.235   6.453   5.111  0.5341 -1.7666 -0.5044
19550TIP3    H280142   2.157   6.418   5.236 -0.9650  2.6641 -0.0080
19551TIP3   OH280143   4.877   1.513   2.646 -0.2782  0.4767  0.3207
19551TIP3    H180144   4.864   1.424   2.680  0.6682  0.3481  0.3793
19551TIP3    H280145   4.932   1.555   2.712  0.6599  0.5738 -0.4918
19552TIP3   OH280146   3.422   5.654   2.847  0.1964  0.5123 -0.2119
19552TIP3    H180147   3.393   5.596   2.777 -0.3704  2.1423 -1.3988
19552TIP3    H280148   3.341   5.686   2.887  0.4992 -1.4394  2.1841
19553TIP3   OH280149   5.729   5.321  13.512  0.2444 -0.0452  0.6631
19553TIP3    H180150   5.731   5.415  13.533  0.5100 -0.2651  1.6768
19553TIP3    H280151   5.773   5.315  13.427 -1.4163  0.9568 -0.3436
19554TIP3   OH280152   5.344   4.498  11.487 -0.0300  0.4407 -0.5387
19554TIP3    H180153   5.304   4.585  11.483  1.0029  0.9189 -0.9868
19554TIP3    H280154   5.428   4.513  11.531 -0.1196 -0.4475 -0.0417
19555TIP3   OH280155   3.047   0.603  16.338  0.5239  0.0806 -0.1054
19555TIP3    H180156   3.032   0.694  16.363  1.0426 -0.0084  0.5602
19555TIP3    H280157   3.143   0.595  16.335  0.5585 -0.9915  2.0125
19556TIP3   OH280158   2.049   0.362   3.493  0.2429 -0.2274  0.4805
19556TIP3    H180159   2.047   0.434   3.430  2.9485 -0.0488  0.4728
19556TIP3    H280160   2.010   0.398   3.572  1.0678  1.0943  0.3120
19557TIP3   OH280161   5.470   3.115   0.459 -0.0420  0.5009 -0.4199
19557TIP3    H180162   5.501   3.081   0.543 -0.1939 -0.3992 -0.7134
19557TIP3    H280163   5.378   3.087   0.455  0.0591  0.2342 -1.0324
19558TIP3   OH280164   1.461   3.777   5.952 -0.3582 -0.0262  0.9227
19558TIP3    H180165   1.512   3.851   5.985 -1.1328  0.4490  1.0853
19558TIP3    H280166   1.499   3.758   5.867 -0.1914  0.6149  0.8440
19559TIP3   OH280167   1.350   2.336  15.937  0.7790 -0.0246 -0.3451
19559TIP3    H180168   1.363   2.427  15.963  0.7221 -0.5659  1.7235
19559TIP3    H280169   1.439   2.303  15.920  0.8291  0.3092 -0.7343
19560TIP3   OH280170   0.021   2.198  12.915 -0.2816 -0.1054 -0.6213
19560TIP3    H180171   0.071   2.247  12.980  0.8531 -0.2662 -1.3534
19560TIP3    H280172  -0.070   2.206  12.944  0.1774 -0.0170  0.8739
19561TIP3   OH280173   1.527   3.118  10.761 -1.0922 -0.4158  0.2998
19561TIP3    H180174   1.475   3.160  10.693 -0.2144  0.7523  0.3119
19561TIP3    H280175   1.555   3.035  10.722 -0.6418  0.2140 -0.7584
19562TIP3   OH280176   5.629   5.113   6.237  0.0629 -0.6316 -0.4683
19562TIP3    H180177   5.655   5.110   6.329 -0.4060  1.3389 -0.2242
19562TIP3    H280178   5.539   5.078   6.237 -0.1633 -0.0690 -0.0636
19563TIP3   OH280179   4.383   0.953  15.509 -0.6608  0.1863 -0.4959
19563TIP3    H180180   4.390   0.972  15.603 -2.1673 -1.7215  0.0954
19563TIP3    H280181   4.293   0.976  15.487 -1.1296 -1.7727 -0.8001
19564TIP3   OH280182   4.329   4.721  12.457 -0.8669  0.4373  0.4414
19564TIP3    H180183   4.360   4.770  12.533  0.1384  1.1555 -0.4092
19564TIP3    H280184   4.329   4.785  12.386 -1.3440 -0.3452 -0.2808
19565TIP3   OH280185   4.453   5.493  14.519  0.1083  0.3619 -0.3135
19565TIP3    H180186   4.376   5.439  14.540 -0.5197  0.8934 -1.2108
19565TIP3    H280187   4.428   5.541  14.441  1.0188  1.2580 -0.0705
19566TIP3   OH280188   3.892   4.655   4.316 -0.3468 -0.2430 -0.5549
19566TIP3    H180189   3.861   4.579   4.265  0.0364  0.1312 -1.3709
19566TIP3    H280190   3.987   4.650   4.310 -0.2596 -0.6308  0.8121
19567TIP3   OH280191   4.351   5.809   2.810  0.4282 -0.4177  0.6102
19567TIP3    H180192   4.332   5.865   2.885  0.5458 -0.4420  0.6572
19567TIP3    H280193   4.407   5.863   2.754  1.5350 -0.9116  1.2176
19568TIP3   OH280194   2.828   4.398   4.661 -0.9733 -0.2179  0.3654
19568TIP3    H180195   2.823   4.307   4.632  1.1153 -0.6798  1.2725
19568TIP3    H280196   2.807   4.395   4.754  1.2073 -0.1743  0.9200
19569TIP3   OH280197   1.202   0.734  12.129 -0.2268  0.0542  0.2681
19569TIP3    H180198   1.279   0.731  12.071 -0.1931  1.2404  0.2085
19569TIP3    H280199   1.228   0.686  12.207 -0.2108 -1.4358 -0.6214
19570TIP3   OH280200   5.929   2.979   3.119  0.5543 -0.4073  0.1218
19570TIP3    H180201   5.964   2.899   3.080  2.8449 -1.4629  3.8353
19570TIP3    H280202   5.878   2.949   3.193  2.3002  1.4864  2.2307
19571TIP3   OH280203   6.245   6.714   5.335  0.0083 -0.2414 -0.5459
19571TIP3    H180204   6.164   6.765   5.333 -0.8310 -1.4856  0.1062
19571TIP3    H280205   6.272   6.716   5.427  1.4612  1.2325 -0.9605
19572TIP3   OH280206   3.959   6.376   1.805 -0.0997  0.0926 -0.1536
19572TIP3    H180207   3.998   6.424   1.878 -1.4676  1.8952 -0.5307
19572TIP3    H280208   3.935   6.291   1.842 -0.0169  0.6687  1.2969
19573TIP3   OH280209   6.202   2.126   4.133 -0.4699 -0.2274 -0.2292
19573TIP3    H180210   6.110   2.113   4.108 -0.4227 -0.4397 -0.2954
19573TIP3    H280211   6.237   2.186   4.067 -0.3344 -0.8162 -0.7003
19574TIP3   OH280212   2.252   2.718  15.425 -0.3479 -0.1402 -0.1737
19574TIP3    H180213   2.170   2.698  15.471  0.9828 -0.7425  2.1072
19574TIP3    H280214   2.270   2.810  15.447  0.6722 -0.6434  1.2235
19575TIP3   OH280215   6.467   4.718   6.395 -0.1592  0.1155 -0.4291
19575TIP3    H180216   6.486   4.772   6.318  2.6618  2.1844  1.4983
19575TIP3    H280217   6.426   4.777   6.457  0.2458 -0.7120  0.6662
19576TIP3   OH280218   5.250   3.546  12.024 -0.3118  0.4635  0.0582
19576TIP3    H180219   5.154   3.549  12.025 -0.2891  2.2984  0.9435
19576TIP3    H280220   5.274   3.509  12.110 -0.2329  2.6267  1.0181
19577TIP3   OH280221   4.517   2.745   2.929 -0.2321  0.2291  0.3666
19577TIP3    H180222   4.557   2.783   3.007  1.7847  1.0268 -0.9513
19577TIP3    H280223   4.486   2.821   2.879 -2.4852 -0.3313  0.8413
19578TIP3   OH280224   5.131   3.293  15.423 -0.7446 -0.1146  0.4815
19578TIP3    H180225   5.149   3.347  15.500 -1.1559  0.3809  0.2313
19578TIP3    H280226   5.210   3.238  15.414  0.6112  1.8744 -0.4741
19579TIP3   OH280227   6.403   1.976   3.113  0.1471  0.2387 -0.5214
19579TIP3    H180228   6.472   1.926   3.157 -1.8495 -3.0694 -0.8285
19579TIP3    H280229   6.394   1.933   3.028 -2.1477  0.6508 -0.5387
19580TIP3   OH280230   2.022   3.609  11.807 -0.0478  0.4580  0.0159
19580TIP3    H180231   2.058   3.656  11.732 -1.2239  0.5797 -0.5072
19580TIP3    H280232   2.091   3.548  11.833  0.3266  0.2988 -1.2796
19581TIP3   OH280233   6.213   1.285   1.154  0.0210 -0.3429 -0.1485
19581TIP3    H180234   6.286   1.300   1.094 -1.0709 -1.4181 -1.8472
19581TIP3    H280235   6.180   1.199   1.130 -2.4441  0.5367 -0.1846
19582TIP3   OH280236   2.412   2.137   0.799  0.0586 -0.1624 -0.1600
19582TIP3    H180237   2.361   2.057   0.803 -1.0017  0.5050  0.2198
19582TIP3    H280238   2.378   2.183   0.722 -1.7629  1.4400  1.4677
19583TIP3   OH280239   5.319   6.287  12.337  0.0214 -0.2234 -0.3635
19583TIP3    H180240   5.357   6.308  12.252 -0.0506  2.8802  0.2342
19583TIP3    H280241   5.224   6.286  12.322 -0.1994  3.1987  0.0503
19584TIP3   OH280242   2.070   3.915  12.472  0.1000  0.8649 -0.1365
19584TIP3    H180243   2.142   3.924  12.534  0.7231 -0.8422 -0.5603
19584TIP3    H280244   2.039   3.825  12.483 -0.2228  0.7310 -1.8081
19585TIP3   OH280245   5.503   3.179   5.431  0.3677 -0.3556  0.1555
19585TIP3    H180246   5.466   3.116   5.493  0.0800 -1.1997 -0.8399
19585TIP3    H280247   5.458   3.261   5.451  0.0038 -0.7021  0.8072
19586TIP3   OH280248   1.726   1.268  14.294  0.3548 -0.3767  0.0489
19586TIP3    H180249   1.715   1.212  14.217  0.0614  2.0000 -1.7404
19586TIP3    H280250   1.699   1.213  14.367 -0.8765 -2.2401 -1.6869
19587TIP3   OH280251   2.106   0.642  11.648 -0.4378 -0.2992 -0.5513
19587TIP3    H180252   2.054   0.682  11.579 -0.2598  0.2877 -0.3490
19587TIP3    H280253   2.043   0.594  11.701 -0.8291  0.6745 -0.1165
19588TIP3   OH280254   6.472   0.049   2.820  0.2980  0.5792 -0.1698
19588TIP3    H180255   6.395   0.050   2.763  0.1863  1.2936 -0.0062
19588TIP3    H280256   6.521   0.127   2.796  2.1312 -0.9649 -1.8377
19589TIP3   OH280257   3.663   5.977  14.770 -0.6909 -0.5423 -0.4691
19589TIP3    H180258   3.718   6.007  14.697 -0.8721 -0.9826 -0.7866
19589TIP3    H280259   3.602   6.050  14.784  0.4699  0.3006  0.4204
19590TIP3   OH280260   1.375   3.069  15.524 -0.1421 -0.6835 -1.0946
19590TIP3    H180261   1.288   3.100  15.498 -0.2770 -1.2648 -1.3569
19590TIP3    H280262   1.405   3.133  15.588 -0.9915 -0.7540 -0.5949
19591TIP3   OH280263   5.104   0.743   1.274  0.0915 -0.4644  0.1774
19591TIP3    H180264   5.046   0.674   1.304 -0.7975  0.4652  0.6725
19591TIP3    H280265   5.098   0.811   1.341 -0.8278  1.0649 -1.3598
19592TIP3   OH280266   5.158   2.407  15.454  0.1107  0.6532  0.5620
19592TIP3    H180267   5.245   2.425  15.418  1.2055 -0.6154  2.4227
19592TIP3    H280268   5.098   2.444  15.390  2.0106  1.6091 -0.7666
19593TIP3   OH280269   0.329   1.483  10.278  0.0830  0.1636 -0.0032
19593TIP3    H180270   0.371   1.405  10.314  0.4158 -0.2252 -1.1854
19593TIP3    H280271   0.396   1.552  10.285  0.4750 -0.1329 -0.6740
19594TIP3   OH280272   6.858   2.800   4.731 -0.0791 -0.8282  0.4014
19594TIP3    H180273   6.942   2.771   4.766  0.3738 -0.3816 -0.2949
19594TIP3    H280274   6.817   2.720   4.697  0.3606 -0.9501  0.1427
19595TIP3   OH280275   5.266   4.784   0.985  0.0127  0.3958 -0.2607
19595TIP3    H180276   5.258   4.720   0.914 -0.7052  0.7475 -0.5008
19595TIP3    H280277   5.214   4.747   1.056 -3.9992  2.5529 -1.7325
19596TIP3   OH280278   6.469   4.106   0.521  0.2404  0.0878  0.0467
19596TIP3    H180279   6.448   4.018   0.550  1.1906 -0.0230  0.4425
19596TIP3    H280280   6.398   4.161   0.554 -0.1757 -0.4776  0.0897
19597TIP3   OH280281   2.866   4.448   2.722 -0.1524 -0.1867  0.1966
19597TIP3    H180282   2.866   4.487   2.634 -1.2261  0.8454  0.6314
19597TIP3    H280283   2.779   4.407   2.729 -0.2443  0.1291  0.9308
19598TIP3   OH280284   4.819   4.828  14.540  0.2735 -0.2757  0.8167
19598TIP3    H180285   4.801   4.912  14.497  0.2115 -0.2957  0.8033
19598TIP3    H280286   4.741   4.775  14.521 -0.2371  0.0744  1.8438
19599TIP3   OH280287   6.056   5.134  11.523  0.1381 -0.4318  0.1725
19599TIP3    H180288   6.052   5.077  11.600 -0.5781 -0.6395 -0.0147
19599TIP3    H280289   6.040   5.076  11.449 -0.2714 -0.0507 -0.0432
19600TIP3   OH280290   6.577   4.041   5.248 -0.1031  0.4538  0.0963
19600TIP3    H180291   6.512   4.097   5.291 -1.5006 -0.2764 -0.9952
19600TIP3    H280292   6.592   3.969   5.311 -2.9014 -1.1587 -0.9306
19601TIP3   OH280293   2.624   6.123   3.088 -0.6885  0.7108 -0.2827
19601TIP3    H180294   2.538   6.154   3.116 -0.5652 -0.0557  1.0231
19601TIP3    H280295   2.642   6.048   3.144  0.3963  0.2333 -1.2243
19602TIP3   OH280296   2.130   3.397  15.004  0.2370  0.0471  0.7567
19602TIP3    H180297   2.143   3.364  14.915 -2.1718  0.5468  0.1207
19602TIP3    H280298   2.136   3.493  14.995 -1.1769  0.1746  0.8270
19603TIP3   OH280299   1.344   5.591   1.042  0.8877  0.4429 -0.1006
19603TIP3    H180300   1.316   5.660   1.102 -2.5441  0.5613 -1.6313
19603TIP3    H280301   1.379   5.523   1.100 -0.3634  1.3734  1.8894
19604TIP3   OH280302   2.843   4.202   9.982 -0.0686 -0.1533  0.5215
19604TIP3    H180303   2.779   4.270  10.001  0.9806  0.9934  0.0988
19604TIP3    H280304   2.928   4.247   9.986  0.6780 -1.5102  0.5530
19605TIP3   OH280305   6.726   5.670  12.074 -0.4550 -0.6752 -0.2585
19605TIP3    H180306   6.782   5.718  12.136 -1.3961 -0.6656  0.6313
19605TIP3    H280307   6.781   5.654  11.998  0.3244  0.5529  0.0219
19606TIP3   OH280308   3.898   2.816  16.254  0.1519 -0.7324 -0.0085
19606TIP3    H180309   3.841   2.799  16.179 -1.2954 -1.7518  1.2604
19606TIP3    H280310   3.900   2.911  16.263 -0.1061 -0.6286 -0.9920
19607TIP3   OH280311   2.541   0.010  16.002  0.2644 -0.8916 -0.1212
19607TIP3    H180312   2.576   0.054  15.925  3.2400 -0.7426  1.1420
19607TIP3    H280313   2.541  -0.083  15.979  0.3723 -0.7803 -0.5727
19608TIP3   OH280314   0.919   6.855   2.989 -0.3998 -0.6085  1.2438
19608TIP3    H180315   0.844   6.830   2.936  1.2550 -0.3082 -1.4765
19608TIP3    H280316   0.902   6.946   3.013 -0.0184  0.1952 -1.2414
19609TIP3   OH280317   5.223   6.404  12.893 -0.3344 -0.3313 -0.4470
19609TIP3    H180318   5.203   6.312  12.877  0.8959 -1.0022  1.5289
19609TIP3    H280319   5.227   6.411  12.989 -0.2351  1.7429 -0.5653
19610TIP3   OH280320   6.800   3.010  14.309  0.0005  0.2463  0.3559
19610TIP3    H180321   6.834   3.099  14.298  0.1025  0.2399  0.6155
19610TIP3    H280322   6.710   3.014  14.279 -0.2158  0.6031  1.0430
19611TIP3   OH280323   0.960   3.000   0.346 -0.2347 -0.0800  0.1360
19611TIP3    H180324   0.974   3.093   0.327 -1.4120  0.5966  2.1857
19611TIP3    H280325   1.043   2.969   0.382  0.5693 -0.2092 -1.7222
19612TIP3   OH280326   3.752   0.795  15.081 -0.7418  0.5651  0.2367
19612TIP3    H180327   3.709   0.880  15.079 -0.3585  0.7459 -1.6154
19612TIP3    H280328   3.845   0.814  15.074 -0.7236 -0.0260 -1.5279
19613TIP3   OH280329   3.626   4.665  12.694  0.4711 -0.7907  0.8667
19613TIP3    H180330   3.582   4.599  12.640  1.0768 -0.0245 -0.6061
19613TIP3    H280331   3.719   4.653  12.677  0.5586  1.0693 -0.2359
19614TIP3   OH280332   3.370   5.231  14.705 -0.0207 -0.1988  0.1028
19614TIP3    H180333   3.393   5.170  14.634 -0.5392 -0.7139  0.3625
19614TIP3    H280334   3.346   5.312  14.660 -0.3266 -0.5127 -0.3148
19615TIP3   OH280335   3.073   5.098   4.414 -0.2107 -0.0248  0.0832
19615TIP3    H180336   3.059   5.008   4.384 -0.9849 -0.0705  0.5330
19615TIP3    H280337   3.092   5.089   4.507  0.8783  0.2041 -0.1087
19616TIP3   OH280338   1.542   5.777   2.853 -0.5303 -0.3281  0.0159
19616TIP3    H180339   1.603   5.821   2.794 -0.3939 -0.6309 -0.0698
19616TIP3    H280340   1.599   5.729   2.914 -0.6899 -1.2167 -0.5229
19617TIP3   OH280341   6.408   0.826  16.600  0.3443 -0.3600 -0.5958
19617TIP3    H180342   6.490   0.873  16.587 -0.8813  2.0493 -0.1660
19617TIP3    H280343   6.403   0.812  16.694 -0.0058  0.0348 -0.5529
19618TIP3   OH280344   1.997   0.726  10.792 -0.4143  0.2065 -0.2253
19618TIP3    H180345   1.960   0.813  10.804  0.1207  0.5151 -0.8004
19618TIP3    H280346   1.927   0.676  10.749 -0.1420  0.8256 -1.4310
19619TIP3   OH280347   4.781   3.501   2.157 -0.3004 -0.3393 -0.2536
19619TIP3    H180348   4.777   3.585   2.111 -0.7751 -0.8919 -1.2587
19619TIP3    H280349   4.697   3.458   2.137 -1.7661  0.4725  3.3335
19620TIP3   OH280350   0.817   6.017  12.277  0.2280  0.2954  0.0577
19620TIP3    H180351   0.752   6.083  12.298  0.8080  1.3880 -1.4724
19620TIP3    H280352   0.854   5.993  12.362 -1.7995 -0.0276  0.9173
19621TIP3   OH280353   6.304   3.147   5.138  0.0248  0.0887 -0.3469
19621TIP3    H180354   6.254   3.099   5.072  1.1256  0.8030 -1.7524
19621TIP3    H280355   6.382   3.094   5.153 -0.0383  0.1181  0.1245
19622TIP3   OH280356   2.344   1.479   4.290 -0.1798  0.5542 -0.0647
19622TIP3    H180357   2.346   1.515   4.202  0.1923  1.3154  0.2441
19622TIP3    H280358   2.264   1.427   4.293 -1.0669  1.8403 -0.3637
19623TIP3   OH280359   1.802   6.827   4.437  0.0656  0.0459  0.3595
19623TIP3    H180360   1.766   6.907   4.475 -1.7692 -0.9292  0.8238
19623TIP3    H280361   1.769   6.827   4.347  1.7610  0.7844 -0.2921
19624TIP3   OH280362   2.514   5.458   2.247 -0.6189  0.5471  0.0144
19624TIP3    H180363   2.454   5.420   2.312 -0.8098  0.5566 -0.1554
19624TIP3    H280364   2.558   5.382   2.208  0.3346  0.5898  0.9461
19625TIP3   OH280365   0.734   3.166   3.022 -0.8472  0.3609  0.3505
19625TIP3    H180366   0.782   3.139   2.944 -1.3761  0.3055  0.0414
19625TIP3    H280367   0.715   3.084   3.068 -0.5488  0.3924  0.5380
19626TIP3   OH280368   2.950   4.449   1.997  0.5379 -0.2534  0.6987
19626TIP3    H180369   2.950   4.396   2.076  2.6692 -1.8828 -0.2832
19626TIP3    H280370   2.858   4.462   1.977 -0.0416 -1.0717  2.6141
19627TIP3   OH280371   3.645   6.158  13.643  0.1254 -0.4831 -0.0062
19627TIP3    H180372   3.555   6.137  13.617 -0.6208  2.2569  0.0242
19627TIP3    H280373   3.694   6.156  13.561 -0.3212 -0.4060 -0.2819
19628TIP3   OH280374   1.001   3.078   4.818  0.8880  0.4835  0.2437
19628TIP3    H180375   0.996   3.168   4.785  1.6031  0.1782 -0.7442
19628TIP3    H280376   1.095   3.059   4.822  0.7731  0.1016  1.3547
19629TIP3   OH280377   0.261   2.182   2.150  0.3277 -0.0193 -0.0051
19629TIP3    H180378   0.347   2.169   2.110  0.8311 -2.4566  1.6602
19629TIP3    H280379   0.267   2.269   2.191  1.2030  0.7550 -1.6976
19630TIP3   OH280380   1.718   1.819   3.805  0.0230 -0.3620 -0.1586
19630TIP3    H180381   1.676   1.764   3.740  1.4194 -0.2244 -1.2283
19630TIP3    H280382   1.810   1.821   3.779  0.0627  2.3470 -0.0816
19631TIP3   OH280383   1.460   6.111   1.711 -0.3100 -0.2594  0.3919
19631TIP3    H180384   1.500   6.103   1.625 -2.0728 -1.4074 -0.3716
19631TIP3    H280385   1.399   6.038   1.716 -1.2309  0.5667  2.0752
19632TIP3   OH280386   0.851   5.750  16.366  0.3457 -0.2309  0.1795
19632TIP3    H180387   0.901   5.669  16.363 -0.3500 -0.7796  2.0381
19632TIP3    H280388   0.775   5.730  16.420 -1.0317  1.0542 -1.1724
19633TIP3   OH280389   0.012   5.907  11.594 -0.0946 -0.1954 -0.2156
19633TIP3    H180390  -0.081   5.907  11.614  0.0489 -0.9289  0.5292
19633TIP3    H280391   0.021   5.843  11.523 -0.3007  0.7269 -1.0921
19634TIP3   OH280392   1.103   6.186   2.517 -0.2826  0.0342  0.1897
19634TIP3    H180393   1.026   6.241   2.501  0.9617  1.5020 -1.0664
19634TIP3    H280394   1.132   6.160   2.430 -0.1176 -1.6266  0.7171
19635TIP3   OH280395   3.015   3.904  16.896 -0.6926 -0.3927  0.5248
19635TIP3    H180396   3.020   3.855  16.978  0.5982 -0.2664  0.5512
19635TIP3    H280397   3.032   3.839  16.828  1.0980 -0.0177  0.5639
19636TIP3   OH280398   6.767   0.584  11.585 -0.4218  0.0656 -0.2189
19636TIP3    H180399   6.841   0.524  11.587 -0.3787  0.0034 -2.0467
19636TIP3    H280400   6.806   0.671  11.578 -0.5143  0.2544  1.1841
19637TIP3   OH280401   3.103   0.519  13.672 -0.2599 -0.0700  0.1217
19637TIP3    H180402   3.054   0.600  13.688 -0.8687 -0.5186  0.6108
19637TIP3    H280403   3.194   0.542  13.687 -0.5220  0.2945  1.2906
19638TIP3   OH280404   0.256   6.646   0.125 -0.0021 -0.1866  0.2285
19638TIP3    H180405   0.279   6.704   0.052  0.6111 -0.7428 -0.0194
19638TIP3    H280406   0.249   6.705   0.200 -1.4341  0.5195 -0.4029
19639TIP3   OH280407   1.412   1.043   3.014 -0.0438  0.1378  0.2922
19639TIP3    H180408   1.380   1.000   2.935  1.0682  0.1533 -0.1944
19639TIP3    H280409   1.382   0.988   3.086 -1.3674  0.3128 -0.1047
19640TIP3   OH280410   5.733   2.997  12.693 -0.5121 -0.3264 -0.1745
19640TIP3    H180411   5.778   3.058  12.751 -0.0974 -0.0177 -0.8083
19640TIP3    H280412   5.705   3.051  12.619  1.2027 -1.1460 -1.4843
19641TIP3   OH280413   2.999   4.539   4.960  0.3511 -0.0269 -1.1647
19641TIP3    H180414   2.961   4.457   4.928 -0.1020  0.1844 -1.1733
19641TIP3    H280415   3.018   4.589   4.881 -1.5610  0.8533 -1.1223
19642TIP3   OH280416   1.835   4.732   1.474 -0.2077 -0.4586 -0.4152
19642TIP3    H180417   1.785   4.657   1.441  0.1759 -0.3348 -1.3002
19642TIP3    H280418   1.913   4.735   1.418  1.5281 -1.5083  1.8020
19643TIP3   OH280419   4.072   2.169  12.453 -0.0841 -0.2256 -0.6423
19643TIP3    H180420   4.143   2.144  12.395  0.6344  1.5101 -0.5746
19643TIP3    H280421   4.098   2.255  12.487 -1.5521 -0.1873  0.4750
19644TIP3   OH280422   2.508   4.351   4.824  0.3871 -0.0489 -0.1099
19644TIP3    H180423   2.517   4.266   4.780  0.3657 -0.0667 -0.0800
19644TIP3    H280424   2.413   4.367   4.826  0.3317 -0.4439  0.6769
19645TIP3   OH280425   6.258   6.112   4.107  0.4183 -0.6700  0.5393
19645TIP3    H180426   6.246   6.076   4.195  1.2291  0.2492  1.0405
19645TIP3    H280427   6.175   6.155   4.087  0.2856 -0.7426  0.9234
19646TIP3   OH280428   1.001   2.692   4.682  0.0677 -0.0163  0.0321
19646TIP3    H180429   1.038   2.763   4.630  0.4196 -0.1688  0.0762
19646TIP3    H280430   1.020   2.716   4.773  0.0208 -0.0756  0.0578
19647TIP3   OH280431   3.083   4.530  15.969  0.6628 -0.0099 -0.2596
19647TIP3    H180432   3.051   4.443  15.943 -0.3658  0.3738 -0.3221
19647TIP3    H280433   3.115   4.569  15.888  2.1807 -0.7369 -0.0473
19648TIP3   OH280434   2.664   1.399  12.214  0.1262  0.1339  0.1712
19648TIP3    H180435   2.750   1.366  12.186  0.2686  2.0978 -1.9346
19648TIP3    H280436   2.611   1.320  12.227  1.3463 -1.0314 -1.5480
19649TIP3   OH280437   3.859   1.702   4.961  0.3222  0.0370  0.0913
19649TIP3    H180438   3.798   1.696   4.887  0.4927  0.6411 -0.1015
19649TIP3    H280439   3.885   1.794   4.964  0.0217  0.0999  1.1507
19650TIP3   OH280440   0.443   5.823  14.074 -0.6348 -0.5125 -0.0013
19650TIP3    H180441   0.453   5.742  14.024 -1.2348  0.4192 -1.7038
19650TIP3    H280442   0.389   5.798  14.149  1.0732 -2.1522  0.7525
19651TIP3   OH280443   3.791   5.333   2.368  0.2691 -0.3525 -0.0392
19651TIP3    H180444   3.799   5.269   2.297  0.6701  1.1473 -1.4035
19651TIP3    H280445   3.728   5.397   2.336  0.0084  0.0463  1.2249
19652TIP3   OH280446   5.515   4.151  14.831 -0.1720  0.1007  0.2554
19652TIP3    H180447   5.421   4.161  14.846 -0.2834  0.0719 -0.4007
19652TIP3    H280448   5.535   4.212  14.760  0.2344 -0.1600  0.1436
19653TIP3   OH280449   4.166   5.975  13.609  0.1710 -0.1051 -0.3943
19653TIP3    H180450   4.106   5.905  13.634 -0.1584  0.2204 -0.2553
19653TIP3    H280451   4.146   6.046  13.671  0.9910 -0.1438 -0.0755
19654TIP3   OH280452   1.841   0.848   3.815 -0.4712 -0.4105  0.2554
19654TIP3    H180453   1.771   0.833   3.751 -2.8610 -0.8918  2.7914
19654TIP3    H280454   1.854   0.763   3.857  2.1825 -0.4977 -0.5467
19655TIP3   OH280455   4.765   6.532   2.707 -0.3036  0.4323  0.5209
19655TIP3    H180456   4.717   6.590   2.648 -2.3082 -0.4550  1.1934
19655TIP3    H280457   4.830   6.488   2.651 -0.4674  1.4362 -0.4854
19656TIP3   OH280458   2.357   2.312  14.671 -0.0443 -0.0842 -0.2283
19656TIP3    H180459   2.273   2.269  14.686 -0.5827 -0.2612 -3.1273
19656TIP3    H280460   2.334   2.399  14.639  0.8769 -0.0341 -0.7880
19657TIP3   OH280461   3.519   0.926   3.754  0.0059  0.3752  0.5009
19657TIP3    H180462   3.539   0.888   3.839 -0.4291  2.7030  1.7187
19657TIP3    H280463   3.429   0.957   3.761 -0.2488  0.0943 -1.0239
19658TIP3   OH280464   3.202   5.507  17.049  0.3921 -0.4895  0.1185
19658TIP3    H180465   3.237   5.418  17.060  0.6854 -0.3020  0.7809
19658TIP3    H280466   3.124   5.509  17.105  0.3154 -0.3654  0.0088
19659TIP3   OH280467   5.001   4.228   0.788 -0.0898  0.2856 -0.4168
19659TIP3    H180468   4.951   4.304   0.818 -1.3801 -1.1259  1.2574
19659TIP3    H280469   4.941   4.182   0.729 -0.4540 -0.8574  0.7739
19660TIP3   OH280470   0.939   5.417  15.465 -0.0247 -0.1228  0.0515
19660TIP3    H180471   0.913   5.445  15.377 -4.2865  2.4663  1.8591
19660TIP3    H280472   0.985   5.492  15.501  2.0208 -1.3073  0.0358
19661TIP3   OH280473   5.049   6.847   0.962 -0.0689 -0.3029  1.2541
19661TIP3    H180474   5.035   6.934   0.998  2.4066 -0.6462  3.3866
19661TIP3    H280475   5.144   6.841   0.950 -0.4050 -1.7768 -1.5097
19662TIP3   OH280476   3.849   6.821  10.894  0.6018  0.5234 -0.2970
19662TIP3    H180477   3.793   6.744  10.901 -0.2256  1.1460  0.2286
19662TIP3    H280478   3.925   6.792  10.844  1.0330 -1.0421  1.1713
19663TIP3   OH280479   4.616   3.558  17.088 -0.1375 -0.8140  0.1308
19663TIP3    H180480   4.612   3.547  17.183  0.0730 -0.7171  0.1519
19663TIP3    H280481   4.528   3.537  17.058  0.1014 -2.0007  0.2152
19664TIP3   OH280482   6.802   2.542   3.150  0.4509 -0.1887 -0.4268
19664TIP3    H180483   6.860   2.488   3.204 -0.8127 -0.9303  0.2423
19664TIP3    H280484   6.720   2.494   3.147 -0.4573  1.2917 -0.5307
19665TIP3   OH280485   0.113   1.045  14.520 -0.3127  0.4544 -0.0770
19665TIP3    H180486   0.203   1.013  14.520 -0.3206  0.4018  0.9088
19665TIP3    H280487   0.121   1.140  14.513 -0.1862  0.4386 -0.1453
19666TIP3   OH280488   3.857   1.391  13.038 -0.1388 -0.2132 -0.4396
19666TIP3    H180489   3.819   1.473  13.006  0.4038 -0.1907 -1.0399
19666TIP3    H280490   3.902   1.416  13.119 -0.2333  0.0238 -0.4599
19667TIP3   OH280491   2.012   0.587   4.627  0.4379 -0.4779  0.2387
19667TIP3    H180492   2.041   0.659   4.683  0.7976  2.7291 -3.6146
19667TIP3    H280493   1.919   0.604   4.613 -0.0963 -2.3250  1.1639
19668TIP3   OH280494   6.630   5.991   5.776  0.5566 -0.2456 -0.1907
19668TIP3    H180495   6.568   6.054   5.811  2.1296 -0.5232  3.5422
19668TIP3    H280496   6.695   6.045   5.730 -1.3909  0.1639 -2.6806
19669TIP3   OH280497   4.108   1.344   1.195 -0.5601 -0.5903  0.4692
19669TIP3    H180498   4.157   1.408   1.143  1.0556 -1.8835  0.2874
19669TIP3    H280499   4.084   1.391   1.274 -3.8117  1.7190 -1.6260
19670TIP3   OH280500   3.527   2.098   0.983  0.2698  0.0694  0.3980
19670TIP3    H180501   3.497   2.032   1.046  1.4700  0.5294  1.4940
19670TIP3    H280502   3.501   2.063   0.898 -0.8003 -0.8911  1.0892
19671TIP3   OH280503   4.232   5.570   2.726  0.6485 -0.5703 -0.5520
19671TIP3    H180504   4.272   5.656   2.736 -0.0359 -0.2472 -0.5477
19671TIP3    H280505   4.139   5.588   2.710  0.5148 -1.3020 -0.6373
19672TIP3   OH280506   5.143   6.790   1.277 -0.2294 -0.0729 -0.2390
19672TIP3    H180507   5.164   6.797   1.184 -0.2308 -0.5467 -0.2770
19672TIP3    H280508   5.214   6.738   1.314  0.4721  1.2065  0.2824
19673TIP3   OH280509   3.231   1.161  15.256 -0.4336  0.1891 -0.3046
19673TIP3    H180510   3.167   1.092  15.273 -0.8762 -0.1784 -2.9521
19673TIP3    H280511   3.288   1.125  15.189  0.3263  1.8112 -0.5945
19674TIP3   OH280512   3.919   0.416   1.751 -0.1597 -0.2407 -0.1037
19674TIP3    H180513   3.909   0.498   1.800  0.5600  0.0816 -0.4659
19674TIP3    H280514   3.890   0.439   1.662  1.3307  0.0223 -0.5466
19675TIP3   OH280515   2.667   3.252   2.283  0.4204 -0.3489 -0.2059
19675TIP3    H180516   2.581   3.286   2.308  1.0352  0.5028  0.8330
19675TIP3    H280517   2.652   3.159   2.266 -0.9083  0.0113 -1.1399
19676TIP3   OH280518   1.726   4.029  13.925  0.0047  0.1307 -0.0135
19676TIP3    H180519   1.673   3.965  13.972  0.2537 -0.3071 -0.3184
19676TIP3    H280520   1.663   4.085  13.881 -0.2089 -0.8732 -1.0221
19677TIP3   OH280521   5.026   2.262  16.480 -0.8191 -0.1855  0.1883
19677TIP3    H180522   5.027   2.220  16.566  0.3279 -0.1482  0.2142
19677TIP3    H280523   5.008   2.191  16.418 -1.1746 -0.2964  0.4149
19678TIP3   OH280524   4.285   4.536   2.720 -0.1371  0.5333  0.1210
19678TIP3    H180525   4.363   4.544   2.775  1.2133 -2.2058 -1.2285
19678TIP3    H280526   4.294   4.607   2.656 -0.4295  2.1505  1.7651
19679TIP3   OH280527   4.218   4.733  16.608 -0.2621  0.3484  0.0911
19679TIP3    H180528   4.243   4.746  16.516  0.5853 -0.5005  0.1858
19679TIP3    H280529   4.279   4.667  16.640 -0.4118  0.7862  1.3335
19680TIP3   OH280530   5.766   5.090   5.723  0.6769 -0.5615 -0.6871
19680TIP3    H180531   5.789   5.147   5.650  0.9531 -0.4745 -0.5325
19680TIP3    H280532   5.751   5.149   5.797 -0.8455 -0.5460 -0.9687
19681TIP3   OH280533   2.887   5.127  11.827 -0.4335  0.5052  0.5476
19681TIP3    H180534   2.910   5.066  11.897 -0.6458  0.2510  0.3972
19681TIP3    H280535   2.791   5.125  11.824 -0.4771  1.4332  1.0603
19682TIP3   OH280536   3.356   3.806  16.301  0.1922 -0.1323  0.4371
19682TIP3    H180537   3.345   3.727  16.247  0.3182  0.5823 -0.6582
19682TIP3    H280538   3.434   3.848  16.266 -0.3936  0.9549  0.4008
19683TIP3   OH280539   1.495   1.128  14.595 -0.5530  0.4894  0.3794
19683TIP3    H180540   1.571   1.093  14.549  0.4495  0.8568  1.6838
19683TIP3    H280541   1.524   1.213  14.628 -1.3986  0.4583  1.2532
19684TIP3   OH280542   3.014   4.875   5.701  0.2424 -0.2362  0.1024
19684TIP3    H180543   3.061   4.848   5.780 -0.4569  0.5684  0.8228
19684TIP3    H280544   3.053   4.959   5.677 -0.0079 -0.1466  0.0051
19685TIP3   OH280545   4.326   5.313   1.676 -0.4952 -0.2992 -0.4706
19685TIP3    H180546   4.409   5.284   1.638  0.4665  2.0455 -0.3507
19685TIP3    H280547   4.272   5.234   1.679  1.4021 -1.7208 -1.3799
19686TIP3   OH280548   4.659   4.893  13.046  0.7830  0.0976  0.1288
19686TIP3    H180549   4.712   4.971  13.027  1.3351 -0.4399 -0.5710
19686TIP3    H280550   4.708   4.846  13.112  0.6525  0.1283  0.2489
19687TIP3   OH280551   0.722   2.904   3.541  0.3103  0.2195 -0.2311
19687TIP3    H180552   0.796   2.866   3.589  1.2706  0.6682 -1.3196
19687TIP3    H280553   0.730   2.998   3.555  0.3947  0.3286 -0.9679
19688TIP3   OH280554   4.546   1.543  16.019  0.3668 -1.1660 -0.4389
19688TIP3    H180555   4.627   1.520  16.065 -0.7866 -2.5361  0.9917
19688TIP3    H280556   4.477   1.501  16.069 -1.0016 -2.7484 -3.3841
19689TIP3   OH280557   2.438   4.246  15.931 -0.8864  0.0414  0.3908
19689TIP3    H180558   2.381   4.169  15.926 -0.8033 -0.0414  0.6553
19689TIP3    H280559   2.491   4.231  16.010 -0.8443  0.3533  0.4253
19690TIP3   OH280560   0.386   2.586   2.950 -0.4770  0.5995 -0.0174
19690TIP3    H180561   0.417   2.507   2.906 -3.0924  0.0600 -1.0628
19690TIP3    H280562   0.399   2.656   2.887  1.8865  1.1439  0.9267
19691TIP3   OH280563   3.522   0.418   6.410  0.5676  0.4972 -0.1217
19691TIP3    H180564   3.586   0.347   6.413 -0.9543 -0.8971  0.7645
19691TIP3    H280565   3.437   0.375   6.414 -0.4704  2.2933 -1.2369
19692TIP3   OH280566   4.505   4.871  16.079 -0.1503  0.7060  0.5238
19692TIP3    H180567   4.455   4.791  16.058  0.8390  0.5302 -1.3207
19692TIP3    H280568   4.587   4.838  16.116  0.2641  0.8474 -0.2520
19693TIP3   OH280569   5.811   5.641  15.514  0.1326  0.0848  0.3305
19693TIP3    H180570   5.752   5.652  15.589 -0.0382 -0.4506  0.2786
19693TIP3    H280571   5.805   5.548  15.492 -0.2693  0.3450 -0.7192
19694TIP3   OH280572   4.008   1.890  10.777  0.1517  0.3792 -0.2141
19694TIP3    H180573   3.942   1.958  10.758  0.4526  1.1809  1.3826
19694TIP3    H280574   4.013   1.838  10.697 -2.0053  0.6487 -0.5857
19695TIP3   OH280575   1.247   0.395   2.233  0.5857 -0.1049 -0.2334
19695TIP3    H180576   1.314   0.333   2.262 -0.5153 -1.7862 -1.1307
19695TIP3    H280577   1.296   0.474   2.210  2.1681 -1.0094 -0.1154
19696TIP3   OH280578   3.933   3.656   1.512 -0.2840 -1.1386 -0.2346
19696TIP3    H180579   3.878   3.626   1.439  0.5497 -2.4224 -0.3632
19696TIP3    H280580   3.930   3.751   1.506 -3.3208 -1.0829  0.3890
19697TIP3   OH280581   3.770   1.872  16.729  0.0598 -0.6646 -0.1540
19697TIP3    H180582   3.692   1.828  16.695 -1.3210  1.9272 -0.6538
19697TIP3    H280583   3.743   1.905  16.815 -0.4320  2.5318 -1.4047
19698TIP3   OH280584   2.936   1.411  11.515 -0.4329  0.2684  0.1208
19698TIP3    H180585   3.010   1.449  11.564 -0.1756  0.6463 -0.5493
19698TIP3    H280586   2.963   1.416  11.424 -2.6113  3.5448 -0.5120
19699TIP3   OH280587   0.096   6.304  12.150 -0.4875 -0.1514 -0.3951
19699TIP3    H180588   0.161   6.324  12.083  3.8044  0.9095  3.5708
19699TIP3    H280589   0.121   6.218  12.183 -0.4528  0.6510  1.8103
19700TIP3   OH280590   2.852   4.659  11.460 -0.5014 -0.2799  0.1783
19700TIP3    H180591   2.816   4.598  11.396 -0.6861 -0.7434  0.7151
19700TIP3    H280592   2.804   4.740  11.446  0.1475 -0.0810 -0.9287
19701TIP3   OH280593   4.815   2.235  13.470  0.6498 -0.0020 -0.1298
19701TIP3    H180594   4.831   2.311  13.525  0.6601 -0.9196  1.1831
19701TIP3    H280595   4.902   2.202  13.448  0.7270 -1.5063  2.0544
19702TIP3   OH280596   5.055   6.116  11.915 -0.2842  0.7337  0.2617
19702TIP3    H180597   5.003   6.050  11.869  0.1552  1.0247 -0.6885
19702TIP3    H280598   5.058   6.190  11.855  2.7682  0.0501 -0.5972
19703TIP3   OH280599   0.668   3.580   5.885  0.2505 -0.2503  0.1349
19703TIP3    H180600   0.636   3.502   5.931  1.9613 -1.6102 -0.8415
19703TIP3    H280601   0.612   3.587   5.808 -0.5862  0.1558  0.7574
19704TIP3   OH280602   3.945   2.092  11.687  0.3329  0.3691  0.2033
19704TIP3    H180603   3.887   2.151  11.734 -0.2498  1.0538 -1.2945
19704TIP3    H280604   4.031   2.132  11.693 -0.0960  1.5445 -0.9912
19705TIP3   OH280605   0.386   1.471   1.000  0.4777  0.2855 -0.2185
19705TIP3    H180606   0.383   1.513   1.086 -0.5459  2.0424 -1.0434
19705TIP3    H280607   0.298   1.485   0.964  0.8624 -0.4776 -1.5161
19706TIP3   OH280608   3.950   4.753  14.183 -0.3924  0.1950  0.3276
19706TIP3    H180609   3.904   4.669  14.184  0.2024 -0.1404 -0.3140
19706TIP3    H280610   3.917   4.797  14.105  0.5926 -0.1761 -0.3130
19707TIP3   OH280611   4.536   6.101  11.490  0.3719 -0.2963  0.8157
19707TIP3    H180612   4.524   6.170  11.425 -0.5058  0.6113  1.8852
19707TIP3    H280613   4.597   6.138  11.554  0.0260 -0.5731  1.3140
19708TIP3   OH280614   3.608   4.697   1.625  0.2147 -0.9932 -0.0100
19708TIP3    H180615   3.582   4.755   1.697  1.9011  0.1699 -0.2907
19708TIP3    H280616   3.645   4.620   1.668  1.5537 -0.1463  0.4086
19709TIP3   OH280617   4.076   1.116   2.516 -0.5045  0.1827 -0.5909
19709TIP3    H180618   4.013   1.180   2.484  0.3506  1.7782  0.7235
19709TIP3    H280619   4.069   1.121   2.612  1.2771  0.1307 -0.4092
19710TIP3   OH280620   0.799   6.149  14.820  0.5320  0.1278  0.3286
19710TIP3    H180621   0.771   6.163  14.730 -0.3911  0.1396  0.6105
19710TIP3    H280622   0.722   6.168  14.873  0.9806 -0.1543  1.1070
19711TIP3   OH280623   1.209   5.797   4.606 -0.2652 -0.9708 -0.6220
19711TIP3    H180624   1.262   5.726   4.642  1.5909  1.0069  0.7331
19711TIP3    H280625   1.257   5.825   4.528  0.4532  0.4652  0.3014
19712TIP3   OH280626   6.859   5.135  16.520 -0.5487 -0.1957 -0.1677
19712TIP3    H180627   6.909   5.205  16.562 -0.2092 -0.8313  0.5070
19712TIP3    H280628   6.924   5.086  16.469 -0.9442  0.5336 -1.4246
19713TIP3   OH280629   0.972   1.631  15.954 -0.4027 -0.3832  0.1411
19713TIP3    H180630   1.067   1.637  15.956 -0.4321 -0.0246  0.7204
19713TIP3    H280631   0.950   1.578  16.030 -0.5855 -1.8407 -0.8818
19714TIP3   OH280632   2.693   2.716  15.422  0.5039  0.2902  0.3692
19714TIP3    H180633   2.761   2.649  15.414 -0.3667 -0.6621  0.7686
19714TIP3    H280634   2.611   2.667  15.420 -0.1520  1.3521  0.6838
19715TIP3   OH280635   2.038   5.469   4.599 -0.0957 -0.0350 -0.1121
19715TIP3    H180636   2.047   5.557   4.634 -0.0695 -0.6389  1.4444
19715TIP3    H280637   2.008   5.416   4.672 -2.9283 -0.8134 -1.6740
19716TIP3   OH280638   1.391   5.402  11.582 -0.3551 -0.5737  0.6169
19716TIP3    H180639   1.449   5.475  11.560 -1.7420  0.5437  0.5068
19716TIP3    H280640   1.344   5.383  11.501 -1.1210 -0.5183  1.0376
19717TIP3   OH280641   2.871   6.499  10.836 -0.9431 -0.7016  0.1221
19717TIP3    H180642   2.921   6.528  10.760 -1.3151 -0.6662 -0.1086
19717TIP3    H280643   2.826   6.578  10.866  1.0285 -0.1235  1.8057
19718TIP3   OH280644   6.410   3.618  16.235 -0.5890  0.5027 -0.6766
19718TIP3    H180645   6.343   3.551  16.248 -0.5794  1.0083  2.9655
19718TIP3    H280646   6.379   3.669  16.161 -1.1375 -2.7410 -2.9289
19719TIP3   OH280647   2.234   6.754   0.308  0.0935  0.0606  0.5391
19719TIP3    H180648   2.277   6.839   0.300 -1.7376  1.1733  1.6647
19719TIP3    H280649   2.298   6.699   0.354  0.0052  1.9725  3.1873
19720TIP3   OH280650   6.619   0.874  12.880 -0.0329 -0.2113 -0.4579
19720TIP3    H180651   6.596   0.791  12.838 -0.6522  0.4964 -1.5549
19720TIP3    H280652   6.616   0.939  12.810  0.9647  0.6638  0.2781
19721TIP3   OH280653   1.437   3.333   4.970 -0.0657  0.4779  0.6703
19721TIP3    H180654   1.521   3.308   4.931 -0.2421 -1.2664  1.3025
19721TIP3    H280655   1.434   3.284   5.053 -1.1440  1.5271  1.2892
19722TIP3   OH280656   6.690   1.568   1.728 -0.0779 -0.4358  0.0325
19722TIP3    H180657   6.697   1.526   1.642  0.0105 -0.6126  0.1257
19722TIP3    H280658   6.769   1.621   1.736 -0.8970  0.9787 -0.7350
19723TIP3   OH280659   5.986   3.247  15.345  0.4676  0.5486 -0.0775
19723TIP3    H180660   5.910   3.202  15.380  0.3114  0.6869 -0.2403
19723TIP3    H280661   6.060   3.210  15.393  0.3006  0.4015  0.0665
19724TIP3   OH280662   0.581   4.643   5.947  0.4912  0.3549 -0.7346
19724TIP3    H180663   0.607   4.730   5.978 -0.5600  1.1332 -1.9260
19724TIP3    H280664   0.589   4.587   6.023  0.1634  1.7194  0.3406
19725TIP3   OH280665   0.308   6.342  14.454 -0.0051 -0.1381 -0.4821
19725TIP3    H180666   0.341   6.310  14.539  1.8742 -1.2900 -1.5677
19725TIP3    H280667   0.284   6.263  14.407  2.0624  0.1844 -2.2034
19726TIP3   OH280668   3.521   6.339  10.345  1.1639 -0.1707  0.0745
19726TIP3    H180669   3.529   6.286  10.424  1.3048 -2.0206 -1.1147
19726TIP3    H280670   3.561   6.423  10.367 -0.4554  0.0384  2.5297
19727TIP3   OH280671   1.809   4.004  16.689  0.0470  0.4136  0.6722
19727TIP3    H180672   1.816   3.909  16.683  0.0681  0.3743  1.3492
19727TIP3    H280673   1.718   4.020  16.713 -0.0099  0.5769  0.3578
19728TIP3   OH280674   0.173   0.010  13.859 -0.1230  1.0072 -0.1244
19728TIP3    H180675   0.118  -0.063  13.888  0.7535 -0.0119 -0.9482
19728TIP3    H280676   0.141   0.030  13.770  0.5960  0.6355 -0.4732
19729TIP3   OH280677   3.383   1.289  15.489  0.2549  0.4816 -0.0302
19729TIP3    H180678   3.340   1.266  15.571 -1.5089  0.9840 -0.7454
19729TIP3    H280679   3.389   1.207  15.441 -0.6898  0.5191 -0.2380
19730TIP3   OH280680   4.643   1.111   3.271 -0.2351  0.2239  0.7166
19730TIP3    H180681   4.688   1.029   3.254  0.0953  0.6676 -0.6510
19730TIP3    H280682   4.710   1.167   3.311 -0.3481 -0.0177  1.2594
19731TIP3   OH280683   2.317   5.027  13.491  0.3490 -0.4042 -0.2196
19731TIP3    H180684   2.258   5.088  13.536  0.5017 -0.5125  0.1355
19731TIP3    H280685   2.320   4.950  13.548  0.4408 -0.5980 -0.4871
19732TIP3   OH280686   1.481   1.913   3.498  0.2150 -0.2117  0.1372
19732TIP3    H180687   1.426   1.970   3.445  1.5963 -1.0929 -2.4229
19732TIP3    H280688   1.438   1.827   3.494 -1.9608  0.4490  4.1278
19733TIP3   OH280689   1.446   2.014  11.619 -0.0781  0.7345 -0.2325
19733TIP3    H180690   1.528   2.020  11.667 -0.0029 -2.2823  0.2341
19733TIP3    H280691   1.471   2.030  11.528  0.6461  1.6984  0.1161
19734TIP3   OH280692   4.963   0.315  12.246 -0.0881 -0.2493 -0.0449
19734TIP3    H180693   4.882   0.325  12.296  0.9099  0.6815  1.4595
19734TIP3    H280694   5.033   0.315  12.312  1.1928 -0.4580 -1.3347
19735TIP3   OH280695   0.189   5.291  13.628  0.4042  0.2896 -0.7050
19735TIP3    H180696   0.245   5.325  13.698  1.9583  3.0204 -3.0505
19735TIP3    H280697   0.227   5.326  13.547 -0.8429 -3.2357 -3.0870
19736TIP3   OH280698   0.557   1.894   3.860  0.2877  0.3174  0.0962
19736TIP3    H180699   0.567   1.891   3.955  1.6626 -1.2055 -0.0436
19736TIP3    H280700   0.623   1.957   3.831  1.6684 -1.0905  0.0199
19737TIP3   OH280701   0.534   4.131  15.687  0.2185  0.0932 -0.0800
19737TIP3    H180702   0.502   4.067  15.622  1.6946  1.5827 -2.4517
19737TIP3    H280703   0.628   4.138  15.668  0.4854  1.4000  1.5559
19738TIP3   OH280704   6.764   0.329   4.046 -0.1281  0.0944  0.2210
19738TIP3    H180705   6.744   0.251   4.097  1.2528 -0.0576  0.5798
19738TIP3    H280706   6.700   0.394   4.075  0.6651  0.0371  2.2470
19739TIP3   OH280707   3.370   5.861  15.502 -0.3460  0.2791 -0.1283
19739TIP3    H180708   3.299   5.884  15.562 -0.0431 -0.2239  0.4285
19739TIP3    H280709   3.446   5.909  15.535 -0.3231  0.4691 -0.4598
19740TIP3   OH280710   2.294   4.809  17.095 -0.3844 -0.4553  0.0745
19740TIP3    H180711   2.232   4.843  17.031  1.4067 -0.5397 -1.7758
19740TIP3    H280712   2.281   4.714  17.092 -0.8581 -0.4103  0.4676
19741TIP3   OH280713   3.247   5.813  15.081 -0.4273  0.1833  0.5933
19741TIP3    H180714   3.285   5.731  15.048  0.1473  1.1250 -1.2135
19741TIP3    H280715   3.152   5.801  15.071 -0.4384 -0.8020  1.7244
19742TIP3   OH280716   2.937   2.936   0.249 -0.7158  0.0180 -0.4093
19742TIP3    H180717   2.861   2.986   0.220 -1.4787 -0.4583  0.7322
19742TIP3    H280718   2.945   2.956   0.342  1.2717  0.9824 -0.7150
19743TIP3   OH280719   2.557   1.158   2.361  0.4225 -0.0443 -0.1286
19743TIP3    H180720   2.530   1.206   2.282 -0.6955 -0.2522  0.1102
19743TIP3    H280721   2.519   1.208   2.433 -0.1985 -0.9100  0.1621
19744TIP3   OH280722   5.797   5.598  14.687  0.9903 -0.2271  0.5738
19744TIP3    H180723   5.785   5.535  14.758 -3.5670 -0.3513  0.0098
19744TIP3    H280724   5.838   5.548  14.616  3.0867 -0.8078  2.1219
19745TIP3   OH280725   2.640   6.042   6.543  0.4439 -0.6087  0.0764
19745TIP3    H180726   2.548   6.054   6.518  0.6703  0.8262 -0.1765
19745TIP3    H280727   2.654   5.948   6.539 -0.7770 -0.7770 -0.7856
19746TIP3   OH280728   1.991   1.545  13.228  0.0807  0.0329  0.6768
19746TIP3    H180729   1.987   1.501  13.143  0.9568 -0.2624  0.7797
19746TIP3    H280730   1.917   1.605  13.227  0.4251  0.4689 -0.5360
19747TIP3   OH280731   4.901   3.210   4.457  0.0810  0.1139  0.6021
19747TIP3    H180732   4.845   3.159   4.515  1.6537 -0.8553  1.3537
19747TIP3    H280733   4.885   3.301   4.482 -3.9953  0.3303 -1.8449
19748TIP3   OH280734   6.815   2.150  13.305  0.2119 -0.4822 -0.0278
19748TIP3    H180735   6.825   2.226  13.363  0.5573  0.0942 -0.8121
19748TIP3    H280736   6.900   2.142  13.261 -0.2889 -0.3958 -1.0405
19749TIP3   OH280737   2.475   4.325  13.810  0.3804  0.0369  0.1998
19749TIP3    H180738   2.451   4.263  13.742 -0.1740 -1.1425  1.4218
19749TIP3    H280739   2.466   4.411  13.768  1.2809 -0.6796 -1.5556
19750TIP3   OH280740   4.660   5.647   3.394  0.1731 -0.1335  0.0267
19750TIP3    H180741   4.684   5.728   3.439  1.6461  0.0045 -0.9544
19750TIP3    H280742   4.649   5.583   3.464 -2.0199  1.0842  0.9261
19751TIP3   OH280743   6.288   3.756   1.606  0.0327 -0.1228 -0.1106
19751TIP3    H180744   6.267   3.718   1.692  0.1024 -0.0373 -0.0563
19751TIP3    H280745   6.355   3.821   1.624 -0.6887  0.6357 -0.0830
19752TIP3   OH280746   6.333   0.709   2.176  0.1736 -0.0565  0.0419
19752TIP3    H180747   6.245   0.730   2.144  0.2676  1.1321  0.5312
19752TIP3    H280748   6.373   0.660   2.104 -0.4444  0.5049 -0.7048
19753TIP3   OH280749   3.684   3.120  14.206 -0.0433 -0.8812 -0.5574
19753TIP3    H180750   3.750   3.187  14.226 -1.5638  0.2554  0.8535
19753TIP3    H280751   3.736   3.041  14.187  1.7891  0.5744 -1.9992
19754TIP3   OH280752   5.857   2.320  13.617 -0.0155  0.2381 -0.0993
19754TIP3    H180753   5.882   2.307  13.526  0.0712 -0.8519  0.0654
19754TIP3    H280754   5.913   2.391  13.647 -0.2920  0.8469 -0.9860
19755TIP3   OH280755   6.376   0.709   0.994  0.2907 -0.2107  0.5380
19755TIP3    H180756   6.366   0.786   1.049 -0.1284 -0.7854  1.2850
19755TIP3    H280757   6.312   0.720   0.924 -0.3996 -0.3069  1.1440
19756TIP3   OH280758   4.338   1.603   2.824  0.1200 -0.1558  0.5651
19756TIP3    H180759   4.334   1.698   2.817 -0.6462 -0.2629 -1.0406
19756TIP3    H280760   4.277   1.572   2.756  0.9803 -1.7839  0.4963
19757TIP3   OH280761   0.723   6.082  12.580  0.3142 -0.1794  0.3424
19757TIP3    H180762   0.680   6.016  12.634 -0.7974 -0.4250 -0.7850
19757TIP3    H280763   0.658   6.151  12.570  0.5722 -0.0353 -0.4807
19758TIP3   OH280764   4.091   0.046   1.106 -0.0143  0.4370  0.0577
19758TIP3    H180765   4.182   0.075   1.104  0.0940  0.1008 -1.3755
19758TIP3    H280766   4.056   0.079   1.189  1.1552  1.3418  0.2107
19759TIP3   OH280767   5.139   3.564   5.258  0.2202  0.4534  0.2702
19759TIP3    H180768   5.169   3.632   5.318 -1.7213  0.3190  1.5114
19759TIP3    H280769   5.166   3.482   5.299  1.6708  0.4139 -0.7077
19760TIP3   OH280770   4.421   0.229  15.320  0.4381 -0.1414 -0.1416
19760TIP3    H180771   4.405   0.310  15.369 -0.1009 -0.0318 -0.4973
19760TIP3    H280772   4.456   0.258  15.236  2.7068 -0.3700  0.6374
19761TIP3   OH280773   0.654   3.137  13.624  0.3177  0.3953  0.6905
19761TIP3    H180774   0.621   3.131  13.714 -0.1914  1.1877  0.5663
19761TIP3    H280775   0.635   3.227  13.597 -1.5276 -0.3876 -0.9365
19762TIP3   OH280776   3.923   2.421  14.171 -0.1110  0.0841  0.8029
19762TIP3    H180777   3.970   2.435  14.253  1.1297 -0.2451  0.1801
19762TIP3    H280778   3.850   2.364  14.194  0.1008  0.1643  1.7119
19763TIP3   OH280779   6.771   2.028  16.214  0.0622 -0.4090  0.0436
19763TIP3    H180780   6.791   2.004  16.305 -0.1246 -0.2495  0.1263
19763TIP3    H280781   6.794   1.949  16.164  1.5656 -0.0066  0.0478
19764TIP3   OH280782   4.540   1.330  15.612  0.2767  0.4411  0.4523
19764TIP3    H180783   4.595   1.258  15.583 -0.2441  0.7752 -1.4896
19764TIP3    H280784   4.602   1.399  15.637  0.7498 -0.1892  1.0782
19765TIP3   OH280785   0.903   5.200   0.297 -0.0108 -0.5339 -0.9155
19765TIP3    H180786   0.986   5.248   0.297  1.5678 -3.0570 -2.0961
19765TIP3    H280787   0.921   5.121   0.347 -2.5660  0.0407  1.0952
19766TIP3   OH280788   2.020   6.013  11.776  0.0234 -0.0558  0.2713
19766TIP3    H180789   2.007   5.928  11.735 -0.7957 -0.5140  1.4160
19766TIP3    H280790   1.988   6.077  11.712  1.4584 -0.5006 -0.9666
19767TIP3   OH280791   4.044   3.549   2.797  0.0065  0.0653  0.0260
19767TIP3    H180792   4.136   3.522   2.796  0.2787  0.9551  0.3952
19767TIP3    H280793   4.044   3.634   2.840 -1.1515 -0.4957  1.2446
19768TIP3   OH280794   2.073   1.272   5.528  0.0292  0.2167  0.2498
19768TIP3    H180795   1.991   1.308   5.562  0.1722  1.3249 -0.5309
19768TIP3    H280796   2.115   1.233   5.604 -1.0960 -0.1364  0.7150
19769TIP3   OH280797   6.703   2.960  12.703 -0.2240 -0.1527  0.0003
19769TIP3    H180798   6.622   2.969  12.653 -0.0638 -0.4971 -0.3289
19769TIP3    H280799   6.772   2.984  12.641 -0.0983  0.5320  0.3992
19770TIP3   OH280800   0.632   4.877   6.163  0.3525 -0.1130  0.1262
19770TIP3    H180801   0.603   4.967   6.147 -2.1990 -0.3259  2.7525
19770TIP3    H280802   0.676   4.881   6.247 -1.3632 -1.5318  1.1546
19771TIP3   OH280803   5.764   4.045   2.210  0.3107  0.0424  0.1408
19771TIP3    H180804   5.792   4.019   2.122  0.2953 -0.5719  0.3174
19771TIP3    H280805   5.692   4.106   2.195  0.1079 -0.2972 -0.2672
19772TIP3   OH280806   2.656   0.994  15.573  0.5844 -0.4698 -0.5115
19772TIP3    H180807   2.595   0.934  15.616 -0.1283  1.0177  0.6418
19772TIP3    H280808   2.706   1.032  15.645 -0.2927  1.7170 -0.9753
19773TIP3   OH280809   1.384   4.508  13.959 -0.1181 -0.4412  0.3248
19773TIP3    H180810   1.446   4.456  13.908 -1.2852 -2.7668  1.1768
19773TIP3    H280811   1.436   4.584  13.987  3.3685 -3.4768  3.2789
19774TIP3   OH280812   6.160   1.259   4.578  0.2835  0.2280  0.7159
19774TIP3    H180813   6.127   1.173   4.606  0.6289  0.3225  1.4435
19774TIP3    H280814   6.248   1.243   4.546  0.2422  0.2701  0.5793
19775TIP3   OH280815   6.780   0.258  12.244  0.4802 -0.1017  0.5998
19775TIP3    H180816   6.862   0.211  12.257 -0.6402 -2.4654 -0.3199
19775TIP3    H280817   6.775   0.272  12.149 -1.2563 -2.2721  0.2805
19776TIP3   OH280818   2.023   5.819   2.328 -0.4223 -0.0358 -0.1125
19776TIP3    H180819   2.043   5.732   2.363  1.6839 -0.7460 -2.6695
19776TIP3    H280820   1.935   5.811   2.291 -0.2922 -1.0666 -0.2227
19777TIP3   OH280821   1.675   4.239   1.946  1.0011 -0.1326 -0.8903
19777TIP3    H180822   1.616   4.207   1.877  1.1665  0.7844 -1.4825
19777TIP3    H280823   1.675   4.334   1.934 -0.0124  0.1847  1.2380
19778TIP3   OH280824   3.570   1.476   5.440  0.5986  0.2775 -0.1026
19778TIP3    H180825   3.642   1.422   5.473  0.5983 -0.3166 -1.0448
19778TIP3    H280826   3.607   1.563   5.431  1.3953 -0.1497 -1.1544
19779TIP3   OH280827   0.170   5.431  13.269 -0.1439  0.4032  0.0427
19779TIP3    H180828   0.123   5.513  13.248  1.7292  1.7562  0.8484
19779TIP3    H280829   0.230   5.456  13.339  0.2810 -1.7781  0.5031
19780TIP3   OH280830   4.068   1.022  16.512 -0.0117 -0.2450 -0.3111
19780TIP3    H180831   4.010   0.973  16.570 -1.1754  0.4621 -0.8253
19780TIP3    H280832   4.070   1.110  16.549 -1.3609  0.4207 -1.6750
19781TIP3   OH280833   2.743   6.621   3.440  0.2394  0.7121  0.6909
19781TIP3    H180834   2.788   6.697   3.404 -1.6659  1.7840  0.4037
19781TIP3    H280835   2.761   6.625   3.534  1.1470  0.7908  0.5233
19782TIP3   OH280836   0.980   4.126  14.606 -0.0534 -0.2907  0.1875
19782TIP3    H180837   1.065   4.163  14.581 -0.9808  0.4543 -2.1305
19782TIP3    H280838   0.940   4.194  14.661 -0.0006  0.3019 -0.4885
19783TIP3   OH280839   5.188   2.863  15.506 -0.4853 -0.0455 -0.0086
19783TIP3    H180840   5.207   2.868  15.600  2.3214  1.7999 -0.5377
19783TIP3    H280841   5.108   2.914  15.495  1.8171  4.2223  0.9273
19784TIP3   OH280842   0.392   2.217  16.420 -0.8690 -0.3470  0.0414
19784TIP3    H180843   0.328   2.287  16.410 -0.4709  0.1956  1.1131
19784TIP3    H280844   0.349   2.152  16.476 -0.9132 -0.5443 -0.2194
19785TIP3   OH280845   4.863   5.998  12.855 -0.3942  0.4899  0.3671
19785TIP3    H180846   4.886   6.075  12.804  0.6627  0.3667  0.6452
19785TIP3    H280847   4.794   5.955  12.804 -1.7647  2.1573  0.7172
19786TIP3   OH280848   1.450   4.177   5.782 -0.2175 -0.3969  0.5868
19786TIP3    H180849   1.542   4.183   5.754 -0.3812  2.6928  0.4092
19786TIP3    H280850   1.454   4.130   5.865  1.4565 -0.8291  0.3120
19787TIP3   OH280851   1.459   4.166   0.936  0.0242 -0.6340  0.2399
19787TIP3    H180852   1.460   4.150   1.031  0.1219  0.7494  0.4962
19787TIP3    H280853   1.550   4.154   0.909  0.9032  2.8149  1.0946
19788TIP3   OH280854   2.451   5.378  14.654  0.5267  0.0369 -0.3508
19788TIP3    H180855   2.377   5.319  14.667  1.3639 -0.7164  1.3690
19788TIP3    H280856   2.426   5.458  14.701  1.0734 -0.5040  0.9248
19789TIP3   OH280857   0.036   2.385   3.958 -0.2204 -1.1332 -0.7395
19789TIP3    H180858  -0.013   2.338   4.025 -1.4773  0.3707 -0.5366
19789TIP3    H280859  -0.020   2.459   3.935  1.5100  0.0735 -1.2904
19790TIP3   OH280860   2.700   1.675  13.530 -0.4639 -0.6528 -0.6336
19790TIP3    H180861   2.687   1.580  13.526  0.0435 -0.7312 -0.5804
19790TIP3    H280862   2.776   1.691  13.474 -0.5538 -0.2768 -0.6509
19791TIP3   OH280863   4.728   0.218  16.497  0.1196 -0.1827  0.2428
19791TIP3    H180864   4.725   0.241  16.404 -0.7334 -0.1244  0.2756
19791TIP3    H280865   4.668   0.279  16.538 -1.1635 -1.5827  0.5243
19792TIP3   OH280866   3.472   2.330   1.945 -0.5281 -0.6869  0.7626
19792TIP3    H180867   3.547   2.341   1.886 -1.2582  1.8774  0.2002
19792TIP3    H280868   3.417   2.265   1.901  0.4178 -1.1408  0.2052
19793TIP3   OH280869   4.332   5.429   6.642 -0.0367 -0.7328  0.1350
19793TIP3    H180870   4.413   5.378   6.652  0.2731 -0.5810 -1.3669
19793TIP3    H280871   4.265   5.363   6.623 -0.2461 -0.8392  1.1839
19794TIP3   OH280872   0.093   5.639   0.744 -0.5982  0.2927  0.1411
19794TIP3    H180873   0.080   5.688   0.825 -3.6312  1.2830 -0.7970
19794TIP3    H280874   0.079   5.548   0.768 -3.6093  0.7454  0.4851
19795TIP3   OH280875   1.440   3.444  16.328 -0.0510  0.1354 -0.7334
19795TIP3    H180876   1.515   3.483  16.373  0.7374 -0.9441 -1.0635
19795TIP3    H280877   1.424   3.501  16.253  1.6212 -0.5990 -1.6883
19796TIP3   OH280878   5.586   0.044   5.706  0.0957 -0.4400 -0.1320
19796TIP3    H180879   5.535   0.112   5.749  0.4803  1.3995 -2.4129
19796TIP3    H280880   5.522  -0.008   5.657 -0.1347 -1.4691  1.1994
19797TIP3   OH280881   4.573   3.825  15.480  1.0936  0.5308 -0.0509
19797TIP3    H180882   4.510   3.871  15.536  1.9538  1.6121  0.0654
19797TIP3    H280883   4.553   3.855  15.391  0.2536 -0.5664 -0.2547
19798TIP3   OH280884   5.927   5.759   2.118  0.1835  0.2757 -0.1527
19798TIP3    H180885   5.927   5.674   2.075 -1.2812  0.4200 -0.4674
19798TIP3    H280886   5.868   5.749   2.193  0.3886  0.8713  0.1012
19799TIP3   OH280887   0.918   3.891   4.359  0.2682 -0.6822 -0.4649
19799TIP3    H180888   0.868   3.957   4.407  0.7586 -0.1091 -0.7260
19799TIP3    H280889   0.981   3.942   4.308  1.6388 -1.4099  0.4355
19800TIP3   OH280890   6.197   1.065   3.228  0.0154 -0.6205 -0.0876
19800TIP3    H180891   6.154   1.093   3.147 -0.3807 -0.4208  0.1867
19800TIP3    H280892   6.286   1.042   3.202 -0.5622 -2.0503 -0.8546
19801TIP3   OH280893   3.490   4.154   3.553  0.0769  0.1399  0.2549
19801TIP3    H180894   3.427   4.225   3.536 -0.4694 -0.6184 -1.0297
19801TIP3    H280895   3.557   4.195   3.607 -1.5890  0.9409  1.8163
19802TIP3   OH280896   2.972   2.252   2.436 -0.3042 -0.2985 -0.5311
19802TIP3    H180897   2.964   2.183   2.370  0.6755 -0.9082 -0.0344
19802TIP3    H280898   3.037   2.218   2.498 -1.7933 -0.1208  1.2097
19803TIP3   OH280899   5.405   2.131  12.403  0.6481 -0.2055  0.3332
19803TIP3    H180900   5.339   2.117  12.471  0.5024 -3.3672 -0.3165
19803TIP3    H280901   5.385   2.066  12.336  2.0640  1.4211 -1.7918
19804TIP3   OH280902   3.817   0.993   0.696  0.1452 -0.1464 -0.6070
19804TIP3    H180903   3.822   1.070   0.752 -0.3790  0.6829 -1.6549
19804TIP3    H280904   3.793   0.922   0.755 -2.0365  0.9951 -0.0082
19805TIP3   OH280905   0.082   5.730   1.001  0.4757  0.0715 -0.0601
19805TIP3    H180906  -0.003   5.703   1.036  0.0466  0.1133 -1.0342
19805TIP3    H280907   0.109   5.803   1.056  0.5949 -0.8941  1.2045
19806TIP3   OH280908   2.004   4.034  11.643 -0.2896 -0.1222  0.9990
19806TIP3    H180909   1.958   4.087  11.577 -0.0833 -1.6628 -0.4525
19806TIP3    H280910   1.939   4.019  11.711 -1.8625 -1.7704 -0.7398
19807TIP3   OH280911   4.205   1.568   5.690  0.1246 -0.0739  0.3480
19807TIP3    H180912   4.271   1.634   5.709  0.5142  0.1972 -1.7392
19807TIP3    H280913   4.156   1.558   5.772  0.6861  2.0595  0.9937
19808TIP3   OH280914   1.244   0.739  12.786 -0.4990  0.5959  0.1190
19808TIP3    H180915   1.315   0.676  12.784 -0.6818  0.3495  0.9411
19808TIP3    H280916   1.269   0.806  12.723  0.7847  0.8499  0.8723
19809TIP3   OH280917   2.985   2.789  14.256 -0.0195  0.3397 -0.3447
19809TIP3    H180918   3.054   2.845  14.293  0.9445 -1.5240  0.8808
19809TIP3    H280919   3.031   2.709  14.231 -1.5120 -0.3341 -1.0359
19810TIP3   OH280920   3.364   4.723   1.509 -0.0921  0.1089 -0.5217
19810TIP3    H180921   3.446   4.763   1.539 -0.4129  0.8641 -0.6328
19810TIP3    H280922   3.387   4.681   1.426  0.3277 -0.2414 -0.2327
19811TIP3   OH280923   0.736   5.056  15.465 -0.4422  0.3790 -0.0861
19811TIP3    H180924   0.656   5.009  15.491 -0.2259  0.6341  1.0938
19811TIP3    H280925   0.706   5.120  15.401 -0.7887 -1.1638 -1.5423
19812TIP3   OH280926   3.918   4.487   6.791 -0.2890 -0.3543 -0.2443
19812TIP3    H180927   3.829   4.456   6.810 -0.3784  0.0998  0.0914
19812TIP3    H280928   3.974   4.411   6.806 -0.3217  0.0090  2.0897
19813TIP3   OH280929   0.819   0.648  16.933 -0.0581 -0.3110 -0.3234
19813TIP3    H180930   0.835   0.565  16.888 -0.4352 -1.0079  0.7856
19813TIP3    H280931   0.734   0.677  16.900 -0.4605 -0.9555  0.1234
19814TIP3   OH280932   1.324   0.392   4.991 -0.0956 -0.4152 -0.5067
19814TIP3    H180933   1.240   0.433   5.011  0.9722  0.8251  1.7654
19814TIP3    H280934   1.303   0.326   4.926 -2.4772  1.2906 -1.6092
19815TIP3   OH280935   5.944   6.670  14.421 -0.4730 -0.1984 -0.5557
19815TIP3    H180936   5.884   6.602  14.453  1.3677 -0.5883  2.3887
19815TIP3    H280937   5.944   6.736  14.490  3.4182 -0.8569  0.3114
19816TIP3   OH280938   2.822   5.465  16.436 -0.6081 -0.7119 -0.4281
19816TIP3    H180939   2.891   5.417  16.482 -0.7698 -0.2510  0.3189
19816TIP3    H280940   2.769   5.502  16.506  0.8997  2.6721 -0.8984
19817TIP3   OH280941   1.801   1.281  13.786  0.4908 -0.2224  0.3014
19817TIP3    H180942   1.789   1.187  13.772  1.0367 -0.0397 -1.6232
19817TIP3    H280943   1.866   1.287  13.856 -0.0248 -1.2528  0.8969
19818TIP3   OH280944   4.358   1.392   0.641  0.3531  0.0190 -0.0424
19818TIP3    H180945   4.312   1.476   0.644 -0.9261 -0.6777  0.2234
19818TIP3    H280946   4.410   1.390   0.722  2.0413  1.4306 -1.0139
19819TIP3   OH280947   1.651   5.816  11.754  0.2135  0.6453 -0.2795
19819TIP3    H180948   1.601   5.875  11.696 -0.4679 -1.2916 -1.7547
19819TIP3    H280949   1.588   5.791  11.821  0.3897  1.2423  0.1219
19820TIP3   OH280950   5.783   3.774   0.923  0.4473  0.3766  0.0448
19820TIP3    H180951   5.825   3.842   0.871  2.7822 -1.1987 -0.2858
19820TIP3    H280952   5.839   3.764   1.000 -0.1519 -0.7717  0.3573
19821TIP3   OH280953   5.018   0.501  15.184  0.1565 -0.6636 -0.0165
19821TIP3    H180954   4.988   0.445  15.112  0.5941 -1.1998  0.2095
19821TIP3    H280955   5.107   0.471  15.202  0.8592  0.9163 -0.6930
19822TIP3   OH280956   4.040   0.870   0.058  0.7462 -0.5686  0.1665
19822TIP3    H180957   4.062   0.885   0.150 -0.4264 -2.7433  0.8561
19822TIP3    H280958   4.084   0.788   0.036 -0.7475 -1.2266 -0.5209
19823TIP3   OH280959   2.198   5.652   3.324 -0.0817 -0.7848  0.0698
19823TIP3    H180960   2.263   5.583   3.336 -0.0373 -0.7213  0.1926
19823TIP3    H280961   2.198   5.669   3.230  2.4587  1.5145  0.3721
19824TIP3   OH280962   2.930   0.746  15.794  0.0393 -0.0137 -0.3142
19824TIP3    H180963   2.987   0.672  15.816  0.0635  0.2461  0.4870
19824TIP3    H280964   2.856   0.705  15.748  0.3969 -0.4527 -0.5137
19825TIP3   OH280965   4.925   6.239  16.375  0.0989 -0.4500  0.0950
19825TIP3    H180966   5.008   6.255  16.419  1.1680  1.0721 -2.2956
19825TIP3    H280967   4.879   6.323  16.380 -0.9801 -1.0477  0.6530
19826TIP3   OH280968   1.209   2.920  16.674 -0.3172 -0.3433 -0.7787
19826TIP3    H180969   1.233   2.857  16.742  2.1818 -0.1307 -1.3798
19826TIP3    H280970   1.188   2.867  16.598 -1.7884 -0.5279 -0.2804
19827TIP3   OH280971   3.755   2.440  16.166 -0.3484 -0.0177  0.3955
19827TIP3    H180972   3.671   2.469  16.203 -0.1059 -1.5321  2.2849
19827TIP3    H280973   3.752   2.345  16.170 -0.0196 -0.3135 -3.0851
19828TIP3   OH280974   0.725   6.070   6.659 -0.7357 -0.0166  0.4004
19828TIP3    H180975   0.778   6.061   6.738 -1.6637 -0.9002  0.9367
19828TIP3    H280976   0.789   6.080   6.588  0.2613 -2.6429  0.8047
19829TIP3   OH280977   3.711   0.406  10.980 -0.1414  0.4433 -0.1130
19829TIP3    H180978   3.727   0.374  11.069 -1.1497  0.5258  0.1025
19829TIP3    H280979   3.690   0.327  10.930 -2.5087  0.6962  0.3925
19830TIP3   OH280980   4.711   0.413  16.909 -0.5866  0.6848  0.6595
19830TIP3    H180981   4.652   0.422  16.834  2.0178  1.0982 -1.4677
19830TIP3    H280982   4.680   0.334  16.954 -2.1330  0.3250 -0.9108
19831TIP3   OH280983   6.022   3.746  13.986  0.2639 -0.0326  0.6849
19831TIP3    H180984   6.031   3.666  13.935  0.2996  0.8566 -0.7856
19831TIP3    H280985   5.927   3.760  13.992  0.2656  0.0294  0.5721
19832TIP3   OH280986   6.045   3.280   5.301  0.2230 -0.5445 -0.0081
19832TIP3    H180987   5.954   3.306   5.288  0.9163  0.8766 -2.8205
19832TIP3    H280988   6.060   3.214   5.233  1.6319  0.2758 -0.5241
19833TIP3   OH280989   3.343   0.049   2.555 -0.2524  0.3299 -0.2900
19833TIP3    H180990   3.322   0.135   2.592 -1.0910 -0.4249  1.0333
19833TIP3    H280991   3.270  -0.007   2.581  0.5904 -0.9394 -0.5990
19834TIP3   OH280992   0.292   2.131  13.792  0.1471  0.1093  0.3974
19834TIP3    H180993   0.222   2.143  13.856  1.6829  1.5911  1.9191
19834TIP3    H280994   0.266   2.053  13.742 -2.4245  0.4750  1.0261
19835TIP3   OH280995   3.678   1.513  12.334 -0.0995 -0.3342  0.2273
19835TIP3    H180996   3.759   1.503  12.383  1.3481 -1.9083 -2.2918
19835TIP3    H280997   3.674   1.606  12.312  0.8486 -0.1893  0.6517
19836TIP3   OH280998   1.818   0.248  16.885  0.0488 -0.1530  0.2493
19836TIP3    H180999   1.806   0.309  16.813 -2.7842 -0.4882  0.3250
19836TIP3    H281000   1.882   0.184  16.851  0.8698  1.2047 -0.8807
19837TIP3   OH281001   0.005   1.641  15.674  0.0547 -0.3070 -0.0278
19837TIP3    H181002   0.014   1.646  15.579 -0.0985 -0.0154 -0.0265
19837TIP3    H281003   0.050   1.719  15.707 -0.8234  0.1627  0.0775
19838TIP3   OH281004   6.675   4.684   4.022  0.1444 -0.5405 -0.4441
19838TIP3    H181005   6.619   4.755   4.053 -0.4794 -0.3580 -1.9161
19838TIP3    H281006   6.762   4.723   4.016  0.0251 -0.2253 -0.1259
19839TIP3   OH281007   4.831   5.919   5.619 -0.1741  0.0545  0.1656
19839TIP3    H181008   4.742   5.904   5.648 -0.4549 -0.0373 -0.7114
19839TIP3    H281009   4.844   5.858   5.546  0.6297  0.0029  0.3357
19840TIP3   OH281010   0.769   1.905  13.778 -0.1410  0.5512  0.1927
19840TIP3    H181011   0.843   1.964  13.792  0.4253  0.1050 -0.8152
19840TIP3    H281012   0.704   1.958  13.733 -0.4440  0.9485  1.0882
19841TIP3   OH281013   6.661   5.332  13.903  0.0890  0.1663 -0.2689
19841TIP3    H181014   6.571   5.361  13.914  0.5398  1.5251  0.0257
19841TIP3    H281015   6.668   5.255  13.960 -0.5029  0.8930  0.8211
19842TIP3   OH281016   5.788   5.499   1.248  0.4437 -0.0051  0.2552
19842TIP3    H181017   5.727   5.551   1.197  0.4840 -0.7121 -0.5363
19842TIP3    H281018   5.861   5.482   1.189 -0.5243 -2.7904 -0.3165
19843TIP3   OH281019   1.589   4.708  13.981 -0.9045  0.1273  0.7032
19843TIP3    H181020   1.546   4.791  14.002  1.2727  1.2575  0.9759
19843TIP3    H281021   1.631   4.724  13.896 -1.0274 -0.9251  0.4302
19844TIP3   OH281022   4.490   5.459  14.875  0.4256  1.3481  0.2470
19844TIP3    H181023   4.497   5.527  14.808 -0.3238  1.6722  0.4913
19844TIP3    H281024   4.455   5.383  14.829  0.7295  1.2946  0.0963
19845TIP3   OH281025   2.039   4.090   4.768 -0.0179  0.5317  0.4655
19845TIP3    H181026   2.105   4.080   4.837 -0.3980  0.8859  0.8913
19845TIP3    H281027   2.064   4.026   4.701  0.6575  0.5440  0.6952
19846TIP3   OH281028   4.541   0.524  15.789  0.0260 -0.1681  0.0377
19846TIP3    H181029   4.550   0.591  15.858 -1.5517 -0.0497  0.1717
19846TIP3    H281030   4.446   0.512  15.781  0.2634 -1.7188 -0.6472
19847TIP3   OH281031   3.920   3.850  16.711  0.3768  0.8669  0.1206
19847TIP3    H181032   3.850   3.809  16.762  0.5270 -0.0928 -0.4134
19847TIP3    H281033   3.989   3.870  16.775 -0.0009  0.9503  0.5018
19848TIP3   OH281034   6.104   5.162   0.249 -1.1003 -0.1738 -0.2446
19848TIP3    H181035   6.029   5.221   0.239 -1.0867 -0.2727 -1.0074
19848TIP3    H281036   6.179   5.215   0.222 -0.9270 -0.1556  0.2712
19849TIP3   OH281037   4.657   3.651  16.203  0.5026  0.0359  0.2209
19849TIP3    H181038   4.647   3.620  16.113  0.5542  0.1518  0.1753
19849TIP3    H281039   4.735   3.607  16.236  0.4631 -0.0343  0.2228
19850TIP3   OH281040   5.205   6.035   1.530  0.4061 -0.3399 -0.7245
19850TIP3    H181041   5.217   6.125   1.501 -1.6926  0.4246  0.5604
19850TIP3    H281042   5.143   5.998   1.468 -1.9608  0.4649  0.9905
19851TIP3   OH281043   6.409   0.286  15.733 -0.1956 -0.4783  0.8695
19851TIP3    H181044   6.461   0.244  15.664 -2.1608 -2.4913  0.4973
19851TIP3    H281045   6.423   0.232  15.811  1.0181  1.0554  1.7621
19852TIP3   OH281046   2.235   4.845  11.848 -0.1981 -0.1400  0.2279
19852TIP3    H181047   2.269   4.756  11.846  0.4176  0.0965 -0.5374
19852TIP3    H281048   2.231   4.872  11.756  2.2364  1.5543  0.4965
19853TIP3   OH281049   5.840   3.544  16.677 -0.4758  0.4648  0.5510
19853TIP3    H181050   5.875   3.553  16.588 -0.3481  0.1624  0.5688
19853TIP3    H281051   5.785   3.466  16.672 -1.2982  1.0403  0.4773
19854TIP3   OH281052   5.561   3.678   2.814 -0.1677 -0.4270 -0.8732
19854TIP3    H181053   5.648   3.643   2.837  0.3639  1.3735 -0.0172
19854TIP3    H281054   5.519   3.694   2.898 -1.3854 -1.3289 -1.2871
19855TIP3   OH281055   6.534   6.094  14.898  0.7460  0.4867  0.0146
19855TIP3    H181056   6.522   6.011  14.945  2.8941  0.0772 -0.0753
19855TIP3    H281057   6.514   6.073  14.807  0.2823  0.3310  0.1493
19856TIP3   OH281058   3.426   1.559   0.692 -0.3363  0.2588  0.1538
19856TIP3    H181059   3.519   1.580   0.684 -0.4317  0.6561  0.0622
19856TIP3    H281060   3.419   1.510   0.774 -0.4183  2.5246  1.5858
19857TIP3   OH281061   6.280   5.430  15.771 -0.4795  0.1501 -1.1593
19857TIP3    H181062   6.197   5.472  15.793 -0.4072 -0.7299  1.0207
19857TIP3    H281063   6.256   5.341  15.746 -0.3102  0.3523 -2.0700
19858TIP3   OH281064   2.593   1.692  11.892 -0.1240  0.1839 -0.0014
19858TIP3    H181065   2.644   1.718  11.968 -1.0375  0.6764  0.4547
19858TIP3    H281066   2.601   1.596  11.889 -1.0973  0.0327  1.4624
19859TIP3   OH281067   3.070   2.265  13.007  0.7511 -0.2852  0.4265
19859TIP3    H181068   3.029   2.350  12.990  2.0817  0.3912  0.4311
19859TIP3    H281069   3.124   2.248  12.930  0.1071 -1.3932  0.1948
19860TIP3   OH281070   6.306   5.441   5.911 -0.6898  0.2570 -0.1065
19860TIP3    H181071   6.318   5.533   5.933 -0.5772  0.0327  0.7841
19860TIP3    H281072   6.381   5.421   5.854 -2.1440  1.4032 -2.6223
19861TIP3   OH281073   0.497   0.516  13.468 -0.2915  0.2633 -0.6609
19861TIP3    H181074   0.562   0.555  13.410  0.0948 -0.0958 -0.4756
19861TIP3    H281075   0.504   0.565  13.549  2.0063 -1.7508  0.4944
19862TIP3   OH281076   6.006   4.100   5.179  0.2452 -0.3761  0.2833
19862TIP3    H181077   5.919   4.134   5.201  0.9894  1.1603  0.9722
19862TIP3    H281078   6.067   4.156   5.226  1.7592  0.1650 -2.1309
19863TIP3   OH281079   2.852   5.035   2.806 -0.2185 -0.2444 -0.1310
19863TIP3    H181080   2.892   5.082   2.879 -0.0712  2.1246 -1.6147
19863TIP3    H281081   2.772   5.084   2.787  0.7442  0.4459 -2.7655
19864TIP3   OH281082   4.048   4.518  10.814 -0.3964 -0.1000  0.4967
19864TIP3    H181083   4.073   4.552  10.900 -0.4715  0.5478  0.2710
19864TIP3    H281084   3.970   4.568  10.791  0.0531  0.2561 -0.2753
19865TIP3   OH281085   2.016   3.221  16.073  0.2290 -0.0124  0.4099
19865TIP3    H181086   2.049   3.298  16.027 -0.0044  0.6780  1.3594
19865TIP3    H281087   1.931   3.203  16.033  0.7330 -0.4086 -0.5037
19866TIP3   OH281088   6.028   4.974   3.145  0.0270  0.1010 -0.2000
19866TIP3    H181089   5.941   4.988   3.105  0.6371 -0.0631 -1.6695
19866TIP3    H281090   6.081   4.940   3.073  0.9808 -1.0376  1.0120
19867TIP3   OH281091   6.194   2.223  15.747  0.4107 -0.4941  0.0773
19867TIP3    H181092   6.224   2.219  15.656  0.2560 -0.8835  0.0411
19867TIP3    H281093   6.259   2.277  15.791 -0.7417  1.6744 -0.7417
19868TIP3   OH281094   5.705   6.450   1.411 -0.6962  0.0867 -0.1675
19868TIP3    H181095   5.688   6.456   1.317 -0.6497 -0.3533 -0.2044
19868TIP3    H281096   5.799   6.465   1.419 -0.2443 -2.2308 -0.4369
19869TIP3   OH281097   0.369   2.783   5.360  0.1388 -0.4604  0.0817
19869TIP3    H181098   0.348   2.850   5.295  0.0925  0.3206  0.8803
19869TIP3    H281099   0.455   2.751   5.335  0.2390  0.0335 -0.2082
19870TIP3   OH281100   2.489   5.393  13.369 -0.0296 -0.8035  0.2854
19870TIP3    H181101   2.398   5.363  13.373 -0.1232 -0.4069  2.6432
19870TIP3    H281102   2.487   5.481  13.405  1.3136 -0.8816  0.6015
19871TIP3   OH281103   3.081   0.847   3.040 -0.5973  0.1302  0.1964
19871TIP3    H181104   3.142   0.914   3.070  0.7656 -0.8173 -0.3547
19871TIP3    H281105   3.135   0.769   3.026 -1.6863 -0.3487 -1.7276
19872TIP3   OH281106   2.883   2.330  14.672  0.1120  0.1616  0.0882
19872TIP3    H181107   2.801   2.287  14.650  0.3269  0.2539 -0.9466
19872TIP3    H281108   2.872   2.358  14.763 -1.5023  1.2991 -0.4035
19873TIP3   OH281109   0.481   4.870   4.963 -0.1594  0.0814 -0.0546
19873TIP3    H181110   0.547   4.846   5.028 -0.4147  1.4426  0.7654
19873TIP3    H281111   0.426   4.792   4.954 -1.8315  0.6181  3.5610
19874TIP3   OH281112   3.101   3.410   4.666  0.8053 -0.2043  0.2214
19874TIP3    H181113   3.007   3.395   4.658  0.4978  1.7334 -0.2449
19874TIP3    H281114   3.121   3.386   4.757 -0.3865  0.4802  0.6867
19875TIP3   OH281115   1.758   2.747   2.815 -0.3116 -0.7174  0.1123
19875TIP3    H181116   1.836   2.699   2.844 -0.3219  0.0657  1.5614
19875TIP3    H281117   1.712   2.768   2.896 -1.3398 -0.0083 -0.6292
19876TIP3   OH281118   1.909   1.337  13.396  0.2693  1.2104  0.2289
19876TIP3    H181119   1.814   1.343  13.389  0.0052 -2.2650 -1.6102
19876TIP3    H281120   1.941   1.416  13.351 -1.7162  1.8950 -0.1063
19877TIP3   OH281121   1.775   1.960  13.978  0.1524  0.0905  0.0172
19877TIP3    H181122   1.847   1.928  14.033 -0.8117 -0.1257  1.2095
19877TIP3    H281123   1.784   2.056  13.980 -0.6378  0.1679  1.7054
19878TIP3   OH281124   4.038   0.045  12.917 -0.1769  0.2669 -0.5465
19878TIP3    H181125   4.100  -0.021  12.949 -1.7815 -0.3185  1.6060
19878TIP3    H281126   4.081   0.083  12.841  2.6307 -0.3906  0.5767
19879TIP3   OH281127   0.606   4.036   5.659 -0.1367 -0.3243 -0.5088
19879TIP3    H181128   0.606   4.127   5.688  1.3111 -0.5629  0.3395
19879TIP3    H281129   0.548   3.992   5.722  0.9716 -0.3789  0.5051
19880TIP3   OH281130   6.190   2.118   1.042  0.2414 -0.2448  0.1767
19880TIP3    H181131   6.127   2.158   0.982  0.8374  0.1771 -0.1859
19880TIP3    H281132   6.276   2.139   1.004  0.6279 -0.0924  1.1029
19881TIP3   OH281133   0.346   5.512  12.098  0.5020 -0.2736  0.4177
19881TIP3    H181134   0.252   5.494  12.109  0.7630 -0.5210  2.9303
19881TIP3    H281135   0.349   5.594  12.049 -1.1024  0.5216  1.5312
19882TIP3   OH281136   5.028   3.368  15.796  0.3834 -0.3557 -0.1564
19882TIP3    H181137   4.936   3.394  15.807  0.4579 -0.6771  1.4201
19882TIP3    H281138   5.067   3.438  15.743 -1.2845 -1.3598 -2.9451
19883TIP3   OH281139   1.442   1.942   2.864 -0.1071  0.2784  0.2799
19883TIP3    H181140   1.414   2.004   2.931  1.0721  0.5264  0.5560
19883TIP3    H281141   1.478   1.996   2.795 -1.2018  0.0136 -0.5293
19884TIP3   OH281142   1.692   1.204   3.972 -0.4082 -0.4358  0.4673
19884TIP3    H181143   1.683   1.299   3.983  0.0651 -0.6127  3.1966
19884TIP3    H281144   1.621   1.167   4.024  0.6755 -1.5662  1.2117
19885TIP3   OH281145   4.498   4.878  12.646 -0.4821 -0.1637  0.2402
19885TIP3    H181146   4.523   4.943  12.580 -1.0669 -0.6222 -0.4465
19885TIP3    H281147   4.579   4.830  12.664 -0.7089 -1.3927 -1.6877
19886TIP3   OH281148   0.328   5.434   4.250 -0.0343  0.1830  0.2589
19886TIP3    H181149   0.320   5.348   4.290 -0.9782 -0.2443 -0.8009
19886TIP3    H281150   0.372   5.487   4.316  1.1662 -1.2657  0.6684
19887TIP3   OH281151   0.192   4.948   0.210 -0.3036 -0.3382  0.0586
19887TIP3    H181152   0.126   5.002   0.253 -1.0566 -0.7387 -0.5692
19887TIP3    H281153   0.213   4.993   0.129  0.0584 -0.3145  0.1603
19888TIP3   OH281154   0.852   6.456   1.743 -0.1948  0.2122 -0.6265
19888TIP3    H181155   0.900   6.374   1.735  1.3852  1.1117 -0.8127
19888TIP3    H281156   0.840   6.468   1.837 -1.2698 -0.6663 -0.6328
19889TIP3   OH281157   1.749   5.652  11.465 -0.5854  0.5660 -0.1202
19889TIP3    H181158   1.787   5.597  11.397 -2.1579  0.6340 -1.0950
19889TIP3    H281159   1.819   5.663  11.529 -0.2086 -2.6397  0.1821
19890TIP3   OH281160   2.871   0.691  11.229  0.3650 -0.3539 -0.4804
19890TIP3    H181161   2.823   0.616  11.196 -1.1443  1.1971 -2.0509
19890TIP3    H281162   2.808   0.736  11.286  1.0118  0.0697 -0.0871
19891TIP3   OH281163   0.654   3.454   6.295 -0.0171  0.4904  0.1855
19891TIP3    H181164   0.562   3.478   6.301 -0.5530 -1.6183  1.2367
19891TIP3    H281165   0.655   3.368   6.253  1.7006  1.5172 -2.1184
19892TIP3   OH281166   6.519   0.633  15.169 -0.1982 -0.2067  0.3724
19892TIP3    H181167   6.488   0.712  15.213 -0.6328  0.0460 -0.3667
19892TIP3    H281168   6.614   0.640  15.170 -0.1815 -0.3536  1.5229
19893TIP3   OH281169   6.495   5.995   4.170 -0.3819  0.6437 -0.6342
19893TIP3    H181170   6.550   6.066   4.204 -0.7211 -0.4867  2.6759
19893TIP3    H281171   6.423   6.040   4.125  0.0886  2.3628  0.2118
19894TIP3   OH281172   1.911   0.539   0.887  0.2709 -0.5178  0.4093
19894TIP3    H181173   1.879   0.622   0.852 -1.1653 -0.1973  2.3077
19894TIP3    H281174   1.833   0.485   0.895  0.8495 -1.2645  1.2223
19895TIP3   OH281175   6.215   5.113  16.217  0.6688  0.2621 -0.5658
19895TIP3    H181176   6.297   5.159  16.233 -0.1564  1.2688  1.0528
19895TIP3    H281177   6.238   5.020  16.218  2.1323  0.5400 -2.4181
19896TIP3   OH281178   0.006   1.470   4.136 -0.1801  0.8258 -0.3587
19896TIP3    H181179   0.042   1.552   4.170  0.5214  0.1440  0.6224
19896TIP3    H281180  -0.086   1.470   4.164  0.4236  0.1825  1.8647
19897TIP3   OH281181   1.028   4.260  12.417 -0.1346  0.3840 -0.0961
19897TIP3    H181182   0.955   4.269  12.478 -0.4374  1.0278 -0.5460
19897TIP3    H281183   1.102   4.300  12.461  0.3682 -1.6614  1.0344
19898TIP3   OH281184   2.321   0.462  11.349 -0.2017 -0.1545 -0.1393
19898TIP3    H181185   2.289   0.459  11.259 -0.7543 -0.1130  0.0496
19898TIP3    H281186   2.406   0.418  11.346  0.1752  0.5859 -0.8394
19899TIP3   OH281187   0.283   0.120   4.575  0.4889 -0.3467 -0.0748
19899TIP3    H181188   0.220   0.103   4.504 -0.0729  0.2311  0.2786
19899TIP3    H281189   0.231   0.162   4.643  0.8492 -1.6511  1.0376
19900TIP3   OH281190   2.027   5.124  13.464  0.3645  0.1886  0.2571
19900TIP3    H181191   1.958   5.071  13.424  1.3679 -1.8967  1.1490
19900TIP3    H281192   2.024   5.207  13.416 -2.3181 -0.0416 -0.1420
19901TIP3   OH281193   6.302   4.076   3.025  0.3202  0.2384  0.3598
19901TIP3    H181194   6.341   4.002   3.072  0.3599  0.5822  0.8783
19901TIP3    H281195   6.376   4.120   2.984  0.6052  1.3534  1.9981
19902TIP3   OH281196   6.538   0.622   1.501  0.4528  0.1258 -0.2005
19902TIP3    H181197   6.573   0.696   1.450  0.6029  1.7047  2.0430
19902TIP3    H281198   6.608   0.557   1.500  0.1059 -0.3163 -2.6855
19903TIP3   OH281199   4.943   1.853  14.844  0.4327  0.3418 -0.6077
19903TIP3    H181200   5.033   1.832  14.870  0.2638 -0.8577 -0.9475
19903TIP3    H281201   4.910   1.773  14.803  0.2179  1.7019 -3.2971
19904TIP3   OH281202   2.200   1.277  13.182  0.2780  0.5295 -0.0785
19904TIP3    H181203   2.203   1.333  13.260 -0.1156 -0.3291  0.5738
19904TIP3    H281204   2.162   1.194  13.213  0.8040 -0.0903 -1.0298
19905TIP3   OH281205   2.924   5.529   3.076  0.1566 -0.0708 -0.6015
19905TIP3    H181206   3.006   5.481   3.059 -0.3258 -0.0350 -3.6269
19905TIP3    H281207   2.893   5.495   3.160  3.4903  0.2931  0.9264
19906TIP3   OH281208   5.021   1.926  10.284 -0.0033  0.5998  0.2889
19906TIP3    H181209   5.023   2.001  10.225 -0.1659 -0.9291 -1.7888
19906TIP3    H281210   4.937   1.932  10.329  0.4739  2.2447  1.0545
19907TIP3   OH281211   6.835   1.030  15.147 -0.5882  0.2415  0.6452
19907TIP3    H181212   6.909   1.092  15.142 -0.8356  0.5151  0.3178
19907TIP3    H281213   6.870   0.948  15.112 -0.1800  0.1130  1.3296
19908TIP3   OH281214   2.030   3.561  12.444  0.2199 -0.2439 -0.2770
19908TIP3    H181215   2.019   3.469  12.422  1.9425 -1.3244  2.7496
19908TIP3    H281216   1.941   3.596  12.449 -0.4630 -1.7615 -1.2476
19909TIP3   OH281217   1.754   5.384   2.234 -0.2222 -0.3585 -0.1389
19909TIP3    H181218   1.689   5.453   2.222  0.1091 -0.1902 -1.0585
19909TIP3    H281219   1.718   5.309   2.187 -0.3285 -0.6488  0.4028
19910TIP3   OH281220   6.490   5.359   3.195 -0.2602 -0.0638  0.1410
19910TIP3    H181221   6.560   5.318   3.143 -1.7920 -1.5903 -0.8268
19910TIP3    H281222   6.487   5.449   3.164  2.1314  0.4594  1.1672
19911TIP3   OH281223   0.258   1.352  10.547  0.7230 -0.3068  0.1726
19911TIP3    H181224   0.212   1.306  10.477  1.1666 -1.3745  0.5657
19911TIP3    H281225   0.350   1.352  10.520  0.8027 -0.1396  0.4388
19912TIP3   OH281226   0.959   4.387  14.730 -0.5594 -0.5038 -0.1258
19912TIP3    H181227   0.954   4.431  14.645  1.0584 -2.2944 -1.2213
19912TIP3    H281228   1.041   4.417  14.769 -1.2195  0.1940  0.7593
19913TIP3   OH281229   5.247   6.704  10.970  0.9325  0.3073  0.3704
19913TIP3    H181230   5.191   6.627  10.976  1.1966  0.0117 -0.7739
19913TIP3    H281231   5.213   6.764  11.038  1.8012 -1.4478  2.4833
19914TIP3   OH281232   3.444   5.589  13.261  0.8618  0.1409  0.5081
19914TIP3    H181233   3.449   5.498  13.290  0.3540 -0.3295 -0.8222
19914TIP3    H281234   3.470   5.587  13.169 -1.1637  1.0030 -0.1426
19915TIP3   OH281235   6.573   4.642  13.388 -0.4894 -0.1166 -0.3016
19915TIP3    H181236   6.660   4.666  13.418 -0.7213  0.5439 -0.1573
19915TIP3    H281237   6.533   4.598  13.463 -0.2720 -0.4567 -0.3808
19916TIP3   OH281238   2.616   0.552   6.302 -0.1717 -0.1628 -0.6575
19916TIP3    H181239   2.645   0.642   6.291 -1.0529 -0.0861 -2.8394
19916TIP3    H281240   2.520   0.557   6.296 -0.3087 -1.1260  0.3476
19917TIP3   OH281241   2.551   5.049   5.173 -0.1869 -0.2135 -0.7197
19917TIP3    H181242   2.598   5.130   5.153  1.0178 -0.9301 -0.8434
19917TIP3    H281243   2.463   5.064   5.139 -0.2222  1.3474 -0.0363
19918TIP3   OH281244   3.487   6.019   2.116 -0.0399 -0.3582  0.3878
19918TIP3    H181245   3.435   6.021   2.035  0.9252 -0.2971 -0.2403
19918TIP3    H281246   3.451   6.091   2.169 -0.2008  0.0729 -0.2953
19919TIP3   OH281247   5.547   1.885  12.579 -0.5813 -0.2901  0.0056
19919TIP3    H181248   5.464   1.867  12.536 -1.5433  0.7629  1.3245
19919TIP3    H281249   5.563   1.978  12.563 -0.7467  0.0264  1.4532
19920TIP3   OH281250   3.584   1.535  14.842  0.5553 -0.2579  0.6830
19920TIP3    H181251   3.579   1.560  14.935  2.1483 -0.8880  0.9597
19920TIP3    H281252   3.648   1.596  14.805  1.8541 -1.6178  0.5974
19921TIP3   OH281253   3.208   1.082   3.423 -0.1206 -0.2991 -0.3070
19921TIP3    H181254   3.282   1.139   3.442  0.4936  0.4256 -4.1427
19921TIP3    H281255   3.228   1.000   3.470  1.9275  0.6305  0.5708
19922TIP3   OH281256   6.850   0.630   2.932  0.4997  1.5509  0.2737
19922TIP3    H181257   6.909   0.702   2.952  0.4302  1.6420  0.1528
19922TIP3    H281258   6.809   0.609   3.016  1.5370  0.7264  0.5962
19923TIP3   OH281259   6.308   1.762  14.493  0.6978 -0.4062  0.1193
19923TIP3    H181260   6.261   1.719  14.565  1.4388  2.7859  2.8272
19923TIP3    H281261   6.400   1.739  14.507  1.0846  1.6205  1.5101
19924TIP3   OH281262   0.885   6.086   3.210  0.3481 -0.8641 -0.1085
19924TIP3    H181263   0.844   6.000   3.220  0.5145 -0.9145  0.1595
19924TIP3    H281264   0.889   6.121   3.299 -1.4234  0.2309 -0.4176
19925TIP3   OH281265   3.641   3.540  12.413  0.5789  0.4154 -0.0026
19925TIP3    H181266   3.584   3.510  12.342  2.4242  1.4818 -2.0510
19925TIP3    H281267   3.604   3.624  12.439 -1.2494 -0.8408  1.7797
19926TIP3   OH281268   5.214   4.170   6.798 -0.1430 -0.1710  0.2339
19926TIP3    H181269   5.284   4.177   6.864  1.4582 -1.6306 -1.2105
19926TIP3    H281270   5.164   4.251   6.808 -0.4329 -0.6181  3.7005
19927TIP3   OH281271   2.635   5.644   0.348 -0.1709 -0.1755  0.0786
19927TIP3    H181272   2.626   5.617   0.439  0.2462  1.6292  0.7024
19927TIP3    H281273   2.676   5.730   0.353  2.8545 -1.3313 -1.9700
19928TIP3   OH281274   1.442   4.439   6.046  0.1383 -0.4686  0.0517
19928TIP3    H181275   1.515   4.444   6.108 -0.8657 -0.8660  1.3200
19928TIP3    H281276   1.402   4.354   6.064 -0.9242 -0.0496 -0.2798
19929TIP3   OH281277   2.304   4.308   6.005  0.1460 -0.4954  0.1065
19929TIP3    H181278   2.263   4.223   6.024 -0.1495 -0.1142  1.2258
19929TIP3    H281279   2.270   4.367   6.072  0.4820  0.4809 -0.5513
19930TIP3   OH281280   6.498   5.774   0.224  0.0059 -0.4744 -0.3439
19930TIP3    H181281   6.436   5.755   0.294 -0.6702  0.0541 -0.7825
19930TIP3    H281282   6.575   5.720   0.244 -0.2389 -0.4555  0.7041
19931TIP3   OH281283   6.804   1.314  16.536  0.1522  0.2484 -0.3503
19931TIP3    H181284   6.849   1.241  16.579 -0.4349  0.3345  0.4135
19931TIP3    H281285   6.821   1.300  16.443 -0.3421 -1.1399 -0.2564
19932TIP3   OH281286   2.184   0.726   3.671 -0.5950 -0.0860  0.3825
19932TIP3    H181287   2.218   0.803   3.625  0.1278 -0.1054  0.8813
19932TIP3    H281288   2.207   0.740   3.763 -1.9679 -0.0869  0.7539
19933TIP3   OH281289   1.626   0.927  12.031 -0.9157 -0.5983  0.0964
19933TIP3    H181290   1.610   1.014  11.995  0.5373 -0.2471  0.2038
19933TIP3    H281291   1.709   0.936  12.078  0.7818 -2.6722 -2.2334
19934TIP3   OH281292   4.738   3.062  14.181 -0.0839  0.5764 -0.3309
19934TIP3    H181293   4.712   3.149  14.210 -0.0582  0.6058 -0.3970
19934TIP3    H281294   4.834   3.062  14.186 -0.0771  0.6022 -0.4787
19935TIP3   OH281295   1.769   2.820   1.879  0.7925 -0.1056 -0.0618
19935TIP3    H181296   1.692   2.799   1.931  0.9182  0.7898  0.5026
19935TIP3    H281297   1.825   2.871   1.937  1.2314  0.3592 -0.8681
19936TIP3   OH281298   6.632   3.141   1.128  0.1209 -0.2740  0.0311
19936TIP3    H181299   6.624   3.120   1.035  4.3800 -0.0584 -0.6099
19936TIP3    H281300   6.571   3.214   1.141  0.4809  0.7547 -3.0562
19937TIP3   OH281301   6.320   2.881  12.356  0.3361  0.3592  0.5925
19937TIP3    H181302   6.344   2.959  12.407 -1.2563  0.2320  1.6037
19937TIP3    H281303   6.231   2.860  12.384  1.2874 -2.8736  1.6406
19938TIP3   OH281304   1.103   1.990   3.590  0.2812 -0.0769 -0.2494
19938TIP3    H181305   1.033   2.035   3.638  1.7297 -1.2918  3.3013
19938TIP3    H281306   1.057   1.934   3.527 -1.9527 -0.2105  1.3880
19939TIP3   OH281307   2.785   1.228  16.506  0.2872  0.2874 -0.1060
19939TIP3    H181308   2.737   1.300  16.547 -1.7360 -1.7767  1.3750
19939TIP3    H281309   2.817   1.175  16.579  0.8950 -0.8376 -1.1417
19940TIP3   OH281310   2.286   4.183  14.374 -0.0821 -0.1571  0.4464
19940TIP3    H181311   2.283   4.251  14.441  0.2625 -0.8117  1.1424
19940TIP3    H281312   2.207   4.197  14.322 -1.0752 -0.4424  1.8125
19941TIP3   OH281313   3.788   3.938  13.238 -0.2832 -0.3029  0.5402
19941TIP3    H181314   3.763   4.019  13.193  2.6241 -0.5251 -1.7573
19941TIP3    H281315   3.707   3.886  13.240 -1.4582  1.3642 -0.8098
19942TIP3   OH281316   6.577   1.393  15.342  0.0337 -0.0770 -0.6166
19942TIP3    H181317   6.589   1.381  15.248 -1.6423  2.4477 -1.2424
19942TIP3    H281318   6.495   1.443  15.350  0.1052 -0.2387  2.1904
19943TIP3   OH281319   6.072   1.890   0.039  0.1326  0.2410 -0.0661
19943TIP3    H181320   6.152   1.846   0.069  0.3833  0.8963  0.2514
19943TIP3    H281321   6.057   1.855  -0.049  0.9247  0.3059 -0.2342
19944TIP3   OH281322   3.847   4.840   4.901 -0.9098 -0.4556  0.4036
19944TIP3    H181323   3.780   4.907   4.917  1.5013  2.1671  0.2952
19944TIP3    H281324   3.844   4.826   4.806 -1.4434 -0.5412  0.4293
19945TIP3   OH281325   5.193   1.604  16.054 -0.1122  0.0749 -0.4633
19945TIP3    H181326   5.179   1.699  16.055  0.9838  0.2580 -1.3336
19945TIP3    H281327   5.288   1.593  16.052 -0.2217 -0.9928 -1.9374
19946TIP3   OH281328   3.182   1.541   1.049  0.4433  0.0238  0.2478
19946TIP3    H181329   3.272   1.518   1.024  0.2734 -0.1534 -0.2180
19946TIP3    H281330   3.138   1.457   1.060 -0.4387  0.0419 -2.3996
19947TIP3   OH281331   0.629   0.386  15.670 -0.6634 -0.0796  0.5045
19947TIP3    H181332   0.546   0.382  15.718 -2.8103  1.0856 -2.7219
19947TIP3    H281333   0.654   0.294  15.659 -1.6623 -0.4834  1.3691
19948TIP3   OH281334   0.697   5.326   0.118 -0.1839  0.0694  0.4102
19948TIP3    H181335   0.680   5.255   0.179 -0.5143  1.7756  2.4413
19948TIP3    H281336   0.756   5.385   0.165  1.4377  0.3845 -1.8100
19949TIP3   OH281337   5.749   3.913   2.690  0.3268  0.7615  0.2312
19949TIP3    H181338   5.834   3.927   2.648  0.3563 -0.3274 -0.1102
19949TIP3    H281339   5.686   3.935   2.622  0.3733 -0.7046 -0.3278
19950TIP3   OH281340   6.702   5.661   0.530 -0.4636  0.6806 -0.7939
19950TIP3    H181341   6.702   5.627   0.619  0.7183  2.9686  0.1354
19950TIP3    H281342   6.788   5.637   0.495 -1.1270 -0.7171 -1.6065
19951TIP3   OH281343   5.515   1.381   3.240 -0.7972 -0.4708  0.1641
19951TIP3    H181344   5.505   1.437   3.163 -0.8547 -1.3629 -0.4925
19951TIP3    H281345   5.546   1.297   3.205  2.9248  0.1838  1.4200
19952TIP3   OH281346   5.395   1.221  15.240  0.1327 -0.5115  0.7847
19952TIP3    H181347   5.340   1.149  15.209  1.3781 -0.7697 -0.9693
19952TIP3    H281348   5.469   1.178  15.283  1.5247 -0.4188 -1.3607
19953TIP3   OH281349   5.641   2.956  10.759  0.2082 -0.5487 -0.1176
19953TIP3    H181350   5.725   2.926  10.794  0.9985  0.1390 -1.3642
19953TIP3    H281351   5.615   2.888  10.697  0.6147 -0.0400 -0.8607
19954TIP3   OH281352   5.752   5.196  10.454 -0.1363 -0.4212  0.0895
19954TIP3    H181353   5.722   5.110  10.425  2.0425 -1.0327 -0.5399
19954TIP3    H281354   5.802   5.231  10.380  0.3196  0.7036  0.8888
19955TIP3   OH281355   3.218   4.666   0.228  0.4273 -0.5472 -0.2602
19955TIP3    H181356   3.232   4.758   0.204  1.8956 -0.4223  0.9661
19955TIP3    H281357   3.123   4.657   0.235  0.3051  1.6573  2.4012
19956TIP3   OH281358   1.211   2.297  15.670  0.1410  0.5738 -0.1477
19956TIP3    H181359   1.185   2.244  15.745  0.1793  2.0484  0.9252
19956TIP3    H281360   1.242   2.379  15.707  0.2214  1.3157 -1.7726
19957TIP3   OH281361   6.406   5.815   0.842 -0.5365 -0.2783 -0.4511
19957TIP3    H181362   6.487   5.848   0.881 -1.1430 -0.1510  0.7512
19957TIP3    H281363   6.394   5.728   0.880 -2.5466  0.8948  1.8991
19958TIP3   OH281364   6.196   6.557  12.461 -0.2798 -0.0476 -0.1446
19958TIP3    H181365   6.186   6.516  12.375 -1.1043 -0.4480  0.1273
19958TIP3    H281366   6.112   6.600  12.477 -0.5253 -0.8440  0.8867
19959TIP3   OH281367   6.198   4.516  14.253  0.6480  0.5454 -0.2231
19959TIP3    H181368   6.245   4.433  14.263  1.2040  1.0195  1.5221
19959TIP3    H281369   6.113   4.492  14.218  0.5003 -0.8807  1.0231
19960TIP3   OH281370   1.130   5.409  12.781 -0.1407  0.0535  0.0154
19960TIP3    H181371   1.222   5.434  12.777  0.7447 -2.9048 -0.2691
19960TIP3    H281372   1.126   5.338  12.846 -2.2419  0.1572  0.0894
19961TIP3   OH281373   5.212   0.950  16.948  0.0038 -0.8040  0.0808
19961TIP3    H181374   5.280   1.016  16.933  0.0325 -0.7833  0.3066
19961TIP3    H281375   5.217   0.893  16.871  0.0874 -0.6369 -0.0376
19962TIP3   OH281376   3.620   5.986  11.346 -0.1725 -0.0643  0.0354
19962TIP3    H181377   3.585   5.969  11.259 -0.8056  0.9093  0.0817
19962TIP3    H281378   3.704   5.939  11.348 -0.1056 -0.0241 -1.1288
19963TIP3   OH281379   0.270   2.907  14.049 -0.0849 -0.5130 -0.4180
19963TIP3    H181380   0.243   2.832  13.995 -2.3396 -1.4559  1.8285
19963TIP3    H281381   0.210   2.977  14.024 -1.0041 -0.8934  0.6284
19964TIP3   OH281382   0.943   5.588  16.614  0.2660 -0.3298 -0.6372
19964TIP3    H181383   0.872   5.533  16.647  0.5878 -0.4070 -0.0598
19964TIP3    H281384   0.999   5.602  16.690  1.6003 -1.3887 -1.4011
19965TIP3   OH281385   1.568   0.489  11.904 -0.0581 -0.4865 -0.1047
19965TIP3    H181386   1.527   0.472  11.819  0.9451 -1.2520 -0.4592
19965TIP3    H281387   1.551   0.409  11.954  0.3589 -0.5086  0.0024
19966TIP3   OH281388   6.699   6.615  16.745 -0.5298 -0.5325 -0.4581
19966TIP3    H181389   6.714   6.692  16.690 -0.4764  0.8190  1.3473
19966TIP3    H281390   6.687   6.651  16.833  0.3863 -2.6585  0.5978
19967TIP3   OH281391   5.783   6.616   4.392  0.4236 -0.2926 -0.0939
19967TIP3    H181392   5.705   6.659   4.356  0.5856 -0.1967 -0.3338
19967TIP3    H281393   5.757   6.590   4.480  0.5039  0.8224  0.2747
19968TIP3   OH281394   4.829   2.599  11.743  0.3234 -0.0801  0.3647
19968TIP3    H181395   4.762   2.646  11.793  1.2035 -0.4990  2.0152
19968TIP3    H281396   4.780   2.541  11.685 -0.7589  1.6310 -0.5058
19969TIP3   OH281397   1.929   0.816  14.350 -0.0692 -0.1796 -0.0846
19969TIP3    H181398   1.931   0.912  14.343 -0.2288 -0.1642  0.0670
19969TIP3    H281399   2.009   0.794  14.398  1.3608 -0.3353 -2.3896
19970TIP3   OH281400   5.262   3.790   3.399 -0.0622 -0.1051 -0.6965
19970TIP3    H181401   5.322   3.715   3.403 -0.0403 -0.0870  3.6302
19970TIP3    H281402   5.221   3.783   3.313  4.5165 -1.3071 -3.1141
19971TIP3   OH281403   2.860   6.711  10.999 -0.3107  0.1243 -0.0060
19971TIP3    H181404   2.826   6.711  11.088  0.2020 -0.4179  0.1977
19971TIP3    H281405   2.914   6.789  10.993  1.6447 -1.0617  0.9584
19972TIP3   OH281406   1.139   5.606   2.500 -0.4020  0.2048  0.2241
19972TIP3    H181407   1.227   5.569   2.510 -0.0125  0.1474 -2.5964
19972TIP3    H281408   1.090   5.571   2.575  1.9284  0.3046  1.9332
19973TIP3   OH281409   1.861   2.988  14.920  0.1216  0.3426  0.1304
19973TIP3    H181410   1.814   2.968  15.001 -0.3422 -0.3098 -0.2903
19973TIP3    H281411   1.948   3.015  14.948 -0.0679  0.2132  0.8487
19974TIP3   OH281412   3.837   3.227   1.513  0.5744 -0.1335  0.1684
19974TIP3    H181413   3.894   3.207   1.438  2.0296  0.5216  1.0640
19974TIP3    H281414   3.765   3.164   1.506  2.4841 -2.4456  0.1799
19975TIP3   OH281415   0.803   2.912  11.554  0.2572 -0.1193 -0.2386
19975TIP3    H181416   0.707   2.906  11.552  0.3172 -0.9703 -1.0513
19975TIP3    H281417   0.822   2.953  11.638 -0.6658 -2.9156  1.4818
19976TIP3   OH281418   3.609   4.063   4.862 -0.1478  0.0558 -0.1095
19976TIP3    H181419   3.525   4.061   4.909 -0.2781  0.8312 -0.2871
19976TIP3    H281420   3.596   4.129   4.794 -0.0325 -1.2159 -1.3903
19977TIP3   OH281421   0.615   3.538  12.241 -0.1031  0.0260 -0.2456
19977TIP3    H181422   0.643   3.476  12.174  0.4828 -0.5383  0.4953
19977TIP3    H281423   0.522   3.522  12.251 -0.0685 -0.3340 -0.4718
19978TIP3   OH281424   4.171   0.381   5.351 -0.5561  0.7368 -0.1926
19978TIP3    H181425   4.082   0.360   5.379 -0.0589 -0.4342  0.6158
19978TIP3    H281426   4.168   0.374   5.256 -1.9255  3.3248 -0.4198
19979TIP3   OH281427   1.942   3.509   5.882 -0.4043  0.1292 -0.7033
19979TIP3    H181428   1.861   3.548   5.916 -0.2694 -0.7786  0.7077
19979TIP3    H281429   1.950   3.425   5.927  0.2545 -0.7532 -2.3684
19980TIP3   OH281430   4.109   3.176   2.257  0.1225 -0.2764 -0.3236
19980TIP3    H181431   4.090   3.096   2.207 -1.6324  0.5606 -1.0608
19980TIP3    H281432   4.041   3.238   2.231 -0.9810  0.2056  3.2191
19981TIP3   OH281433   4.851   3.865  15.634 -0.3482  0.1986 -0.5881
19981TIP3    H181434   4.911   3.932  15.601  0.2763  0.0974  0.3103
19981TIP3    H281435   4.817   3.823  15.556  0.7527  0.2622 -1.1199
19982TIP3   OH281436   0.589   5.149  12.487  0.1426  0.1920 -0.0720
19982TIP3    H181437   0.682   5.166  12.503  0.1453  0.1231 -0.0115
19982TIP3    H281438   0.580   5.150  12.392  0.5710 -1.6448 -0.1657
19983TIP3   OH281439   4.367   4.595  16.237  0.2224 -0.0295  0.0401
19983TIP3    H181440   4.273   4.577  16.242 -0.2652  1.2725 -2.8142
19983TIP3    H281441   4.408   4.511  16.253 -1.4746 -0.9442 -0.1691
19984TIP3   OH281442   6.069   4.850  13.895  0.1036  0.0037 -0.2589
19984TIP3    H181443   6.045   4.779  13.955 -0.4478 -0.1868 -0.6982
19984TIP3    H281444   6.028   4.827  13.812  0.2941  0.6099 -0.5311
19985TIP3   OH281445   0.919   2.035  11.502  0.5136  0.3978  0.2253
19985TIP3    H181446   0.885   1.976  11.570  1.9938  0.8959  1.4819
19985TIP3    H281447   0.862   2.111  11.506  1.0508  0.7632  1.5210
19986TIP3   OH281448   1.939   0.165   4.823  0.2206  0.0626 -0.0796
19986TIP3    H181449   1.866   0.225   4.837  0.0819 -0.2406  0.5741
19986TIP3    H281450   1.967   0.141   4.912  1.7074  0.8716 -0.3113
19987TIP3   OH281451   0.567   2.468  16.023  0.1528 -0.5545  0.3675
19987TIP3    H181452   0.489   2.415  16.040 -0.1226  0.0536  1.0463
19987TIP3    H281453   0.639   2.404  16.016 -0.4496 -1.1577 -0.6851
19988TIP3   OH281454   0.886   6.151  15.781  0.3245 -0.2518 -0.3053
19988TIP3    H181455   0.914   6.222  15.838  0.1744 -1.0121  0.7471
19988TIP3    H281456   0.812   6.111  15.827  1.9169 -2.6303  0.4145
19989TIP3   OH281457   1.350   5.132  14.444  0.0310  0.3830 -0.0023
19989TIP3    H181458   1.410   5.085  14.501 -1.2891 -4.8003 -2.3229
19989TIP3    H281459   1.264   5.119  14.484 -0.3929  0.7745 -0.7603
19990TIP3   OH281460   2.605   1.118   0.636 -0.4747 -0.5498 -0.1678
19990TIP3    H181461   2.561   1.157   0.560  1.4165  0.5206 -0.7872
19990TIP3    H281462   2.554   1.149   0.711 -1.4564 -0.3073 -0.9203
19991TIP3   OH281463   5.424   1.809   0.333  0.4866  0.1398 -0.1470
19991TIP3    H181464   5.374   1.854   0.401  1.1104 -0.4565  0.7276
19991TIP3    H281465   5.361   1.794   0.263 -0.8073 -1.3871  1.2886
19992TIP3   OH281466   5.153   0.979   6.254  0.2368  0.5267  0.1862
19992TIP3    H181467   5.121   1.064   6.281 -2.1340 -1.1158  3.1315
19992TIP3    H281468   5.231   0.964   6.308 -0.5772  0.0279  1.2621
19993TIP3   OH281469   3.737   2.140   2.416 -0.2398 -0.2946 -0.3366
19993TIP3    H181470   3.782   2.196   2.479 -0.6500 -0.1615 -0.1582
19993TIP3    H281471   3.719   2.197   2.341  0.4411 -0.5090 -0.6645
19994TIP3   OH281472   0.944   2.641   2.650  0.1198 -0.6938 -0.8255
19994TIP3    H181473   0.916   2.552   2.672  1.9290 -1.0298  0.3164
19994TIP3    H281474   0.981   2.634   2.563  0.0138 -1.0054 -0.8487
19995TIP3   OH281475   4.901   1.031  11.703 -0.3624 -0.1822  0.2129
19995TIP3    H181476   4.935   1.090  11.770 -2.1362  1.3681 -0.1899
19995TIP3    H281477   4.918   1.075  11.620 -0.4281 -0.9254 -0.2079
19996TIP3   OH281478   2.788   6.819   2.516  0.2839  0.6991  0.1237
19996TIP3    H181479   2.763   6.727   2.510  2.1542  0.2506 -2.0357
19996TIP3    H281480   2.722   6.858   2.574 -0.1436 -2.1110  1.7252
19997TIP3   OH281481   6.845   5.323   1.822  0.8749 -0.0530  0.4279
19997TIP3    H181482   6.756   5.305   1.853  0.0732 -0.3412 -1.8688
19997TIP3    H281483   6.835   5.399   1.765  2.0645 -0.2841 -0.1042
19998TIP3   OH281484   3.635   2.354   6.598 -0.1453 -0.3205  1.0126
19998TIP3    H181485   3.654   2.438   6.638  1.2268 -0.6767  1.1484
19998TIP3    H281486   3.574   2.375   6.527  1.1424  0.9784  0.2303
19999TIP3   OH281487   2.161   2.059   0.803  0.5124 -0.2164 -0.5314
19999TIP3    H181488   2.108   2.046   0.881  0.3048 -2.3567 -0.9511
19999TIP3    H281489   2.150   2.151   0.781  0.5189  0.4254  1.8947
20000TIP3   OH281490   0.360   0.927  15.488 -0.1088  0.0598 -0.8866
20000TIP3    H181491   0.408   0.933  15.405  2.0016  0.6495  0.3112
20000TIP3    H281492   0.285   0.986  15.476  1.1313  1.5194 -1.7856
20001TIP3   OH281493   4.501   2.494   0.180 -0.4957 -0.3950  0.6065
20001TIP3    H181494   4.544   2.519   0.098 -3.0440 -2.6234 -1.6124
20001TIP3    H281495   4.543   2.411   0.204 -1.7779 -1.3372 -0.2479
20002TIP3   OH281496   1.703   0.148  16.071 -0.2729  0.6488 -0.2722
20002TIP3    H181497   1.747   0.204  16.008  0.0567  0.0317 -0.5984
20002TIP3    H281498   1.775   0.105  16.118 -0.4880  1.7114  1.0982
20003TIP3   OH281499   1.344   4.927   0.630 -0.3974  0.0675  0.1078
20003TIP3    H181500   1.304   4.873   0.562 -0.2863 -0.0246  0.1161
20003TIP3    H281501   1.436   4.931   0.606 -0.1917 -0.6960  0.7416
20004TIP3   OH281502   0.435   3.084   1.339  0.2513  0.1147  0.0885
20004TIP3    H181503   0.372   3.021   1.373 -0.5450  0.6493 -0.3558
20004TIP3    H281504   0.398   3.169   1.362  1.4753  0.4367  0.9697
20005TIP3   OH281505   2.474   2.927  11.256 -0.1885 -0.6541 -0.3148
20005TIP3    H181506   2.502   2.944  11.166 -0.7683 -1.0208 -0.5693
20005TIP3    H281507   2.550   2.885  11.297  0.1347 -0.3344 -0.5823
20006TIP3   OH281508   5.071   4.037  16.755 -0.0266 -0.0985  0.5335
20006TIP3    H181509   5.161   4.018  16.727  0.3234  0.3641  1.3227
20006TIP3    H281510   5.017   4.012  16.680  0.8429  0.5843 -0.3523
20007TIP3   OH281511   0.336   4.735  14.697 -0.0242  0.5808 -0.4631
20007TIP3    H181512   0.379   4.653  14.721  1.0538  1.5000  0.8950
20007TIP3    H281513   0.391   4.772  14.627  0.7269  1.1577  0.4143
20008TIP3   OH281514   6.315   6.033  13.631 -0.4893 -0.1410  0.0278
20008TIP3    H181515   6.356   5.956  13.670  0.8678  0.0115 -1.0202
20008TIP3    H281516   6.275   6.000  13.550 -0.3197  0.1664 -0.1830
20009TIP3   OH281517   2.685   4.013   1.414  0.0991 -0.8753  0.3261
20009TIP3    H181518   2.676   4.004   1.509 -0.1986  1.4846  0.5985
20009TIP3    H281519   2.596   4.003   1.381 -0.2693  0.9630  0.6422
20010TIP3   OH281520   1.029   3.223  12.836  0.3109  0.1496  0.2224
20010TIP3    H181521   0.969   3.149  12.829 -0.2321  0.4176  1.7078
20010TIP3    H281522   1.116   3.184  12.842  0.2650 -0.2590 -1.4804
20011TIP3   OH281523   1.428   2.397  11.955 -0.3884  0.6603  0.1953
20011TIP3    H181524   1.417   2.443  11.872  2.4862  1.2247  0.0323
20011TIP3    H281525   1.438   2.305  11.931  1.3480  0.9232 -0.2541
20012TIP3   OH281526   0.987   5.198  11.771 -0.2177 -0.7933  0.4176
20012TIP3    H181527   0.984   5.180  11.865  0.2933  0.9537  0.8040
20012TIP3    H281528   0.999   5.292  11.765 -0.7230 -0.8148 -1.4261
20013TIP3   OH281529   1.920   5.427  15.272 -0.0829  0.0454  0.0891
20013TIP3    H181530   1.859   5.417  15.345  0.6759 -1.2116  0.5756
20013TIP3    H281531   1.995   5.473  15.309  0.8244 -1.6424  0.4574
20014TIP3   OH281532   0.319   1.464  12.256 -0.4356 -0.0196  0.1622
20014TIP3    H181533   0.314   1.416  12.339 -0.7407  2.9322  1.9926
20014TIP3    H281534   0.403   1.510  12.260  0.2110 -0.9172 -1.8807
20015TIP3   OH281535   2.442   1.607   1.959  0.2797 -0.1244 -0.6138
20015TIP3    H181536   2.454   1.635   2.050 -1.2003  0.1787 -0.4880
20015TIP3    H281537   2.430   1.512   1.964 -1.4089  0.0832 -0.2946
20016TIP3   OH281538   6.067   4.203  15.795 -0.6176 -0.3637  0.2697
20016TIP3    H181539   6.138   4.241  15.743 -1.1016  0.3000  0.0751
20016TIP3    H281540   6.027   4.278  15.840 -1.0755 -0.7497  0.5221
20017TIP3   OH281541   5.333   5.633  13.118  0.5091 -0.0944 -0.1721
20017TIP3    H181542   5.385   5.656  13.041 -0.2274  1.6570 -0.1971
20017TIP3    H281543   5.251   5.599  13.082  0.2175  0.5990 -0.1841
20018TIP3   OH281544   5.729   4.781  14.552  0.1578 -0.3900  0.3049
20018TIP3    H181545   5.819   4.764  14.577  0.4710 -0.0635 -0.5595
20018TIP3    H281546   5.682   4.701  14.575  0.0712  0.4282  3.3953
20019TIP3   OH281547   3.435   4.493   0.638  0.3553 -0.0123 -0.2200
20019TIP3    H181548   3.401   4.526   0.721 -0.0602  0.0787 -0.4247
20019TIP3    H281549   3.508   4.551   0.617 -0.5203  0.9620 -0.7035
20020TIP3   OH281550   1.984   0.996  11.505  0.2433  0.4471 -0.5992
20020TIP3    H181551   1.942   1.065  11.453  1.3407  0.9171 -0.8871
20020TIP3    H281552   1.928   0.919  11.492 -1.0687  1.2924 -0.1698
20021TIP3   OH281553   5.278   1.863  15.759 -0.0928  0.2117 -0.1303
20021TIP3    H181554   5.258   1.780  15.716 -0.8470  0.3101  0.0045
20021TIP3    H281555   5.332   1.839  15.834 -0.3296 -0.1700 -0.0774
20022TIP3   OH281556   1.544   3.293   1.158 -0.4195 -0.0850 -0.1905
20022TIP3    H181557   1.632   3.319   1.185 -1.0737  1.2515  0.7656
20022TIP3    H281558   1.544   3.198   1.166  0.5488 -0.0115  1.0609
20023TIP3   OH281559   0.422   2.533   5.057 -0.0408 -1.1552 -0.0454
20023TIP3    H181560   0.486   2.570   5.117 -0.9087  2.0752 -0.9520
20023TIP3    H281561   0.340   2.575   5.080 -0.6835 -0.9070 -2.5138
20024TIP3   OH281562   4.377   6.165   3.490 -0.6365  0.8436 -0.1285
20024TIP3    H181563   4.465   6.151   3.456 -1.6913  0.8433 -3.1672
20024TIP3    H281564   4.358   6.087   3.543 -0.5890 -1.7212 -3.5884
20025TIP3   OH281565   1.404   0.731   2.603  0.0405 -0.5813 -0.0932
20025TIP3    H181566   1.423   0.639   2.584  0.9791 -0.5688  0.6587
20025TIP3    H281567   1.355   0.762   2.527  1.7759 -1.0789 -1.5076
20026TIP3   OH281568   5.626   4.600   2.579 -0.3632  0.0827  0.3420
20026TIP3    H181569   5.648   4.508   2.563 -2.1787 -0.2120 -0.7345
20026TIP3    H281570   5.673   4.622   2.659 -1.0951 -2.2429  1.5037
20027TIP3   OH281571   0.888   4.750   5.440 -0.2211  0.1667  0.1525
20027TIP3    H181572   0.982   4.747   5.425 -0.5856 -0.9036 -2.5032
20027TIP3    H281573   0.879   4.782   5.530  2.6495  0.0424  0.5834
20028TIP3   OH281574   6.753   5.569   5.372  0.0131 -0.2313 -0.6484
20028TIP3    H181575   6.808   5.490   5.368 -0.6718 -0.7675  0.2855
20028TIP3    H281576   6.795   5.629   5.311 -0.1401 -1.7377 -2.3258
20029TIP3   OH281577   3.949   2.076  13.335  0.4102  0.1956 -0.0814
20029TIP3    H181578   3.946   2.004  13.398 -3.0607  0.3044  0.0457
20029TIP3    H281579   3.953   2.034  13.250 -2.6327 -0.3591 -0.0707
20030TIP3   OH281580   1.623   1.909   5.182  0.2767 -0.0681  0.2215
20030TIP3    H181581   1.712   1.912   5.147  0.6923  1.0602  1.2848
20030TIP3    H281582   1.629   1.847   5.255  0.8176  1.7545  1.8020
20031TIP3   OH281583   5.299   1.967  15.277 -0.0716 -0.2957 -0.4809
20031TIP3    H181584   5.372   2.013  15.235  0.6851 -0.7287  0.3244
20031TIP3    H281585   5.341   1.912  15.343 -1.2345  0.4115  0.8945
20032TIP3   OH281586   1.254   4.156   3.588 -1.0941  0.2375  0.1883
20032TIP3    H181587   1.295   4.180   3.672  0.3566 -0.3350 -0.3257
20032TIP3    H281588   1.217   4.069   3.603 -0.5645  0.0034  0.1539
20033TIP3   OH281589   0.719   2.869  14.613  0.0837  0.3981  0.9225
20033TIP3    H181590   0.789   2.917  14.568  0.1992 -0.3206  0.3136
20033TIP3    H281591   0.640   2.920  14.598 -0.0653 -0.3245 -0.9693
20034TIP3   OH281592   6.300   5.215  10.955  0.5889  0.0740 -0.1785
20034TIP3    H181593   6.212   5.187  10.928  0.5055  0.7391 -0.6346
20034TIP3    H281594   6.326   5.278  10.888  0.8355  0.9506  0.7184
20035TIP3   OH281595   5.888   6.097   3.674  0.7215  0.2506  0.1641
20035TIP3    H181596   5.849   6.028   3.620  1.0643 -0.7654  1.1514
20035TIP3    H281597   5.923   6.050   3.750 -0.1519  1.6544  1.5097
20036TIP3   OH281598   3.515   6.388  12.152 -0.0673 -0.4514 -0.2020
20036TIP3    H181599   3.470   6.326  12.209  1.0122  0.1906  1.3878
20036TIP3    H281600   3.476   6.473  12.172  0.8284 -0.1106  0.1333
20037TIP3   OH281601   6.674   2.848  14.496  0.3359 -0.0963  0.1370
20037TIP3    H181602   6.733   2.907  14.450  0.6163  0.8997  1.6988
20037TIP3    H281603   6.587   2.881  14.476  0.4871  0.8691  0.9437
20038TIP3   OH281604   6.636   1.173  14.429  1.2448 -0.0592  0.4720
20038TIP3    H181605   6.699   1.232  14.387 -0.3232  1.7056  0.4778
20038TIP3    H281606   6.590   1.228  14.492 -1.3150 -0.8722 -0.5676
20039TIP3   OH281607   5.840   1.956  15.006 -0.1067  0.0925  0.1254
20039TIP3    H181608   5.847   1.881  15.065 -0.1934  0.2541  0.3416
20039TIP3    H281609   5.842   2.032  15.063  1.5870  0.3323 -0.2095
20040TIP3   OH281610   2.074   4.988   4.511 -0.1880  0.4554  0.0232
20040TIP3    H181611   2.144   4.926   4.493  0.9614  1.0313  2.0983
20040TIP3    H281612   2.118   5.073   4.518 -0.8371  0.6954  2.3097
20041TIP3   OH281613   5.806   4.790   6.122  0.1333  0.2336 -0.1085
20041TIP3    H181614   5.733   4.787   6.184 -0.8274  2.5040 -1.0161
20041TIP3    H281615   5.865   4.857   6.157  0.5696  0.1147 -0.5997
20042TIP3   OH281616   2.637   1.973   5.689  0.1405 -0.2475  0.1872
20042TIP3    H181617   2.730   1.976   5.711 -0.2456 -0.4479  2.0457
20042TIP3    H281618   2.601   2.054   5.725 -0.0392  1.1461 -2.7982
20043TIP3   OH281619   0.440   2.189  13.301 -0.0148 -0.3226  0.6406
20043TIP3    H181620   0.410   2.226  13.384  0.9375  1.0884  0.3811
20043TIP3    H281621   0.528   2.223  13.289 -0.5792  0.5815 -1.5607
20044TIP3   OH281622   4.410   5.524  15.400  0.5455  0.0582  0.2290
20044TIP3    H181623   4.489   5.571  15.377  1.5608 -1.0921  1.2020
20044TIP3    H281624   4.385   5.476  15.321  1.5837 -0.5888  0.2818
20045TIP3   OH281625   4.564   1.886  15.618 -0.5958  0.1849 -0.0761
20045TIP3    H181626   4.514   1.901  15.697  1.3577 -2.6076  1.8775
20045TIP3    H281627   4.645   1.935  15.631  0.3971 -1.5230  0.4635
20046TIP3   OH281628   3.295   5.349   3.496  0.4176 -0.4182  0.3109
20046TIP3    H181629   3.320   5.382   3.582 -0.1384 -0.0235  0.3271
20046TIP3    H281630   3.204   5.377   3.485  0.2951 -0.9792 -0.1562
20047TIP3   OH281631   1.634   5.063   3.267 -0.3562  0.4125 -0.0870
20047TIP3    H181632   1.707   5.082   3.208 -0.2643  0.3016 -0.0102
20047TIP3    H281633   1.640   5.130   3.335  0.6267 -0.5130  0.7863
20048TIP3   OH281634   5.107   1.249  15.072  0.0011 -0.3275  0.2314
20048TIP3    H181635   5.014   1.248  15.050  0.2984  0.1907 -1.1938
20048TIP3    H281636   5.129   1.342  15.081  0.8999 -0.2266 -2.1324
20049TIP3   OH281637   0.748   5.480   4.623  0.0100  0.2434  0.2917
20049TIP3    H181638   0.817   5.433   4.668  0.2317  1.0450  0.8133
20049TIP3    H281639   0.724   5.423   4.550  1.1220 -0.1052  0.1779
20050TIP3   OH281640   1.495   1.585   2.717 -0.3023  0.0354 -0.1761
20050TIP3    H181641   1.566   1.609   2.776 -0.1733  2.6823 -1.2962
20050TIP3    H281642   1.418   1.574   2.774  0.2029  0.7618  0.6502
20051TIP3   OH281643   3.372   5.029  14.445 -0.0716 -0.8724 -0.1946
20051TIP3    H181644   3.357   4.949  14.395 -0.2096 -0.5344 -0.7142
20051TIP3    H281645   3.288   5.075  14.440 -0.0166 -0.7354  0.1676
20052TIP3   OH281646   2.363   4.046   3.697 -0.5051  0.2738 -0.7140
20052TIP3    H181647   2.289   3.995   3.729 -0.5749 -1.0625 -2.8560
20052TIP3    H281648   2.433   4.028   3.760 -0.8759 -1.5569 -0.7884
20053TIP3   OH281649   1.140   6.441   5.056 -0.3254  0.4584  0.1055
20053TIP3    H181650   1.139   6.432   5.151  0.3812  0.4255  0.1122
20053TIP3    H281651   1.160   6.354   5.023 -0.2276  0.5438 -0.0622
20054TIP3   OH281652   2.261   1.923   2.036 -0.0003  0.2883  0.4388
20054TIP3    H181653   2.250   1.832   2.063  0.1248  0.5494  1.3807
20054TIP3    H281654   2.200   1.972   2.090 -1.5700  0.5590 -1.4664
20055TIP3   OH281655   3.633   1.889  11.798 -0.0781  0.1415 -0.4810
20055TIP3    H181656   3.693   1.915  11.728  1.8988 -0.3002  0.9566
20055TIP3    H281657   3.685   1.832  11.854 -1.3999  0.8856  1.6423
20056TIP3   OH281658   6.281   4.231   3.639  0.5955  0.0370  0.4419
20056TIP3    H181659   6.337   4.288   3.585 -2.1368  1.9412 -0.6141
20056TIP3    H281660   6.297   4.143   3.605  1.4850  0.7788 -1.1963
20057TIP3   OH281661   1.549   1.133   6.278  0.4807  0.5062  0.3402
20057TIP3    H181662   1.486   1.070   6.312  0.0609  1.2513  0.9917
20057TIP3    H281663   1.633   1.103   6.312  0.2038  0.6378  1.1594
20058TIP3   OH281664   6.598   5.745   2.797 -0.9850  0.2438 -0.0844
20058TIP3    H181665   6.563   5.830   2.823 -1.4102  0.1105 -0.2180
20058TIP3    H281666   6.532   5.682   2.826 -0.9391  0.0035 -0.4947
20059TIP3   OH281667   1.691   5.770  16.411  0.5979  0.3373 -0.5507
20059TIP3    H181668   1.716   5.709  16.480  1.4628  0.7969 -0.4339
20059TIP3    H281669   1.617   5.819  16.447  1.1584  0.6970  0.1377
20060TIP3   OH281670   4.203   5.026   4.986 -0.2312 -0.3143 -0.5792
20060TIP3    H181671   4.284   5.043   4.938 -1.4097  0.6957 -2.2895
20060TIP3    H281672   4.149   5.104   4.972 -1.0102 -0.3607  1.6575
20061TIP3   OH281673   6.505   1.300  14.711  0.3142 -0.3177 -0.4586
20061TIP3    H181674   6.446   1.356  14.761  0.9118 -0.6122  0.6110
20061TIP3    H281675   6.447   1.241  14.663 -0.2811  0.2810 -0.4908
20062TIP3   OH281676   5.654   0.920  16.470 -0.2896 -0.0881  0.3799
20062TIP3    H181677   5.640   0.827  16.488 -0.9792 -0.2370 -0.8073
20062TIP3    H281678   5.738   0.923  16.425 -0.9256 -0.3367 -0.8776
20063TIP3   OH281679   2.168   1.116  10.643 -0.1467 -0.9103 -0.0353
20063TIP3    H181680   2.083   1.152  10.667  0.9260  1.5209  0.4283
20063TIP3    H281681   2.220   1.192  10.617  1.5011 -2.4721 -1.6006
20064TIP3   OH281682   0.011   2.044   1.438  0.2289  0.8031  0.2423
20064TIP3    H181683  -0.041   1.983   1.490  1.5931  0.0971  0.8105
20064TIP3    H281684  -0.005   2.129   1.479 -2.2568  1.0368 -0.9958
20065TIP3   OH281685   4.889   4.478   6.254  0.0362 -0.6309 -0.1980
20065TIP3    H181686   4.832   4.529   6.311 -0.4019 -0.9415 -0.3506
20065TIP3    H281687   4.873   4.387   6.278  1.3848 -0.6830  0.6002
20066TIP3   OH281688   1.049   0.840   0.117  0.0536  0.1684 -0.2261
20066TIP3    H181689   1.057   0.744   0.121 -0.9921  0.1048  1.8595
20066TIP3    H281690   0.996   0.856   0.040 -0.5802 -1.0162 -0.0654
20067TIP3   OH281691   5.113   3.718  14.812 -0.4713  0.2843  0.2457
20067TIP3    H181692   5.063   3.648  14.854 -0.2082  0.5775  1.0629
20067TIP3    H281693   5.096   3.795  14.866  1.3277  0.2630  0.9045
20068TIP3   OH281694   3.553   5.079   3.098 -0.0515  0.4940 -0.1051
20068TIP3    H181695   3.645   5.056   3.085  0.1182  0.1794  1.5316
20068TIP3    H281696   3.528   5.037   3.180 -1.2216  1.8562  0.2822
20069TIP3   OH281697   2.178   4.268   0.084  0.1753 -0.1262  0.1133
20069TIP3    H181698   2.266   4.264   0.121  0.5741  0.2402 -0.7658
20069TIP3    H281699   2.171   4.189   0.031 -0.5298 -0.8404  1.2395
20070TIP3   OH281700   5.038   4.632  13.355  0.2191  0.1967  0.3681
20070TIP3    H181701   4.993   4.560  13.399 -0.1842 -0.1020 -0.5228
20070TIP3    H281702   5.054   4.600  13.266  0.1511  1.1614 -0.0001
20071TIP3   OH281703   1.598   2.709  15.354 -0.0530  0.1390  0.1092
20071TIP3    H181704   1.585   2.632  15.299 -0.2036 -0.5653  1.0963
20071TIP3    H281705   1.630   2.673  15.437 -0.8256  1.0723  0.8327
20072TIP3   OH281706   4.991   3.367   6.203  0.7531  0.0012  0.2449
20072TIP3    H181707   4.982   3.462   6.192 -0.8567 -0.2678 -1.2246
20072TIP3    H281708   4.902   3.336   6.217  1.0249 -1.4562 -0.9568
20073TIP3   OH281709   0.496   5.827   0.747 -0.1959  0.0117 -0.0533
20073TIP3    H181710   0.582   5.785   0.738  0.1159  1.0041 -2.1349
20073TIP3    H281711   0.512   5.919   0.729 -1.3272  0.6478  1.8962
20074TIP3   OH281712   0.446   4.860   3.581 -0.2567 -0.0637  0.0958
20074TIP3    H181713   0.396   4.905   3.648 -1.8149 -0.0818 -1.0097
20074TIP3    H281714   0.470   4.928   3.518  0.7263 -0.1367  0.3680
20075TIP3   OH281715   1.785   4.580  15.437 -0.0756 -0.2710  0.3534
20075TIP3    H181716   1.769   4.671  15.411 -1.3082 -0.8246 -0.9157
20075TIP3    H281717   1.710   4.558  15.493  0.1928 -0.5351  0.6130
20076TIP3   OH281718   6.832   2.907  12.414 -0.1068 -0.0334 -0.7734
20076TIP3    H181719   6.744   2.869  12.416 -0.5694  0.9552  1.8829
20076TIP3    H281720   6.820   2.992  12.372 -0.7743  0.7203  0.8540
20077TIP3   OH281721   1.476   5.767  13.664  0.2896  0.7774  0.2718
20077TIP3    H181722   1.558   5.725  13.693  1.1358  1.4079 -1.1461
20077TIP3    H281723   1.484   5.773  13.569 -1.2220  1.2729  0.1521
20078TIP3   OH281724   0.008   3.587  12.115  0.2414  0.3458  0.0784
20078TIP3    H181725   0.002   3.677  12.147  0.1658  0.4968 -0.3437
20078TIP3    H281726   0.096   3.582  12.076 -0.8588  1.2863 -2.8782
20079TIP3   OH281727   5.838   1.085   3.251 -0.0220 -0.3460 -0.9143
20079TIP3    H181728   5.918   1.133   3.230  0.3471 -0.6767 -0.3111
20079TIP3    H281729   5.822   1.105   3.343 -1.9285  1.5447 -1.5756
20080TIP3   OH281730   5.990   6.301   2.261 -0.1721 -0.0237  0.3715
20080TIP3    H181731   6.064   6.252   2.226  0.2309 -0.9654  2.4209
20080TIP3    H281732   5.928   6.234   2.290 -0.9075  0.7297  0.5815
20081TIP3   OH281733   5.624   4.513  14.604 -0.5984 -0.0557  0.1044
20081TIP3    H181734   5.548   4.545  14.556 -0.6491  0.1681  0.3302
20081TIP3    H281735   5.612   4.418  14.608  0.5262 -0.3591 -2.2617
20082TIP3   OH281736   1.004   3.570   3.756  0.4548  0.4211  0.3541
20082TIP3    H181737   0.991   3.635   3.688 -0.0739  0.4833  0.5114
20082TIP3    H281738   0.919   3.562   3.799  0.6468  0.0044  0.6704
20083TIP3   OH281739   3.942   3.958  13.499 -0.1623  0.6599  0.2942
20083TIP3    H181740   3.884   3.955  13.423 -0.7562  3.3648  0.5393
20083TIP3    H281741   3.922   3.878  13.548  0.0949 -1.0526 -2.2086
20084TIP3   OH281742   4.817   5.284   2.982  0.6702 -0.0723 -0.2339
20084TIP3    H181743   4.818   5.274   2.887  0.7114 -0.2116 -0.2187
20084TIP3    H281744   4.879   5.355   2.999 -1.0477  1.5932 -0.5005
20085TIP3   OH281745   1.046   2.640   5.617 -0.0011 -0.8035 -0.1017
20085TIP3    H181746   1.119   2.701   5.627  0.9216 -2.0844  1.6254
20085TIP3    H281747   1.027   2.611   5.707 -1.9238 -1.3244 -0.6343
20086TIP3   OH281748   3.326   6.823  16.854  0.0147  0.3439  0.3498
20086TIP3    H181749   3.386   6.850  16.923  0.4005 -0.0618  0.1788
20086TIP3    H281750   3.312   6.730  16.869 -0.6312  0.4475  0.4290
20087TIP3   OH281751   2.432   2.050   1.532 -0.9687  0.3050 -0.6803
20087TIP3    H181752   2.402   1.990   1.601  1.3951  0.3819  0.5036
20087TIP3    H281753   2.469   1.992   1.465  1.3872  0.3535  0.4993
20088TIP3   OH281754   2.697   6.138  16.925  0.0660  0.4804  0.4450
20088TIP3    H181755   2.738   6.115  16.842  0.3309  0.6963  0.5143
20088TIP3    H281756   2.611   6.097  16.922  0.1376  0.3555  0.1308
20089TIP3   OH281757   5.770   1.897  15.754  0.0050  0.6233 -0.5924
20089TIP3    H181758   5.748   1.853  15.672 -1.1332 -0.3771  0.2094
20089TIP3    H281759   5.850   1.853  15.784 -0.7847 -0.5131 -0.1035
20090TIP3   OH281760   5.512   4.506  12.128  0.1554 -0.1237  0.8171
20090TIP3    H181761   5.577   4.549  12.183 -2.0994  0.7030  2.9845
20090TIP3    H281762   5.470   4.577  12.080 -0.9493 -0.2933  1.4907
20091TIP3   OH281763   0.279   3.393  14.539 -0.6818  0.5193 -0.2916
20091TIP3    H181764   0.322   3.379  14.623 -1.3644  0.2261  0.0182
20091TIP3    H281765   0.308   3.319  14.485 -0.9928  0.1775  0.0011
20092TIP3   OH281766   2.424   5.833   3.898  0.3761  0.4631  0.2822
20092TIP3    H181767   2.403   5.773   3.969  0.8006  0.0344  0.0508
20092TIP3    H281768   2.512   5.863   3.917 -0.4356  2.3381  1.3041
20093TIP3   OH281769   3.283   6.458   2.156 -0.1241  0.1577 -0.0156
20093TIP3    H181770   3.354   6.465   2.220  0.4128 -1.0349 -0.4562
20093TIP3    H281771   3.321   6.411   2.083 -1.3982 -0.5901 -0.2274
20094TIP3   OH281772   2.758   0.082  15.365  0.5824 -0.1820 -0.2726
20094TIP3    H181773   2.703   0.022  15.315  1.7180 -0.3774 -1.3518
20094TIP3    H281774   2.714   0.166  15.360 -0.6060 -0.7226  0.5605
20095TIP3   OH281775   2.217   4.425   4.434 -0.4906  0.6324 -0.4217
20095TIP3    H181776   2.150   4.412   4.501 -0.6017 -1.4732 -0.8702
20095TIP3    H281777   2.295   4.382   4.469 -0.5236 -0.4051 -1.5735
20096TIP3   OH281778   4.744   1.246   2.672  0.1128 -0.2541  0.0961
20096TIP3    H181779   4.659   1.277   2.703 -0.0253 -1.2894  0.7822
20096TIP3    H281780   4.723   1.185   2.602  0.1641 -1.9599  1.4982
20097TIP3   OH281781   5.754   5.349  10.952  0.1088 -0.1326 -0.0394
20097TIP3    H181782   5.690   5.321  11.018 -0.9560  0.2427 -0.8942
20097TIP3    H281783   5.723   5.311  10.870  1.9526 -1.4297 -0.2152
20098TIP3   OH281784   2.741   1.869   4.743 -0.2313 -0.0326 -0.3182
20098TIP3    H181785   2.650   1.877   4.770  0.0045 -0.7352  0.7323
20098TIP3    H281786   2.788   1.846   4.823  0.7611 -0.4096 -0.9898
20099TIP3   OH281787   4.244   3.966  16.620 -0.3218  0.7072 -0.2533
20099TIP3    H181788   4.195   3.888  16.595  1.6434 -1.2382  1.6321
20099TIP3    H281789   4.177   4.026  16.654 -1.5418 -1.6628  1.8146
20100TIP3   OH281790   1.727   5.683   0.415  0.2499  0.4419 -0.8088
20100TIP3    H181791   1.779   5.611   0.380  0.1586 -0.4364  0.7781
20100TIP3    H281792   1.637   5.651   0.413  0.1328  0.7512 -0.6581
20101TIP3   OH281793   1.424   2.648  13.820  0.7990  0.0383  0.1201
20101TIP3    H181794   1.431   2.691  13.734  1.2227 -1.3716 -0.5693
20101TIP3    H281795   1.337   2.675  13.852 -0.1725 -0.8794 -1.5846
20102TIP3   OH281796   0.603   5.017   0.698 -0.0492  0.2487  0.6909
20102TIP3    H181797   0.667   5.088   0.709 -0.8805  1.0638  0.3831
20102TIP3    H281798   0.602   5.001   0.603  0.1483 -0.1899  0.7626
20103TIP3   OH281799   4.944   5.347  11.302  0.5243  0.2577  0.3827
20103TIP3    H181800   4.999   5.391  11.236 -1.6516 -0.8658 -2.3815
20103TIP3    H281801   4.869   5.405  11.313 -1.1892 -1.4229 -1.4880
20104TIP3   OH281802   2.531   2.762  13.934 -0.9624  0.2566 -0.3685
20104TIP3    H181803   2.583   2.808  14.000 -2.6203  1.8060 -0.0654
20104TIP3    H281804   2.509   2.679  13.976  0.3957 -0.0197 -0.1368
20105TIP3   OH281805   1.279   3.080  16.299  0.0198 -0.4134  0.1472
20105TIP3    H181806   1.222   3.137  16.352 -1.5482 -1.2811 -0.5292
20105TIP3    H281807   1.247   3.091  16.210  0.9028 -0.9628 -0.2429
20106TIP3   OH281808   5.763   3.988   2.943  0.0664 -0.1056  0.4035
20106TIP3    H181809   5.854   3.964   2.958  0.7630  0.1347 -2.7359
20106TIP3    H281810   5.740   3.945   2.860 -2.7258 -0.2125  1.1235
20107TIP3   OH281811   3.382   3.328   2.972  0.6533 -0.0484 -0.1227
20107TIP3    H181812   3.330   3.314   2.892 -0.9615  0.6791  0.7502
20107TIP3    H281813   3.361   3.417   2.998  1.1969 -0.2644  1.0927
20108TIP3   OH281814   1.461   4.329   4.481  0.5590 -0.0616  0.6136
20108TIP3    H181815   1.457   4.423   4.498 -0.9296  0.1356 -0.6499
20108TIP3    H281816   1.380   4.309   4.434  0.5474 -2.1005  1.4025
20109TIP3   OH281817   6.208   4.383   3.858  0.1430  0.8235  0.1859
20109TIP3    H181818   6.217   4.327   3.781 -0.3838  1.3796 -0.2922
20109TIP3    H281819   6.186   4.469   3.822 -1.1299  0.8581  0.9912
20110TIP3   OH281820   2.960   4.414  11.150 -0.2298 -0.2340 -0.4956
20110TIP3    H181821   2.923   4.343  11.097 -2.4235  0.0646  0.5092
20110TIP3    H281822   2.884   4.454  11.191  1.2262  0.8661  1.2412
20111TIP3   OH281823   5.403   2.644  12.145  0.1607  0.1220 -0.1533
20111TIP3    H181824   5.372   2.578  12.083 -0.7011  0.0451  0.3482
20111TIP3    H281825   5.422   2.595  12.225  0.2046  0.3834 -0.0028
20112TIP3   OH281826   0.922   3.912   3.412 -0.0621 -0.0524  0.8834
20112TIP3    H181827   1.016   3.903   3.401 -0.0027 -2.8930  2.5549
20112TIP3    H281828   0.884   3.873   3.333  0.0890  2.0632 -0.2881
20113TIP3   OH281829   0.628   5.602  15.253  0.5215  0.1246  0.1352
20113TIP3    H181830   0.579   5.579  15.174 -0.3554 -1.3959  1.0706
20113TIP3    H281831   0.601   5.692  15.273 -0.9865 -0.2601 -0.0545
20114TIP3   OH281832   0.519   3.581   2.424  0.2383 -0.8707  0.8404
20114TIP3    H181833   0.610   3.576   2.394 -0.1494 -1.4351 -0.3059
20114TIP3    H281834   0.526   3.602   2.517  1.5298 -0.4919  0.6825
20115TIP3   OH281835   0.933   0.746   0.632 -0.1952 -0.5012  0.1024
20115TIP3    H181836   0.944   0.677   0.697  1.1171  0.1365  0.6099
20115TIP3    H281837   1.010   0.803   0.645 -0.0160 -0.2361 -1.8506
20116TIP3   OH281838   1.629   0.879   6.076  0.8089 -0.4977 -0.3510
20116TIP3    H181839   1.644   0.937   6.151  0.4809  0.6801 -1.1656
20116TIP3    H281840   1.606   0.795   6.115  1.4629 -0.1331  0.8713
20117TIP3   OH281841   0.727   1.465   0.094  0.2571 -0.1183 -0.1126
20117TIP3    H181842   0.785   1.491   0.023  0.0183 -1.6688 -0.9354
20117TIP3    H281843   0.639   1.470   0.056  0.2318 -2.5894 -0.5515
20118TIP3   OH281844   5.643   3.627  11.797 -0.4263 -0.2792 -0.2773
20118TIP3    H181845   5.626   3.560  11.863  0.7501 -1.1345 -0.8002
20118TIP3    H281846   5.564   3.681  11.796 -0.7878 -0.7522  1.2225
20119TIP3   OH281847   4.242   3.082   1.890 -0.3622 -0.1046 -0.0081
20119TIP3    H181848   4.253   3.060   1.797  1.3003 -0.3736  0.2176
20119TIP3    H281849   4.263   3.175   1.895  0.0350 -0.1981  0.1511
20120TIP3   OH281850   3.002   0.456  11.027 -0.6004 -0.1293 -0.3247
20120TIP3    H181851   2.988   0.414  11.112 -1.5756  0.5253 -0.1473
20120TIP3    H281852   3.006   0.383  10.964 -0.5770 -0.5756  0.1883
20121TIP3   OH281853   1.990   3.538  14.626 -0.1763  0.3570  0.3274
20121TIP3    H181854   1.933   3.562  14.700  0.7166 -0.5469  1.3366
20121TIP3    H281855   2.032   3.620  14.600 -0.8083  0.7561  0.5350
20122TIP3   OH281856   2.299   2.281   5.744 -0.5203  0.4764 -0.4604
20122TIP3    H181857   2.386   2.254   5.771 -0.9154 -0.3855 -0.0179
20122TIP3    H281858   2.244   2.205   5.760 -1.0986  0.5217 -2.0407
20123TIP3   OH281859   3.965   2.430   1.365 -0.0001  0.3358 -0.1420
20123TIP3    H181860   3.871   2.430   1.384 -0.2074  0.9082 -1.1043
20123TIP3    H281861   4.005   2.464   1.445 -0.8070  2.2703 -0.5192
20124TIP3   OH281862   0.516   2.220   3.953  0.1059 -0.3519  0.1554
20124TIP3    H181863   0.521   2.200   3.860 -0.6050 -1.4803  0.3422
20124TIP3    H281864   0.451   2.290   3.960 -1.0195 -1.3504 -0.0623
20125TIP3   OH281865   4.061   6.644   1.099 -0.3634 -0.1521  0.6148
20125TIP3    H181866   4.077   6.739   1.098 -1.6079  0.0820  1.1623
20125TIP3    H281867   4.078   6.619   1.190  0.0776 -0.4910  0.4440
20126TIP3   OH281868   1.093   1.230  13.395  0.2036  0.7584  0.1619
20126TIP3    H181869   1.048   1.289  13.455  0.0605  0.3708  0.4400
20126TIP3    H281870   1.186   1.248  13.408  0.2844 -0.6041  1.8669
20127TIP3   OH281871   1.023   0.572   5.309  0.1708  0.4872  0.3854
20127TIP3    H181872   1.090   0.624   5.354 -0.2563 -0.0512  1.6915
20127TIP3    H281873   1.051   0.482   5.321  1.3197  0.3706 -2.5355
20128TIP3   OH281874   5.776   5.210  15.306 -0.4647 -0.3233 -0.4387
20128TIP3    H181875   5.767   5.177  15.395  0.2378  0.3520 -0.0988
20128TIP3    H281876   5.762   5.305  15.314 -3.1517 -0.5473 -1.4975
20129TIP3   OH281877   5.574   5.695   5.742 -0.2604 -0.1012 -0.2009
20129TIP3    H181878   5.580   5.667   5.834 -0.5312 -1.9706 -0.7065
20129TIP3    H281879   5.483   5.682   5.718 -0.4748  1.5914 -0.4095
20130TIP3   OH281880   6.268   0.869  13.187 -0.4609 -0.4647 -0.3481
20130TIP3    H181881   6.246   0.880  13.095 -0.5676 -0.1860 -0.2905
20130TIP3    H281882   6.194   0.818  13.223 -1.2285  0.7944 -0.0742
20131TIP3   OH281883   4.087   6.091  15.394 -0.5979 -0.1997 -0.0832
20131TIP3    H181884   4.136   6.010  15.383  1.2714  1.0339 -1.4726
20131TIP3    H281885   4.055   6.088  15.484  0.1720 -2.0688  0.1645
20132TIP3   OH281886   4.542   0.915   1.111 -0.3055  0.6153 -0.6544
20132TIP3    H181887   4.505   0.860   1.042 -0.9312  0.5600 -0.2798
20132TIP3    H281888   4.466   0.960   1.149 -0.1821 -0.5506  1.0581
20133TIP3   OH281889   3.053   1.410  14.969 -0.1653  0.0566 -0.4114
20133TIP3    H181890   3.121   1.427  14.905  0.4040  1.3004  0.4879
20133TIP3    H281891   3.061   1.481  15.033 -0.5417 -1.2498  1.1701
20134TIP3   OH281892   2.369   5.627  15.874 -0.3199  0.4053  0.1271
20134TIP3    H181893   2.403   5.648  15.788  1.6086 -0.3312  0.6651
20134TIP3    H281894   2.319   5.705  15.900 -1.8503  0.2183 -2.0456
20135TIP3   OH281895   3.655   4.892   4.341  0.2725 -0.3140  0.0098
20135TIP3    H181896   3.567   4.900   4.377 -0.1319 -0.5052 -0.9188
20135TIP3    H281897   3.647   4.919   4.250  1.5688  1.5550  0.4052
20136TIP3   OH281898   6.368   5.581  13.037 -0.4255  0.0801 -0.5097
20136TIP3    H181899   6.340   5.540  13.119  0.8771 -0.0234 -0.0949
20136TIP3    H281900   6.361   5.511  12.972  2.4810 -1.1444  0.3297
20137TIP3   OH281901   4.683   5.284  16.238  0.0169  0.2289  0.0935
20137TIP3    H181902   4.715   5.211  16.184  0.5511 -1.0665  2.0314
20137TIP3    H281903   4.602   5.252  16.276  1.2119 -0.2120  2.4822
20138TIP3   OH281904   3.368   3.996  11.304  0.2210  0.0458 -0.1781
20138TIP3    H181905   3.461   3.977  11.305  0.3573  0.4684 -1.7802
20138TIP3    H281906   3.348   4.016  11.212 -1.3627  0.3480  0.1899
20139TIP3   OH281907   5.051   0.500   3.742  0.0164  0.6800 -0.0256
20139TIP3    H181908   4.981   0.447   3.705  0.8800 -0.0480 -0.6653
20139TIP3    H281909   5.029   0.590   3.717  0.4363  0.2437 -2.1894
20140TIP3   OH281910   2.221   5.845  11.966  0.3118  0.3402 -0.0512
20140TIP3    H181911   2.269   5.928  11.972  0.0152  0.5475 -0.4867
20140TIP3    H281912   2.179   5.848  11.880 -0.1822 -0.0052  0.1757
20141TIP3   OH281913   5.342   4.471  14.818  0.7570 -0.0602 -0.2989
20141TIP3    H181914   5.410   4.538  14.820  0.3142  0.4408 -1.2086
20141TIP3    H281915   5.284   4.493  14.891  0.6142  0.5649 -0.5883
20142TIP3   OH281916   5.430   3.234  12.281 -0.5900  0.3991 -0.4579
20142TIP3    H181917   5.504   3.272  12.233 -0.9464  0.2742 -1.1187
20142TIP3    H281918   5.390   3.174  12.218 -0.6956 -0.2388  0.2063
20143TIP3   OH281919   3.961   0.773  12.166 -0.3321  0.6252  0.5596
20143TIP3    H181920   3.878   0.770  12.213  0.1169 -1.0276  1.3520
20143TIP3    H281921   3.973   0.865  12.143 -3.5372  0.6406 -1.7894
20144TIP3   OH281922   0.032   6.795   1.244 -0.1298  0.2920  0.2996
20144TIP3    H181923   0.003   6.704   1.246  0.4462  0.0187 -1.7674
20144TIP3    H281924   0.097   6.801   1.314 -1.7343 -0.2825  1.9072
20145TIP3   OH281925   2.933   1.574  13.341  0.3123  0.2429 -0.1869
20145TIP3    H181926   2.940   1.668  13.328  2.2405  0.0128 -1.3151
20145TIP3    H281927   2.894   1.542  13.259 -1.7055  0.1385  0.7460
20146TIP3   OH281928   4.494   1.441   1.207  0.4610 -1.2080 -0.0292
20146TIP3    H181929   4.451   1.374   1.154 -1.2197 -0.9897  0.9765
20146TIP3    H281930   4.501   1.402   1.294  0.4696 -0.4894  0.2992
20147TIP3   OH281931   5.813   0.743  15.116  0.1523  0.1322  0.1115
20147TIP3    H181932   5.737   0.799  15.120 -0.3889 -0.6673  2.5921
20147TIP3    H281933   5.791   0.668  15.171  2.0039 -1.0666 -0.6614
20148TIP3   OH281934   2.831   5.129   5.510 -0.1983 -0.4166 -0.4648
20148TIP3    H181935   2.827   5.197   5.443  0.7762 -0.1071 -0.2322
20148TIP3    H281936   2.916   5.142   5.552 -0.6440 -0.8095  0.6092
20149TIP3   OH281937   1.127   3.776   1.104  0.5920  0.2994 -0.0517
20149TIP3    H181938   1.076   3.807   1.029 -0.1017 -0.1238  0.2350
20149TIP3    H281939   1.085   3.695   1.130  1.7602 -0.3639 -0.1486
20150TIP3   OH281940   2.831   0.522   4.496 -0.2050 -0.6635 -0.2481
20150TIP3    H181941   2.758   0.521   4.434 -0.1472  0.8409 -0.3888
20150TIP3    H281942   2.850   0.615   4.509  1.8639 -1.0129 -0.4293
20151TIP3   OH281943   4.867   3.611   0.196  0.4502  0.2583  0.1055
20151TIP3    H181944   4.818   3.529   0.199 -0.3088  0.6900 -0.0178
20151TIP3    H281945   4.955   3.588   0.224 -0.4549 -0.1106  3.0552
20152TIP3   OH281946   4.618   1.208   0.300 -0.8479 -0.2898  0.1934
20152TIP3    H181947   4.674   1.133   0.319 -1.1996 -0.3162  1.1966
20152TIP3    H281948   4.658   1.250   0.223 -0.6090 -1.4533 -0.3419
20153TIP3   OH281949   6.108   3.123  10.989 -0.1718  0.2635  0.0337
20153TIP3    H181950   6.122   3.045  10.936  2.7221  1.3380 -0.9904
20153TIP3    H281951   6.089   3.192  10.925  0.7715  1.0535  0.5736
20154TIP3   OH281952   3.023   1.675  14.185 -0.1124 -0.3863  0.1528
20154TIP3    H181953   3.046   1.642  14.098  0.5471  1.3625 -0.3755
20154TIP3    H281954   2.936   1.638  14.202  0.4242 -2.0584 -0.5215
20155TIP3   OH281955   3.019   1.511   3.221 -0.8012  0.0608  0.1069
20155TIP3    H181956   2.964   1.581   3.257  0.1014  0.0285  1.6602
20155TIP3    H281957   3.033   1.451   3.295  1.2063  0.0283 -0.2338
20156TIP3   OH281958   3.129   2.818   0.100  0.1772 -0.0640  0.1097
20156TIP3    H181959   3.114   2.823   0.006 -1.2432 -0.4056  0.2920
20156TIP3    H281960   3.066   2.880   0.137 -0.7930 -1.4750  0.9386
20157TIP3   OH281961   3.686   0.074   1.788 -0.0547  0.2441  1.0574
20157TIP3    H181962   3.679   0.017   1.864 -1.1774 -0.0883  0.7174
20157TIP3    H281963   3.752   0.032   1.732 -2.7540 -2.2968 -0.4704
20158TIP3   OH281964   3.136   4.035  10.148 -0.6257 -0.1475  0.1225
20158TIP3    H181965   3.101   4.118  10.181 -0.0779  0.2100 -0.1819
20158TIP3    H281966   3.058   3.981  10.131 -0.9452 -0.3066  1.8590
20159TIP3   OH281967   2.559   2.622  16.551 -0.0957  0.7014 -0.0612
20159TIP3    H181968   2.520   2.586  16.631 -1.3815  0.4441 -0.7852
20159TIP3    H281969   2.623   2.557  16.524  0.6862  1.0003  0.9967
20160TIP3   OH281970   6.568   4.004   2.269  0.2938 -0.4454 -0.4786
20160TIP3    H181971   6.618   3.991   2.188  0.2162  0.2751 -0.6510
20160TIP3    H281972   6.550   4.098   2.271 -0.5910 -0.6096 -0.1443
20161TIP3   OH281973   4.894   3.875   5.317 -0.1459  0.2831  0.0358
20161TIP3    H181974   4.978   3.917   5.335  0.0962 -0.4914  0.7546
20161TIP3    H281975   4.865   3.840   5.401 -1.7072  1.4338  0.0272
20162TIP3   OH281976   3.581   3.915  11.042 -1.0854  0.1440  0.2208
20162TIP3    H181977   3.513   3.947  10.983 -1.4485 -2.3680 -0.8138
20162TIP3    H281978   3.649   3.881  10.984 -1.1083 -1.6998  1.2113
20163TIP3   OH281979   0.892   2.196  12.034 -0.3803 -0.2601 -0.3303
20163TIP3    H181980   0.892   2.230  12.124  1.5992 -1.0365  0.0243
20163TIP3    H281981   0.826   2.127  12.035 -1.3169  0.6113  0.1406
20164TIP3   OH281982   0.836   1.083   5.495  0.2174 -0.6637  0.0035
20164TIP3    H181983   0.885   1.001   5.488  0.0534 -0.8669  1.1130
20164TIP3    H281984   0.744   1.057   5.484  0.1186 -0.7160  0.9145
20165TIP3   OH281985   5.807   2.799  16.142  0.2201  0.1690 -0.0530
20165TIP3    H181986   5.901   2.819  16.136  0.4878 -0.3620  1.7119
20165TIP3    H281987   5.790   2.794  16.236 -1.5622  0.1071 -0.3520
20166TIP3   OH281988   6.121   4.138  12.153  0.0026  0.2233 -0.0899
20166TIP3    H181989   6.032   4.116  12.178 -0.7155  2.6992 -0.1911
20166TIP3    H281990   6.167   4.151  12.237  0.4863 -1.5983 -0.0241
20167TIP3   OH281991   1.123   4.605  11.802 -0.1344  0.3191 -0.2705
20167TIP3    H181992   1.134   4.689  11.758  1.1980  1.0830  1.3872
20167TIP3    H281993   1.055   4.560  11.753  0.8258  1.3589 -2.6879
20168TIP3   OH281994   4.069   1.998  12.013 -0.3237 -0.1292  0.4941
20168TIP3    H181995   3.975   2.001  12.001 -0.3312 -1.7336  0.0062
20168TIP3    H281996   4.089   1.906  12.030  1.2979 -0.0278 -0.6641
20169TIP3   OH281997   6.317   2.125  11.631 -0.4930 -0.0878  0.0471
20169TIP3    H181998   6.256   2.195  11.608  1.4066  1.7262  0.1760
20169TIP3    H281999   6.360   2.102  11.548 -0.6294 -0.6395  0.1243
20170TIP3   OH282000   2.040   3.762  15.830  0.1974 -0.2019  0.1753
20170TIP3    H182001   2.124   3.755  15.875  0.8725 -0.1657 -1.0401
20170TIP3    H282002   2.006   3.848  15.855  0.9522  0.1613 -0.0293
20171TIP3   OH282003   3.981   3.745  15.935  0.3380  1.1172 -0.0355
20171TIP3    H182004   3.894   3.756  15.973  1.3771  2.1818  2.2620
20171TIP3    H282005   4.025   3.684  15.994  1.3589  1.1074 -0.7855
20172TIP3   OH282006   6.021   0.422   4.336  0.3521 -0.1983  0.3189
20172TIP3    H182007   5.995   0.388   4.421 -0.3246 -0.1805  0.1261
20172TIP3    H282008   5.952   0.392   4.276  0.1210  0.9001  0.0201
20173TIP3   OH282009   4.540   0.524   4.048  1.0267  0.0698 -0.0415
20173TIP3    H182010   4.634   0.518   4.031  0.9744 -0.1389 -0.2536
20173TIP3    H282011   4.499   0.486   3.971  0.7889 -0.9389  0.5688
20174TIP3   OH282012   1.131   0.876   2.515  0.4502 -0.3025 -0.1988
20174TIP3    H182013   1.104   0.815   2.446  1.0650 -0.1727 -0.5664
20174TIP3    H282014   1.089   0.843   2.594  0.0061 -0.6511 -0.5704
20175TIP3   OH282015   6.666   1.204   6.313 -0.5959 -0.0317 -0.1218
20175TIP3    H182016   6.728   1.158   6.256 -0.7271 -1.3464  0.7655
20175TIP3    H282017   6.722   1.260   6.368 -0.2083 -0.9390  0.4274
20176TIP3   OH282018   0.779   1.491   6.545  0.5021  0.1685  0.2174
20176TIP3    H182019   0.755   1.562   6.486  2.0142  0.5610  0.0318
20176TIP3    H282020   0.814   1.423   6.488  0.7008 -0.0038  0.5414
20177TIP3   OH282021   4.228   2.627   0.653 -0.2286 -0.3831 -0.0877
20177TIP3    H182022   4.153   2.633   0.713 -0.6664  0.4268 -0.6824
20177TIP3    H282023   4.188   2.630   0.566  0.4464 -0.8696 -0.4158
20178TIP3   OH282024   6.645   1.186   1.893 -0.1702  0.2609 -0.0677
20178TIP3    H182025   6.678   1.266   1.933 -0.7009  0.4256  0.0557
20178TIP3    H282026   6.638   1.207   1.799 -1.2251  0.7013  0.0876
20179TIP3   OH282027   2.351   2.393   4.790 -0.4540  0.1606 -0.1426
20179TIP3    H182028   2.381   2.302   4.799 -2.1299 -0.5093 -0.9292
20179TIP3    H282029   2.339   2.424   4.880  1.5473  0.1378  0.1749
20180TIP3   OH282030   6.079   1.831   2.721  0.5596 -0.1814  0.3177
20180TIP3    H182031   6.048   1.896   2.785 -1.4033 -1.5935  0.9167
20180TIP3    H282032   5.999   1.788   2.691  1.4942 -0.1108 -2.5766
20181TIP3   OH282033   5.254   4.366   1.030 -0.2799  0.2921  0.1740
20181TIP3    H182034   5.271   4.279   0.994 -0.0088  0.1254  0.6932
20181TIP3    H282035   5.176   4.396   0.984  0.0697  0.0960 -0.5661
20182TIP3   OH282036   4.313   1.700   5.041 -0.6717  0.0429 -0.3542
20182TIP3    H182037   4.239   1.734   5.091 -0.3680 -1.0502  0.9116
20182TIP3    H282038   4.359   1.777   5.009 -1.4211  0.7545  0.2623
20183TIP3   OH282039   6.812   5.542  13.990  0.1023  0.1429 -0.3252
20183TIP3    H182040   6.790   5.537  14.083  0.8529  1.7017 -0.0344
20183TIP3    H282041   6.768   5.466  13.951  2.4232 -2.5130  1.7785
20184TIP3   OH282042   2.370   0.735  13.125 -0.0415 -0.1619 -0.2678
20184TIP3    H182043   2.384   0.641  13.113  2.2798  0.2431 -1.4403
20184TIP3    H282044   2.407   0.775  13.046  3.2711  1.9417  2.0287
20185TIP3   OH282045   0.258   5.964   5.241 -0.4736 -0.3858 -0.0443
20185TIP3    H182046   0.314   5.959   5.163  0.4571  1.2029  0.4725
20185TIP3    H282047   0.316   5.998   5.310 -1.3076 -1.6288  1.3358
20186TIP3   OH282048   4.884   5.413  17.014 -0.4841 -0.5245 -0.3123
20186TIP3    H182049   4.883   5.440  16.922 -0.5410 -2.0942 -0.7997
20186TIP3    H282050   4.836   5.330  17.015  0.2485 -0.9632  0.9964
20187TIP3   OH282051   3.879   1.411   3.806 -0.3873 -0.5099  0.0610
20187TIP3    H182052   3.941   1.482   3.790 -0.3861 -0.6209 -0.4470
20187TIP3    H282053   3.900   1.345   3.739 -0.8843 -0.6605  0.0487
20188TIP3   OH282054   5.336   0.095   5.897  0.8304  0.6584  0.7202
20188TIP3    H182055   5.281   0.124   5.970 -0.0701  0.6334  0.0756
20188TIP3    H282056   5.307   0.006   5.879  1.3648  0.4988  0.6216
20189TIP3   OH282057   2.717   4.402  16.132 -0.5712  0.4731  0.0828
20189TIP3    H182058   2.720   4.479  16.075  0.0803  0.2374 -0.2118
20189TIP3    H282059   2.770   4.425  16.208 -0.5267  0.3867  0.0796
20190TIP3   OH282060   5.305   3.747   4.142  0.4051 -0.0369  0.1266
20190TIP3    H182061   5.247   3.808   4.187  2.4508  1.1353  1.3338
20190TIP3    H282062   5.347   3.698   4.213  0.3767 -1.3757 -0.7452
20191TIP3   OH282063   1.191   6.514   3.485  0.1102 -0.7266 -0.0395
20191TIP3    H182064   1.206   6.580   3.417 -0.9651  0.4697  0.8483
20191TIP3    H282065   1.221   6.432   3.445 -1.4315 -0.2561 -2.3826
20192TIP3   OH282066   6.640   1.672   2.182  0.2993  0.2453  0.1850
20192TIP3    H182067   6.580   1.716   2.243 -0.2850  1.1366 -0.9820
20192TIP3    H282068   6.727   1.689   2.218 -0.0618  0.0296  1.2130
20193TIP3   OH282069   5.102   4.044  10.353  0.1383 -0.2437 -0.0406
20193TIP3    H182070   5.106   4.128  10.308  3.1936  0.0327  0.5164
20193TIP3    H282071   5.161   4.055  10.428  1.2420 -3.1048 -0.3809
20194TIP3   OH282072   1.598   1.585  16.186  0.0211  0.2022  0.7938
20194TIP3    H182073   1.603   1.671  16.226 -1.3703  0.7808 -0.1849
20194TIP3    H282074   1.537   1.536  16.241 -0.6281  0.4694  0.3307
20195TIP3   OH282075   6.306   4.317   3.304 -0.3641 -0.5244 -1.1209
20195TIP3    H182076   6.225   4.275   3.334 -0.5783  0.2641 -0.5700
20195TIP3    H282077   6.286   4.351   3.217 -0.2574 -1.3472 -1.4775
20196TIP3   OH282078   0.952   3.012  15.127  0.4481  0.1557  0.2069
20196TIP3    H182079   0.932   2.952  15.055 -2.0913  1.5003 -0.3549
20196TIP3    H282080   0.990   3.088  15.084  1.4644 -0.1040  0.6352
20197TIP3   OH282081   2.646   4.077  14.170  0.7383  0.0375  0.3285
20197TIP3    H182082   2.713   4.021  14.209  1.3862  0.3896 -0.2449
20197TIP3    H282083   2.636   4.149  14.232  0.2839 -0.4424  0.8144
20198TIP3   OH282084   4.887   5.390  16.747  0.2119 -0.1026  0.1971
20198TIP3    H182085   4.804   5.383  16.700 -0.5850  0.0108  1.5474
20198TIP3    H282086   4.942   5.323  16.708 -0.9098 -0.9809  0.0645
20199TIP3   OH282087   4.959   1.766   4.975 -0.0340 -0.2796  0.1641
20199TIP3    H182088   4.977   1.729   4.888 -0.3667  0.2086 -0.1154
20199TIP3    H282089   4.944   1.690   5.031  3.4629 -0.8204  0.5826
20200TIP3   OH282090   3.978   1.252   0.526  0.1053 -0.5718 -0.1702
20200TIP3    H182091   3.989   1.271   0.433 -0.3660  1.0947  0.0675
20200TIP3    H282092   3.896   1.296   0.549  0.7598 -0.0505  1.2451
20201TIP3   OH282093   1.854   1.624   5.638 -0.5041  0.1698 -0.2251
20201TIP3    H182094   1.881   1.703   5.684 -1.4727  1.0784 -1.1534
20201TIP3    H282095   1.914   1.618   5.563 -0.1747 -0.1971  0.0701
20202TIP3   OH282096   4.194   1.277   2.790 -0.2393  0.2190  0.4195
20202TIP3    H182097   4.175   1.337   2.862 -1.3141  0.3377  0.0543
20202TIP3    H282098   4.158   1.321   2.712 -1.1116 -0.9138  0.1567
20203TIP3   OH282099   1.027   4.612  14.516  0.4380  0.2184 -0.1432
20203TIP3    H182100   1.086   4.547  14.479  0.6701  0.7576 -0.7269
20203TIP3    H282101   0.947   4.604  14.464  0.0408 -0.4004  0.5422
20204TIP3   OH282102   1.926   2.057  13.713 -0.1194  0.1323  0.8308
20204TIP3    H182103   2.018   2.080  13.699  0.0217 -0.7782  0.1974
20204TIP3    H282104   1.908   2.086  13.802  0.8392  0.1497  1.0314
20205TIP3   OH282105   0.228   2.900   3.175  0.2743  0.1492 -0.2845
20205TIP3    H182106   0.277   2.968   3.129 -0.4298  0.2624 -0.8875
20205TIP3    H282107   0.239   2.921   3.268 -1.6613  2.3735 -0.4723
20206TIP3   OH282108   2.348   5.608   0.648 -0.1023 -0.2320 -0.2032
20206TIP3    H182109   2.296   5.640   0.574 -0.8661  1.2645  0.9247
20206TIP3    H282110   2.398   5.684   0.677  0.2360 -0.8116  0.7631
20207TIP3   OH282111   2.882   2.696  10.722  0.2994  0.0584 -0.0082
20207TIP3    H182112   2.871   2.725  10.631  0.9670  0.4630  0.0358
20207TIP3    H282113   2.794   2.667  10.748  0.3406 -1.2307 -1.1753
20208TIP3   OH282114   4.488   4.246   0.704  0.2922 -0.4098 -0.1825
20208TIP3    H182115   4.490   4.209   0.615  0.7769 -0.6073 -0.0914
20208TIP3    H282116   4.513   4.174   0.761  0.7947 -0.0697  0.0388
20209TIP3   OH282117   1.798   1.451   4.991 -0.2030 -0.3783  0.1047
20209TIP3    H182118   1.748   1.397   5.053  0.3685 -0.7448  0.2591
20209TIP3    H282119   1.731   1.495   4.939 -0.6907 -0.5987  0.5268
20210TIP3   OH282120   1.984   0.123  16.127 -0.0186  0.8592  0.4439
20210TIP3    H182121   2.068   0.079  16.139  0.7976  2.0273 -0.7255
20210TIP3    H282122   1.989   0.164  16.041 -1.6401  1.2947  0.5093
20211TIP3   OH282123   4.921   1.195   1.553 -0.5264  0.4354 -0.0178
20211TIP3    H182124   4.857   1.151   1.497 -1.2079  1.7389 -0.2896
20211TIP3    H282125   5.004   1.186   1.506 -0.6656 -0.4509 -0.1163
20212TIP3   OH282126   6.264   2.272   1.586 -1.0767 -0.1641  0.7868
20212TIP3    H182127   6.223   2.287   1.500 -1.4324  1.2230  1.1656
20212TIP3    H282128   6.321   2.348   1.598 -1.4011 -0.0999  1.9868
20213TIP3   OH282129   2.795   2.267  15.354  0.2486  0.0776  0.3539
20213TIP3    H182130   2.739   2.311  15.290  1.2396  2.2007  0.8704
20213TIP3    H282131   2.883   2.272  15.317  0.6638  0.3302  1.3283
20214TIP3   OH282132   6.782   1.227   5.980 -0.0674 -0.0428 -0.2702
20214TIP3    H182133   6.788   1.156   6.044 -0.5073 -0.3726 -0.5835
20214TIP3    H282134   6.830   1.194   5.903  0.5085  0.3740 -0.0927
20215TIP3   OH282135   4.724   1.842  11.341 -0.6438 -0.0610  0.0410
20215TIP3    H182136   4.747   1.883  11.258  0.6508  0.9403  0.8532
20215TIP3    H282137   4.781   1.765  11.346 -3.5934 -2.5779 -1.8310
20216TIP3   OH282138   1.804   5.638  16.637  0.3127  0.4419  0.2944
20216TIP3    H182139   1.878   5.578  16.637  0.5604  0.7461  0.6140
20216TIP3    H282140   1.814   5.689  16.717 -1.1703 -0.6535  1.2267
20217TIP3   OH282141   0.685   5.046  15.113 -0.2917 -0.4075 -0.5505
20217TIP3    H182142   0.614   5.109  15.127  0.0415 -0.1708  0.1121
20217TIP3    H282143   0.656   4.968  15.161 -1.5927 -1.4777 -2.8956
20218TIP3   OH282144   5.260   1.049   3.044  0.3761  0.1945 -0.0346
20218TIP3    H182145   5.279   1.010   2.959 -0.0195  1.5430 -0.7721
20218TIP3    H282146   5.255   0.975   3.104  2.5825 -0.6626 -0.7864
20219TIP3   OH282147   6.062   0.137  15.909 -0.0597 -0.0883  0.3307
20219TIP3    H182148   6.154   0.155  15.932  0.2929 -2.6156  1.1333
20219TIP3    H282149   6.034   0.069  15.970 -1.6708 -1.1996 -1.5144
20220TIP3   OH282150   6.118   0.417  12.491 -0.7731 -0.6359 -0.0889
20220TIP3    H182151   6.194   0.417  12.433  0.4112  0.3730  1.3941
20220TIP3    H282152   6.150   0.379  12.573 -1.4511  1.1293  1.0408
20221TIP3   OH282153   4.124   0.815  12.725  0.1002  0.3156  0.3890
20221TIP3    H182154   4.118   0.837  12.818  1.8926  0.4715  0.4886
20221TIP3    H282155   4.217   0.820  12.705 -0.1492 -0.7706 -1.1698
20222TIP3   OH282156   2.818   0.388  11.951  0.9955  0.2516  0.1504
20222TIP3    H182157   2.723   0.397  11.957  0.7324 -2.3119  0.9874
20222TIP3    H282158   2.834   0.357  11.862  0.6751 -2.1244  0.8425
20223TIP3   OH282159   1.757   2.281  16.741 -0.4203  0.4598  0.1536
20223TIP3    H182160   1.711   2.328  16.811 -0.2991  0.7237  0.0537
20223TIP3    H282161   1.687   2.251  16.683 -0.6554 -0.9220  1.0789
20224TIP3   OH282162   0.075   2.823   2.090 -0.3442  0.2214 -0.7132
20224TIP3    H182163   0.148   2.853   2.144 -1.1275 -0.6196  0.9063
20224TIP3    H282164   0.115   2.780   2.015  0.8327 -0.3501  0.2199
20225TIP3   OH282165   0.774   6.349   4.398  0.5610  0.4099  0.0407
20225TIP3    H182166   0.852   6.401   4.381 -0.1169  1.6252  0.4977
20225TIP3    H282167   0.769   6.343   4.493  1.1293 -1.3197 -0.0121
20226TIP3   OH282168   4.557   6.111   2.840 -0.0498 -0.4336  0.0483
20226TIP3    H182169   4.566   6.203   2.815  0.3308 -0.2844  0.7017
20226TIP3    H282170   4.485   6.111   2.904  0.6433 -0.4258  0.8376
20227TIP3   OH282171   4.553   6.863   0.382 -0.5392  0.5524  0.4927
20227TIP3    H182172   4.498   6.802   0.432 -1.2634  0.2564 -0.6424
20227TIP3    H282173   4.494   6.900   0.316  0.8384 -0.5197 -1.4054
20228TIP3   OH282174   5.033   1.990   0.764 -1.0452 -0.3709  0.5515
20228TIP3    H182175   5.016   2.072   0.809 -1.8553 -0.0370 -0.3350
20228TIP3    H282176   5.060   2.015   0.676  1.4368 -0.9885  1.0576
20229TIP3   OH282177   4.139   6.046   0.222 -0.2665 -0.3365  0.1402
20229TIP3    H182178   4.047   6.030   0.245 -0.6139 -0.7081 -1.4093
20229TIP3    H282179   4.139   6.134   0.183  0.1538 -0.1020  0.6427
20230TIP3   OH282180   0.833   4.558  14.332 -0.2433  0.1010  0.0254
20230TIP3    H182181   0.886   4.488  14.293 -1.6028 -1.2527  0.5433
20230TIP3    H282182   0.743   4.534  14.312 -0.8562  0.5334  2.1219
20231TIP3   OH282183   3.055   2.921   3.032 -0.5633 -0.0613 -0.0247
20231TIP3    H182184   3.117   2.860   2.993 -0.7758 -1.2656  1.3995
20231TIP3    H282185   2.989   2.935   2.965 -0.3953 -1.2656 -0.4701
20232TIP3   OH282186   3.855   1.423   4.072 -0.3602 -0.4411 -0.2531
20232TIP3    H182187   3.824   1.514   4.069  1.3124  0.2044  0.7995
20232TIP3    H282188   3.851   1.395   3.980 -0.6610  0.7765 -0.6455
20233TIP3   OH282189   3.423   0.868  11.850 -0.3519 -0.1933 -0.4448
20233TIP3    H182190   3.379   0.797  11.803 -1.8481 -0.0135  0.5975
20233TIP3    H282191   3.463   0.921  11.781  0.5739 -1.8723 -1.2631
20234TIP3   OH282192   3.337   2.573  13.194  0.6395  0.1211  0.0130
20234TIP3    H182193   3.302   2.648  13.243 -2.2676 -1.0734 -0.0094
20234TIP3    H282194   3.329   2.600  13.102 -1.8637 -0.6469 -0.0794
20235TIP3   OH282195   4.075   2.951   1.397 -0.3327 -0.3707 -0.3236
20235TIP3    H182196   4.060   3.046   1.396 -1.1721 -0.4573  0.8545
20235TIP3    H282197   3.999   2.916   1.444  0.9863 -1.4092  1.1540
20236TIP3   OH282198   6.820   1.984  14.247  0.3125  0.5337 -0.5222
20236TIP3    H182199   6.750   1.920  14.235 -0.3235  1.1507 -0.1857
20236TIP3    H282200   6.891   1.952  14.191  0.6376 -1.3336  0.8718
20237TIP3   OH282201   6.710   5.077   5.404 -1.1153 -0.3774  0.0221
20237TIP3    H182202   6.735   4.989   5.433 -4.4165 -0.9758  1.4759
20237TIP3    H282203   6.720   5.132   5.483 -0.7688  0.1830 -0.4054
20238TIP3   OH282204   1.471   5.691   3.413  0.1195 -0.2824 -0.1881
20238TIP3    H182205   1.388   5.647   3.394 -0.0687 -0.4279  0.9311
20238TIP3    H282206   1.497   5.658   3.499  1.9698 -1.1759 -1.0352
20239LIG      S82207   3.456   3.459  15.440  0.0740  0.0836  0.0919
20239LIG     F182208   3.750   3.060  15.032 -0.4886 -0.5076 -0.5341
20239LIG     F282209   3.540   3.039  15.067 -0.3782 -0.4242 -0.0829
20239LIG     F382210   3.605   3.218  14.973 -0.2441  0.0880 -0.3128
20239LIG     N182211   3.843   3.822  15.552 -0.3264 -0.4128 -0.4909
20239LIG     N282212   3.639   4.015  15.478 -0.4061  0.2925  0.6233
20239LIG     N382213   3.715   3.397  15.578  0.0789 -0.8240  0.7535
20239LIG     N482214   3.895   3.160  15.493 -0.2582 -0.1624  0.2508
20239LIG     C182215   3.748   3.881  15.653  0.2949 -0.4771  0.3615
20239LIG     C282216   3.866   3.913  15.439  0.1938  0.4314 -1.0465
20239LIG     C382217   3.815   3.688  15.510  0.2922  0.1176  0.2104
20239LIG     C482218   3.613   3.915  15.587  1.3250 -0.3454  0.2961
20239LIG     C582219   3.733   3.959  15.372  0.0774 -0.6073 -0.7842
20239LIG     C682220   3.860   3.601  15.627  0.1306  0.3483 -0.4052
20239LIG     C782221   3.857   3.445  15.603  0.4079 -0.1815  0.1225
20239LIG     C882222   3.671   4.150  15.521 -0.6121 -0.0434 -0.1328
20239LIG     C982223   3.682   3.307  15.470 -0.6045  0.6126  0.3228
20239LIG    C1082224   3.601   3.425  15.672 -0.7962 -0.1241 -0.0830
20239LIG    C1182225   3.575   3.343  15.380  0.1769 -0.3772 -1.1370
20239LIG    C1282226   3.472   3.447  15.618  0.0913  0.4527  0.5070
20239LIG    C1382227   3.779   3.211  15.425  0.0787  0.3174 -0.2153
20239LIG    C1482228   3.617   3.402  15.811  0.4494 -0.1561 -0.4959
20239LIG    C1582229   3.560   3.280  15.261  0.2106  0.2732 -0.1709
20239LIG    C1682230   3.759   3.147  15.302  0.1059 -0.8733  1.0344
20239LIG    C1782231   3.651   3.186  15.214 -0.1548 -0.4343  0.0839
20239LIG    C1882232   3.359   3.449  15.704  0.2585  0.3241 -0.1335
20239LIG    C1982233   3.506   3.417  15.897  0.2022  0.0406  0.0139
20239LIG    C2082234   3.379   3.435  15.840  0.3701  0.0404  0.3434
20239LIG    C2182235   3.637   3.128  15.072 -0.2882  0.0887 -0.1726
20239LIG     H182236   3.786   3.975  15.696  1.5796 -0.6495 -0.3548
20239LIG     H282237   3.725   3.810  15.736 -1.3942 -0.1663  0.2003
20239LIG     H382238   3.922   3.873  15.352 -1.2147 -0.7105 -1.4517
20239LIG     H482239   3.916   4.004  15.479 -0.4636  1.2142 -1.9530
20239LIG     H582240   3.877   3.662  15.421  0.7567 -2.8724  1.2957
20239LIG     H682241   3.707   3.690  15.485  0.4204  2.1151 -0.3560
20239LIG     H782242   3.572   3.816  15.558  0.2339 -0.6271  2.6610
20239LIG     H882243   3.547   3.958  15.665  1.7960 -0.4255  0.7403
20239LIG     H982244   3.749   4.018  15.280 -2.9025 -3.2669 -3.2466
20239LIG    H1082245   3.679   3.867  15.340  0.5618 -1.0625 -0.3227
20239LIG    H1182246   3.790   3.617  15.712  1.9412 -2.7093  1.8935
20239LIG    H1282247   3.963   3.628  15.658  0.4262 -0.5123 -0.6049
20239LIG    H1382248   3.935   3.426  15.526 -0.1233  2.1089 -1.0552
20239LIG    H1482249   3.889   3.393  15.696  0.6110 -2.5963 -1.2024
20239LIG    H1582250   3.774   4.154  15.562 -0.8137  0.7041  0.3080
20239LIG    H1682251   3.612   4.176  15.611 -1.3163 -0.8050 -0.3653
20239LIG    H1782252   3.654   4.232  15.448 -0.5675 -1.7687 -2.1945
20239LIG    H1882253   3.715   3.368  15.840  0.0375 -1.2348 -0.3329
20239LIG    H1982254   3.481   3.310  15.194  0.6704  1.3621 -0.2497
20239LIG    H2082255   3.825   3.072  15.261 -0.8430 -0.4134 -1.5322
20239LIG    H2182256   3.257   3.457  15.667  0.0734  0.3385  0.3763
20239LIG    H2282257   3.503   3.402  16.004 -1.2520  0.8811  0.1151
20239LIG    H2382258   3.296   3.420  15.908  0.0777  1.5335  0.3532
20239LIG    H2482259   3.931   3.073  15.458  0.7301  0.4504 -0.3137
20239LIG    H2582260   3.879   3.161  15.591 -0.2658 -3.2238  0.3938
   6.86334   6.86334  17.11947
