;;
;; Generated by CHARMM-GUI (http://www.charmm-gui.org) v1.7
;;
;; psf2itp_mol.py
;;
;; Correspondance:
;; jul316@lehigh.edu or wonpil@lehigh.edu
;;
;; GROMACS topology file for LIG
;;


[ moleculetype ]
; name	nrexcl
LIG	     3

[ atoms ]
; nr	type	resnr	residu	atom	cgnr	charge	mass
     1      SG311      1      LIG     S1      1     -0.184    32.0600   ; qtot -0.184
     2      SG311      1      LIG     S2      2     -0.165    32.0600   ; qtot -0.349
     3      SG311      1      LIG     S3      3     -0.161    32.0600   ; qtot -0.510
     4      SG311      1      LIG     S4      4     -0.167    32.0600   ; qtot -0.677
     5      OG2D1      1      LIG     O1      5     -0.469    15.9994   ; qtot -1.146
     6      OG311      1      LIG     O2      6     -0.671    15.9994   ; qtot -1.817
     7      OG2D1      1      LIG     O3      7     -0.532    15.9994   ; qtot -2.349
     8      OG2D1      1      LIG    OXT      8     -0.461    15.9994   ; qtot -2.810
     9     NG2R43      1      LIG     N1      9     -0.125    14.0070   ; qtot -2.935
    10      NG2S1      1      LIG     N2     10     -0.547    14.0070   ; qtot -3.482
    11     NG2R51      1      LIG     N3     11      0.247    14.0070   ; qtot -3.235
    12     NG2R50      1      LIG     N4     12     -0.583    14.0070   ; qtot -3.818
    13     NG2R50      1      LIG     N5     13     -0.321    14.0070   ; qtot -4.139
    14     NG2R50      1      LIG     N6     14     -0.093    14.0070   ; qtot -4.232
    15     CG3RC1      1      LIG     C1     15     -0.015    12.0110   ; qtot -4.247
    16     CG3C41      1      LIG    CA1     16      0.313    12.0110   ; qtot -3.934
    17     CG2R53      1      LIG     C2     17      0.254    12.0110   ; qtot -3.680
    18     CG2D1O      1      LIG    CA2     18      0.381    12.0110   ; qtot -3.299
    19     CG2DC1      1      LIG     C3     19      0.107    12.0110   ; qtot -3.192
    20      CG321      1      LIG     C4     20     -0.079    12.0110   ; qtot -3.271
    21      CG321      1      LIG     C5     21     -0.080    12.0110   ; qtot -3.351
    22      CG2O1      1      LIG     C6     22      0.539    12.0110   ; qtot -2.812
    23      CG2O2      1      LIG     C7     23      0.393    12.0110   ; qtot -2.419
    24      CG321      1      LIG     C8     24     -0.088    12.0110   ; qtot -2.507
    25     CG2D1O      1      LIG     C9     25      0.008    12.0110   ; qtot -2.499
    26     CG2R53      1      LIG    C10     26      0.670    12.0110   ; qtot -1.829
    27     CG2D1O      1      LIG    C11     27     -0.135    12.0110   ; qtot -1.964
    28      CG321      1      LIG    C12     28     -0.079    12.0110   ; qtot -2.043
    29      CG321      1      LIG    C13     29     -0.079    12.0110   ; qtot -2.122
    30      CG331      1      LIG    C14     30     -0.180    12.0110   ; qtot -2.302
    31       HGA1      1      LIG     H1     31      0.090     1.0080   ; qtot -2.212
    32       HGA1      1      LIG     HA     32      0.090     1.0080   ; qtot -2.122
    33       HGA2      1      LIG     H2     33      0.090     1.0080   ; qtot -2.032
    34       HGA2      1      LIG     H3     34      0.090     1.0080   ; qtot -1.942
    35       HGP1      1      LIG     H4     35      0.316     1.0080   ; qtot -1.626
    36       HGA2      1      LIG     H5     36      0.090     1.0080   ; qtot -1.536
    37       HGA2      1      LIG     H6     37      0.090     1.0080   ; qtot -1.446
    38       HGA2      1      LIG     H7     38      0.090     1.0080   ; qtot -1.356
    39       HGA2      1      LIG     H8     39      0.090     1.0080   ; qtot -1.266
    40       HGP1      1      LIG     H9     40      0.439     1.0080   ; qtot -0.827
    41       HGA4      1      LIG    H10     41      0.197     1.0080   ; qtot -0.630
    42       HGA2      1      LIG    H11     42      0.090     1.0080   ; qtot -0.540
    43       HGA2      1      LIG    H12     43      0.090     1.0080   ; qtot -0.450
    44       HGA2      1      LIG    H13     44      0.090     1.0080   ; qtot -0.360
    45       HGA2      1      LIG    H14     45      0.090     1.0080   ; qtot -0.270
    46       HGA3      1      LIG    H15     46      0.090     1.0080   ; qtot -0.180
    47       HGA3      1      LIG    H16     47      0.090     1.0080   ; qtot -0.090
    48       HGA3      1      LIG    H17     48      0.090     1.0080   ; qtot -0.000

[ bonds ]
; ai	aj	funct	b0	Kb
    1    15     1
    1    20     1
    2    21     1
    2    26     1
    3    25     1
    3    28     1
    4    27     1
    4    29     1
    5    17     1
    6    23     1
    6    40     1
    7    22     1
    8    23     1
    9    15     1
    9    17     1
    9    18     1
   10    16     1
   10    22     1
   10    35     1
   11    13     1
   11    26     1
   11    30     1
   12    14     1
   12    26     1
   13    14     1
   15    16     1
   15    31     1
   16    17     1
   16    32     1
   18    19     1
   18    23     1
   19    20     1
   19    21     1
   20    33     1
   20    34     1
   21    36     1
   21    37     1
   22    24     1
   24    25     1
   24    38     1
   24    39     1
   25    27     1
   27    41     1
   28    29     1
   28    42     1
   28    43     1
   29    44     1
   29    45     1
   30    46     1
   30    47     1
   30    48     1

[ pairs ]
; ai	aj	funct	c6	c12
    1    10     1 
    1    17     1 
    1    18     1 
    1    21     1 
    1    32     1 
    2    13     1 
    2    14     1 
    2    18     1 
    2    20     1 
    2    30     1 
    3     4     1 
    3    22     1 
    3    38     1 
    3    39     1 
    3    41     1 
    3    44     1 
    3    45     1 
    4    24     1 
    4    42     1 
    4    43     1 
    5    10     1 
    5    15     1 
    5    18     1 
    5    32     1 
    6     9     1 
    6    19     1 
    7    16     1 
    7    25     1 
    7    35     1 
    7    38     1 
    7    39     1 
    8     9     1 
    8    19     1 
    8    40     1 
    9    10     1 
    9    15     1 
    9    17     1 
    9    20     1 
    9    21     1 
    9    32     1 
   10    25     1 
   10    31     1 
   10    38     1 
   10    39     1 
   11    21     1 
   12    21     1 
   12    30     1 
   13    46     1 
   13    47     1 
   13    48     1 
   14    30     1 
   15    16     1 
   15    19     1 
   15    22     1 
   15    23     1 
   15    33     1 
   15    34     1 
   15    35     1 
   16    17     1 
   16    18     1 
   16    20     1 
   16    24     1 
   17    19     1 
   17    22     1 
   17    23     1 
   17    31     1 
   17    35     1 
   18    31     1 
   18    33     1 
   18    34     1 
   18    36     1 
   18    37     1 
   18    40     1 
   19    26     1 
   20    23     1 
   20    31     1 
   20    36     1 
   20    37     1 
   21    23     1 
   21    33     1 
   21    34     1 
   22    27     1 
   22    32     1 
   24    28     1 
   24    35     1 
   24    41     1 
   25    29     1 
   25    42     1 
   25    43     1 
   26    36     1 
   26    37     1 
   26    46     1 
   26    47     1 
   26    48     1 
   27    28     1 
   27    38     1 
   27    39     1 
   27    44     1 
   27    45     1 
   29    41     1 
   31    32     1 
   32    35     1 
   42    44     1 
   42    45     1 
   43    44     1 
   43    45     1 

[ angles ] 
; ai	aj	ak	funct	th0	cth	S0	Kub
   15     1    20     5
   21     2    26     5
   25     3    28     5
   27     4    29     5
   23     6    40     5
   15     9    17     5
   15     9    18     5
   17     9    18     5
   16    10    22     5
   16    10    35     5
   22    10    35     5
   13    11    26     5
   13    11    30     5
   26    11    30     5
   14    12    26     5
   11    13    14     5
   12    14    13     5
    1    15     9     5
    1    15    16     5
    1    15    31     5
    9    15    16     5
    9    15    31     5
   16    15    31     5
   10    16    15     5
   10    16    17     5
   10    16    32     5
   15    16    17     5
   15    16    32     5
   17    16    32     5
    5    17     9     5
    5    17    16     5
    9    17    16     5
    9    18    19     5
    9    18    23     5
   19    18    23     5
   18    19    20     5
   18    19    21     5
   20    19    21     5
    1    20    19     5
    1    20    33     5
    1    20    34     5
   19    20    33     5
   19    20    34     5
   33    20    34     5
    2    21    19     5
    2    21    36     5
    2    21    37     5
   19    21    36     5
   19    21    37     5
   36    21    37     5
    7    22    10     5
    7    22    24     5
   10    22    24     5
    6    23     8     5
    6    23    18     5
    8    23    18     5
   22    24    25     5
   22    24    38     5
   22    24    39     5
   25    24    38     5
   25    24    39     5
   38    24    39     5
    3    25    24     5
    3    25    27     5
   24    25    27     5
    2    26    11     5
    2    26    12     5
   11    26    12     5
    4    27    25     5
    4    27    41     5
   25    27    41     5
    3    28    29     5
    3    28    42     5
    3    28    43     5
   29    28    42     5
   29    28    43     5
   42    28    43     5
    4    29    28     5
    4    29    44     5
    4    29    45     5
   28    29    44     5
   28    29    45     5
   44    29    45     5
   11    30    46     5
   11    30    47     5
   11    30    48     5
   46    30    47     5
   46    30    48     5
   47    30    48     5

[ dihedrals ]
; ai	aj	ak	al	funct	phi0	cp	mult
   20     1    15    31     9
   15     1    20    19     9
   15     1    20    33     9
   15     1    20    34     9
   26     2    21    36     9
   26     2    21    37     9
   25     3    28    29     9
   25     3    28    42     9
   25     3    28    43     9
   29     4    27    41     9
   27     4    29    28     9
   27     4    29    44     9
   27     4    29    45     9
   17     9    15    31     9
   18     9    15    31     9
   15     9    17    16     9
   15     9    18    19     9
   15     9    18    23     9
   17     9    18    19     9
   17     9    18    23     9
   22    10    16    32     9
   16    10    22    24     9
   13    11    30    46     9
   13    11    30    47     9
   13    11    30    48     9
   26    11    30    46     9
   26    11    30    47     9
   26    11    30    48     9
   14    13    11    26     9
   14    13    11    30     9
   11    13    14    12     9
   13    14    12    26     9
    9    15     1    20     9
   16    15     1    20     9
    1    15     9    17     9
    1    15     9    18     9
   16    15     9    17     9
   16    15     9    18     9
    1    15    16    10     9
    1    15    16    17     9
    1    15    16    32     9
    9    15    16    10     9
    9    15    16    17     9
    9    15    16    32     9
   31    15    16    32     9
   15    16    10    22     9
   15    16    10    35     9
   17    16    10    22     9
   17    16    10    35     9
   32    16    10    35     9
   10    16    15    31     9
   17    16    15    31     9
    5    17     9    15     9
    5    17     9    18     9
   16    17     9    18     9
    5    17    16    10     9
    5    17    16    15     9
    5    17    16    32     9
    9    17    16    10     9
    9    17    16    15     9
    9    17    16    32     9
    9    18    19    20     9
    9    18    19    21     9
   20    19    18    23     9
   21    19    18    23     9
   18    19    20    33     9
   18    19    20    34     9
   21    19    20    33     9
   21    19    20    34     9
   18    19    21    36     9
   18    19    21    37     9
   20    19    21    36     9
   20    19    21    37     9
    1    20    19    18     9
    1    20    19    21     9
   19    21     2    26     9
    2    21    19    18     9
    2    21    19    20     9
    7    22    10    16     9
    7    22    10    35     9
   24    22    10    35     9
    7    22    24    25     9
    7    22    24    38     9
    7    22    24    39     9
   10    22    24    25     9
   10    22    24    38     9
   10    22    24    39     9
    8    23     6    40     9
   18    23     6    40     9
    6    23    18     9     9
    6    23    18    19     9
    8    23    18     9     9
    8    23    18    19     9
   22    24    25    27     9
   24    25     3    28     9
   27    25     3    28     9
    3    25    24    22     9
    3    25    24    38     9
    3    25    24    39     9
   27    25    24    38     9
   27    25    24    39     9
    3    25    27     4     9
    3    25    27    41     9
   24    25    27    41     9
   11    26     2    21     9
   12    26     2    21     9
    2    26    11    13     9
    2    26    11    30     9
   12    26    11    13     9
   12    26    11    30     9
    2    26    12    14     9
   11    26    12    14     9
   25    27     4    29     9
    4    27    25    24     9
    3    28    29     4     9
    3    28    29    44     9
    3    28    29    45     9
   42    28    29    44     9
   42    28    29    45     9
   43    28    29    44     9
   43    28    29    45     9
    4    29    28    42     9
    4    29    28    43     9

[ dihedrals ]
; ai	aj	ak	al	funct	q0	cq
   17    16     9     5     2
   18    19    23     9     2
   22    24    10     7     2
   23    18     8     6     2
