PSF EXT CMAP XPLOR

         2 !NTITLE
* GENERATE LIGAND                                                               
*  DATE:     4/15/25     17:45:43      CREATED BY USER: charmm-gui              

        54 !NATOM
         1 LIG      1        LIG      S        SG311   -0.294000       32.0600           0
         2 LIG      1        LIG      O        OG2R50  -0.810000E-01   15.9994           0
         3 LIG      1        LIG      N1       NG301   -0.739000       14.0070           0
         4 LIG      1        LIG      N2       NG311   -0.494000       14.0070           0
         5 LIG      1        LIG      N3       NG2R50  -0.389000       14.0070           0
         6 LIG      1        LIG      N4       NG2R50  -0.329000       14.0070           0
         7 LIG      1        LIG      C1       CG321    0.700000E-01   12.0110           0
         8 LIG      1        LIG      C2       CG321    0.630000E-01   12.0110           0
         9 LIG      1        LIG      C3       CG321    0.630000E-01   12.0110           0
        10 LIG      1        LIG      C4       CG321   -0.211000       12.0110           0
        11 LIG      1        LIG      C5       CG321   -0.270000E-01   12.0110           0
        12 LIG      1        LIG      C6       CG321   -0.270000E-01   12.0110           0
        13 LIG      1        LIG      C7       CG2R61   0.120000E-01   12.0110           0
        14 LIG      1        LIG      C8       CG2R61  -0.111000       12.0110           0
        15 LIG      1        LIG      C9       CG2R61  -0.111000       12.0110           0
        16 LIG      1        LIG      C10      CG2R61   0.700000E-02   12.0110           0
        17 LIG      1        LIG      C11      CG311    0.760000E-01   12.0110           0
        18 LIG      1        LIG      C12      CG2R61  -0.110000       12.0110           0
        19 LIG      1        LIG      C13      CG2R61  -0.110000       12.0110           0
        20 LIG      1        LIG      C14      CG2R53   0.371000       12.0110           0
        21 LIG      1        LIG      C15      CG331   -0.284000       12.0110           0
        22 LIG      1        LIG      C16      CG2R53   0.335000       12.0110           0
        23 LIG      1        LIG      C17      CG2R61   0.660000E-01   12.0110           0
        24 LIG      1        LIG      C18      CG2R61  -0.119000       12.0110           0
        25 LIG      1        LIG      C19      CG2R61  -0.119000       12.0110           0
        26 LIG      1        LIG      C20      CG2R61  -0.117000       12.0110           0
        27 LIG      1        LIG      C21      CG2R61  -0.117000       12.0110           0
        28 LIG      1        LIG      C22      CG2R61  -0.115000       12.0110           0
        29 LIG      1        LIG      H1       HGA2     0.900000E-01   1.00800           0
        30 LIG      1        LIG      H2       HGA2     0.900000E-01   1.00800           0
        31 LIG      1        LIG      H3       HGA2     0.900000E-01   1.00800           0
        32 LIG      1        LIG      H4       HGA2     0.900000E-01   1.00800           0
        33 LIG      1        LIG      H5       HGA2     0.900000E-01   1.00800           0
        34 LIG      1        LIG      H6       HGA2     0.900000E-01   1.00800           0
        35 LIG      1        LIG      H7       HGA2     0.900000E-01   1.00800           0
        36 LIG      1        LIG      H8       HGA2     0.900000E-01   1.00800           0
        37 LIG      1        LIG      H9       HGA2     0.900000E-01   1.00800           0
        38 LIG      1        LIG      H10      HGA2     0.900000E-01   1.00800           0
        39 LIG      1        LIG      H11      HGA2     0.900000E-01   1.00800           0
        40 LIG      1        LIG      H12      HGA2     0.900000E-01   1.00800           0
        41 LIG      1        LIG      H13      HGR61    0.115000       1.00800           0
        42 LIG      1        LIG      H14      HGR61    0.115000       1.00800           0
        43 LIG      1        LIG      H15      HGA1     0.900000E-01   1.00800           0
        44 LIG      1        LIG      H16      HGR61    0.115000       1.00800           0
        45 LIG      1        LIG      H17      HGR61    0.115000       1.00800           0
        46 LIG      1        LIG      H18      HGPAM1   0.366000       1.00800           0
        47 LIG      1        LIG      H19      HGA3     0.900000E-01   1.00800           0
        48 LIG      1        LIG      H20      HGA3     0.900000E-01   1.00800           0
        49 LIG      1        LIG      H21      HGA3     0.900000E-01   1.00800           0
        50 LIG      1        LIG      H22      HGR61    0.115000       1.00800           0
        51 LIG      1        LIG      H23      HGR61    0.115000       1.00800           0
        52 LIG      1        LIG      H24      HGR61    0.115000       1.00800           0
        53 LIG      1        LIG      H25      HGR61    0.115000       1.00800           0
        54 LIG      1        LIG      H26      HGR61    0.115000       1.00800           0

        57 !NBOND: bonds
         1        11         1        12         2        20         2        22
         3         7         3         8         3         9         4        16
         4        17         4        46         5         6         5        20
         6        22         7        10         7        29         7        30
         8        11         8        31         8        32         9        12
         9        33         9        34        10        13        10        35
        10        36        11        37        11        38        12        39
        12        40        13        14        13        15        14        18
        14        41        15        19        15        42        16        18
        16        19        17        20        17        21        17        43
        18        44        19        45        21        47        21        48
        21        49        22        23        23        24        23        25
        24        26        24        50        25        27        25        51
        26        28        26        52        27        28        27        53
        28        54

       100 !NTHETA: angles
        11         1        12        20         2        22         7         3         8
         7         3         9         8         3         9        16         4        17
        16         4        46        17         4        46         6         5        20
         5         6        22         3         7        10         3         7        29
         3         7        30        10         7        29        10         7        30
        29         7        30         3         8        11         3         8        31
         3         8        32        11         8        31        11         8        32
        31         8        32         3         9        12         3         9        33
         3         9        34        12         9        33        12         9        34
        33         9        34         7        10        13         7        10        35
         7        10        36        13        10        35        13        10        36
        35        10        36         1        11         8         1        11        37
         1        11        38         8        11        37         8        11        38
        37        11        38         1        12         9         1        12        39
         1        12        40         9        12        39         9        12        40
        39        12        40        10        13        14        10        13        15
        14        13        15        13        14        18        13        14        41
        18        14        41        13        15        19        13        15        42
        19        15        42         4        16        18         4        16        19
        18        16        19         4        17        20         4        17        21
         4        17        43        20        17        21        20        17        43
        21        17        43        14        18        16        14        18        44
        16        18        44        15        19        16        15        19        45
        16        19        45         2        20         5         2        20        17
         5        20        17        17        21        47        17        21        48
        17        21        49        47        21        48        47        21        49
        48        21        49         2        22         6         2        22        23
         6        22        23        22        23        24        22        23        25
        24        23        25        23        24        26        23        24        50
        26        24        50        23        25        27        23        25        51
        27        25        51        24        26        28        24        26        52
        28        26        52        25        27        28        25        27        53
        28        27        53        26        28        27        26        28        54
        27        28        54

       143 !NPHI: dihedrals
         1        11         8         3         1        11         8        31
         1        11         8        32         1        12         9         3
         1        12         9        33         1        12         9        34
         2        20         5         6         2        20        17         4
         2        20        17        21         2        20        17        43
         2        22         6         5         2        22        23        24
         2        22        23        25         3         7        10        13
         3         7        10        35         3         7        10        36
         3         8        11        37         3         8        11        38
         3         9        12        39         3         9        12        40
         4        16        18        14         4        16        18        44
         4        16        19        15         4        16        19        45
         4        17        20         5         4        17        21        47
         4        17        21        48         4        17        21        49
         5         6        22        23         5        20         2        22
         5        20        17        21         5        20        17        43
         6         5        20        17         6        22         2        20
         6        22        23        24         6        22        23        25
         7         3         8        11         7         3         8        31
         7         3         8        32         7         3         9        12
         7         3         9        33         7         3         9        34
         7        10        13        14         7        10        13        15
         8         3         7        10         8         3         7        29
         8         3         7        30         8         3         9        12
         8         3         9        33         8         3         9        34
         8        11         1        12         9         3         7        10
         9         3         7        29         9         3         7        30
         9         3         8        11         9         3         8        31
         9         3         8        32         9        12         1        11
        10        13        14        18        10        13        14        41
        10        13        15        19        10        13        15        42
        11         1        12        39        11         1        12        40
        12         1        11        37        12         1        11        38
        13        10         7        29        13        10         7        30
        13        14        18        16        13        14        18        44
        13        15        19        16        13        15        19        45
        14        13        10        35        14        13        10        36
        14        13        15        19        14        13        15        42
        14        18        16        19        15        13        10        35
        15        13        10        36        15        13        14        18
        15        13        14        41        15        19        16        18
        16         4        17        20        16         4        17        21
        16         4        17        43        16        18        14        41
        16        19        15        42        17         4        16        18
        17         4        16        19        17        20         2        22
        18        16         4        46        18        16        19        45
        19        16         4        46        19        16        18        44
        20         2        22        23        20         5         6        22
        20        17         4        46        20        17        21        47
        20        17        21        48        20        17        21        49
        21        17         4        46        22        23        24        26
        22        23        24        50        22        23        25        27
        22        23        25        51        23        24        26        28
        23        24        26        52        23        25        27        28
        23        25        27        53        24        23        25        27
        24        23        25        51        24        26        28        27
        24        26        28        54        25        23        24        26
        25        23        24        50        25        27        28        26
        25        27        28        54        26        28        27        53
        27        28        26        52        28        26        24        50
        28        27        25        51        29         7        10        35
        29         7        10        36        30         7        10        35
        30         7        10        36        31         8        11        37
        31         8        11        38        32         8        11        37
        32         8        11        38        33         9        12        39
        33         9        12        40        34         9        12        39
        34         9        12        40        41        14        18        44
        42        15        19        45        43        17         4        46
        43        17        21        47        43        17        21        48
        43        17        21        49        50        24        26        52
        51        25        27        53        52        26        28        54
        53        27        28        54

         0 !NIMPHI: impropers


         0 !NDON: donors


         0 !NACC: acceptors


         0 !NNB

         0         0         0         0         0         0         0         0
         0         0         0         0         0         0         0         0
         0         0         0         0         0         0         0         0
         0         0         0         0         0         0         0         0
         0         0         0         0         0         0         0         0
         0         0         0         0         0         0         0         0
         0         0         0         0         0         0

         1         0 !NGRP NST2
         0         1         0

         0         0 !NUMLP NUMLPH

         0 !NCRTERM: cross-terms

