* GENERATE LIGAND
*  DATE:     4/15/25     17:45:43      CREATED BY USER: charmm-gui
*
        54  EXT
         1         1  LIG       S               2.2330826863       -7.4915203001        0.5871705507  LIG       1               0.0000000000
         2         1  LIG       O               4.0358718023        3.1712057940       -1.1757864039  LIG       1               0.0000000000
         3         1  LIG       N1              2.1279710215       -4.5684182734       -0.4719668727  LIG       1               0.0000000000
         4         1  LIG       N2              3.3023930763        1.2521634076        0.1142748904  LIG       1               0.0000000000
         5         1  LIG       N3              6.1193114516        3.2930283538       -0.3939256261  LIG       1               0.0000000000
         6         1  LIG       N4              5.5091712684        4.2695774516        0.0920789358  LIG       1               0.0000000000
         7         1  LIG       C1              1.8773018775       -3.2429339964       -0.0781681635  LIG       1               0.0000000000
         8         1  LIG       C2              3.4949846641       -5.1232010394        0.0332992262  LIG       1               0.0000000000
         9         1  LIG       C3              0.8322974660       -4.9939457926       -0.0692737085  LIG       1               0.0000000000
        10         1  LIG       C4              3.2194776888       -2.8008046132        0.1937082892  LIG       1               0.0000000000
        11         1  LIG       C5              3.6451803206       -6.6160158208       -0.0676659890  LIG       1               0.0000000000
        12         1  LIG       C6              0.8362261376       -6.4854323816       -0.0063292762  LIG       1               0.0000000000
        13         1  LIG       C7              3.0110593454       -1.4756844801        0.7101309012  LIG       1               0.0000000000
        14         1  LIG       C8              4.2789239065       -1.1346874838        0.0102038980  LIG       1               0.0000000000
        15         1  LIG       C9              1.8476762539       -0.8827165498        0.5725499418  LIG       1               0.0000000000
        16         1  LIG       C10             2.9271716903        0.5116884687       -1.0468310391  LIG       1               0.0000000000
        17         1  LIG       C11             4.7231631049        1.7014309900        0.3508835129  LIG       1               0.0000000000
        18         1  LIG       C12             4.0225467357       -0.4437855431       -1.1621293931  LIG       1               0.0000000000
        19         1  LIG       C13             1.7250245976        0.0995928872       -0.5349347419  LIG       1               0.0000000000
        20         1  LIG       C14             5.2300028019        2.4830915358       -0.8660397131  LIG       1               0.0000000000
        21         1  LIG       C15             5.9462326314        0.7602177145        0.7211017755  LIG       1               0.0000000000
        22         1  LIG       C16             4.2223517996        4.1566978203       -0.2581711902  LIG       1               0.0000000000
        23         1  LIG       C17             2.9837754312        4.6677633269        0.2171986008  LIG       1               0.0000000000
        24         1  LIG       C18             1.6641198975        4.1579686465        0.1474834036  LIG       1               0.0000000000
        25         1  LIG       C19             3.2627333141        6.0177166523        0.3036886319  LIG       1               0.0000000000
        26         1  LIG       C20             0.6146692445        5.1275083008        0.0561800909  LIG       1               0.0000000000
        27         1  LIG       C21             2.2360715186        6.9122470861        0.0867283483  LIG       1               0.0000000000
        28         1  LIG       C22             0.9443862157        6.4317384056       -0.0084216679  LIG       1               0.0000000000
        29         1  LIG       H1              1.3952622507       -3.1465887566        0.9014015051  LIG       1               0.0000000000
        30         1  LIG       H2              1.3843914747       -2.7190630383       -0.9427526600  LIG       1               0.0000000000
        31         1  LIG       H3              3.8341266316       -4.9486963964        1.0843048244  LIG       1               0.0000000000
        32         1  LIG       H4              4.3442210074       -4.7589313800       -0.6178193696  LIG       1               0.0000000000
        33         1  LIG       H5              0.1780894151       -4.6060047519       -0.8914465169  LIG       1               0.0000000000
        34         1  LIG       H6              0.3044707342       -4.5948437441        0.8384156889  LIG       1               0.0000000000
        35         1  LIG       H7              3.6771042610       -2.9771887176       -0.8794947701  LIG       1               0.0000000000
        36         1  LIG       H8              3.6730348474       -3.1400087437        1.1290111661  LIG       1               0.0000000000
        37         1  LIG       H9              3.9260647680       -6.8349591054       -1.1140039547  LIG       1               0.0000000000
        38         1  LIG       H10             4.5104420877       -6.8207269680        0.6150908463  LIG       1               0.0000000000
        39         1  LIG       H11             0.0486396007       -6.6116905489        0.7674750076  LIG       1               0.0000000000
        40         1  LIG       H12             0.5413793833       -6.7341712711       -1.0445869047  LIG       1               0.0000000000
        41         1  LIG       H13             5.1227144780       -1.7546731438        0.1207077002  LIG       1               0.0000000000
        42         1  LIG       H14             0.8654769591       -1.2047576069        0.9514566908  LIG       1               0.0000000000
        43         1  LIG       H15             4.5719961345        2.2494082844        1.3310037129  LIG       1               0.0000000000
        44         1  LIG       H16             4.8260708483       -0.3505788588       -1.8197725126  LIG       1               0.0000000000
        45         1  LIG       H17             0.8389972891        0.6395562728       -0.5962400223  LIG       1               0.0000000000
        46         1  LIG       H18             2.5385286716        1.8732007162        0.4171888248  LIG       1               0.0000000000
        47         1  LIG       H19             6.2491781228        0.2445150345       -0.1845354875  LIG       1               0.0000000000
        48         1  LIG       H20             5.7353392730        0.0589317153        1.5347583264  LIG       1               0.0000000000
        49         1  LIG       H21             6.8585330870        1.3735594049        1.0240193152  LIG       1               0.0000000000
        50         1  LIG       H22             1.3815825343        3.1165576800        0.0838734356  LIG       1               0.0000000000
        51         1  LIG       H23             4.2675053300        6.4109559052        0.3588795517  LIG       1               0.0000000000
        52         1  LIG       H24            -0.4190928097        4.7588289541       -0.0358059095  LIG       1               0.0000000000
        53         1  LIG       H25             2.5806403933        7.9194521377       -0.0433711604  LIG       1               0.0000000000
        54         1  LIG       H26             0.1530202442        7.2228802250       -0.1483491615  LIG       1               0.0000000000
