* GENERATED BY CHARMM-GUI (HTTP://WWW.CHARMM-GUI.ORG)
*
        28  EXT
         1         1  LIG       S               2.4239000000       -5.3916000000        0.0000000000  LIG       1               0.0000000000
         2         1  LIG       O               3.1854000000        2.5184000000        0.0000000000  LIG       1               0.0000000000
         3         1  LIG       N1              2.4239000000       -3.7416000000        0.0000000000  LIG       1               0.0000000000
         4         1  LIG       N2              3.1384000000        0.7960000000        0.0000000000  LIG       1               0.0000000000
         5         1  LIG       N3              4.5203000000        2.5184000000        0.0000000000  LIG       1               0.0000000000
         6         1  LIG       N4              4.2654000000        3.3030000000        0.0000000000  LIG       1               0.0000000000
         7         1  LIG       C1              2.4239000000       -2.9166000000        0.0000000000  LIG       1               0.0000000000
         8         1  LIG       C2              3.1384000000       -4.1541000000        0.0000000000  LIG       1               0.0000000000
         9         1  LIG       C3              1.7094000000       -4.1541000000        0.0000000000  LIG       1               0.0000000000
        10         1  LIG       C4              3.1384000000       -2.5041000000        0.0000000000  LIG       1               0.0000000000
        11         1  LIG       C5              3.1384000000       -4.9791000000        0.0000000000  LIG       1               0.0000000000
        12         1  LIG       C6              1.7094000000       -4.9791000000        0.0000000000  LIG       1               0.0000000000
        13         1  LIG       C7              3.1384000000       -1.6790000000        0.0000000000  LIG       1               0.0000000000
        14         1  LIG       C8              3.8529000000       -1.2665000000        0.0000000000  LIG       1               0.0000000000
        15         1  LIG       C9              2.4239000000       -1.2665000000        0.0000000000  LIG       1               0.0000000000
        16         1  LIG       C10             3.1384000000       -0.0290000000        0.0000000000  LIG       1               0.0000000000
        17         1  LIG       C11             3.8529000000        1.2085000000        0.0000000000  LIG       1               0.0000000000
        18         1  LIG       C12             3.8529000000       -0.4415000000        0.0000000000  LIG       1               0.0000000000
        19         1  LIG       C13             2.4239000000       -0.4415000000        0.0000000000  LIG       1               0.0000000000
        20         1  LIG       C14             3.8529000000        2.0335000000        0.0000000000  LIG       1               0.0000000000
        21         1  LIG       C15             4.5673000000        0.7960000000        0.0000000000  LIG       1               0.0000000000
        22         1  LIG       C16             3.4403000000        3.3030000000        0.0000000000  LIG       1               0.0000000000
        23         1  LIG       C17             2.9554000000        3.9704000000        0.0000000000  LIG       1               0.0000000000
        24         1  LIG       C18             2.1349000000        3.8842000000        0.0000000000  LIG       1               0.0000000000
        25         1  LIG       C19             3.2909000000        4.7241000000        0.0000000000  LIG       1               0.0000000000
        26         1  LIG       C20             1.6500000000        4.5516000000        0.0000000000  LIG       1               0.0000000000
        27         1  LIG       C21             2.8061000000        5.3916000000        0.0000000000  LIG       1               0.0000000000
        28         1  LIG       C22             1.9855000000        5.3054000000        0.0000000000  LIG       1               0.0000000000
