* GENERATE LIGAND
*  DATE:     4/11/25      6:35:13      CREATED BY USER: charmm-gui
*
        54  EXT
         1         1  LIG       S              -3.3114440195        2.2785319486       -0.0156791469  LIG       1               0.0000000000
         2         1  LIG       F1             -4.5086073499       -3.9654848934        0.3891735451  LIG       1               0.0000000000
         3         1  LIG       F2             -5.3202942076       -2.5439288701        1.7651177461  LIG       1               0.0000000000
         4         1  LIG       F3             -5.9025889907       -2.4978652841       -0.3010453870  LIG       1               0.0000000000
         5         1  LIG       N1              3.8761864131       -0.8845697127       -0.3988635636  LIG       1               0.0000000000
         6         1  LIG       N2              6.5776493159       -1.3148642668        0.6132060305  LIG       1               0.0000000000
         7         1  LIG       N3             -0.5934325922        1.1253827972       -0.8359814186  LIG       1               0.0000000000
         8         1  LIG       N4             -0.3501679299       -1.9909774118       -1.1101928540  LIG       1               0.0000000000
         9         1  LIG       C1              4.8230262406       -1.8024182687       -1.0643854188  LIG       1               0.0000000000
        10         1  LIG       C2              4.6332560386        0.1879621760        0.2943064143  LIG       1               0.0000000000
        11         1  LIG       C3              2.9050189933       -0.3591914886       -1.3560487532  LIG       1               0.0000000000
        12         1  LIG       C4              5.8297149884       -2.3923877317       -0.0514202285  LIG       1               0.0000000000
        13         1  LIG       C5              5.6448959265       -0.4092583215        1.2992380177  LIG       1               0.0000000000
        14         1  LIG       C6              1.6967466958        0.1917468147       -0.5943651896  LIG       1               0.0000000000
        15         1  LIG       C7              0.6249022983        0.7293330421       -1.5766244284  LIG       1               0.0000000000
        16         1  LIG       C8              7.5888698366       -1.8357117541        1.5194623966  LIG       1               0.0000000000
        17         1  LIG       C9             -1.6175193982        0.1230195270       -0.4580261902  LIG       1               0.0000000000
        18         1  LIG       C10            -0.5869948353        2.4576550451       -0.2211014576  LIG       1               0.0000000000
        19         1  LIG       C11            -2.9070177259        0.5687242294       -0.0301942130  LIG       1               0.0000000000
        20         1  LIG       C12            -1.7844991702        3.1036806254        0.1850493397  LIG       1               0.0000000000
        21         1  LIG       C13            -1.4587102091       -1.3175744175       -0.5752985694  LIG       1               0.0000000000
        22         1  LIG       C14             0.6056297024        3.2196870552       -0.1400213501  LIG       1               0.0000000000
        23         1  LIG       C15            -3.9347670390       -0.3225838144        0.2990652948  LIG       1               0.0000000000
        24         1  LIG       C16            -2.4935507553       -2.1789778080       -0.2123037522  LIG       1               0.0000000000
        25         1  LIG       C17            -3.7416863189       -1.7145999534        0.2224955531  LIG       1               0.0000000000
        26         1  LIG       C18            -1.7741741385        4.4267601283        0.6564894109  LIG       1               0.0000000000
        27         1  LIG       C19             0.6176010680        4.5357234922        0.3255885194  LIG       1               0.0000000000
        28         1  LIG       C20            -0.5722005722        5.1400929371        0.7261254987  LIG       1               0.0000000000
        29         1  LIG       C21            -4.8497442534       -2.6684972959        0.5149541560  LIG       1               0.0000000000
        30         1  LIG       H1              5.3754521010       -1.2636776511       -1.8648751098  LIG       1               0.0000000000
        31         1  LIG       H2              4.2600126993       -2.6437742289       -1.5255763740  LIG       1               0.0000000000
        32         1  LIG       H3              3.9552409177        0.8548757019        0.8683967307  LIG       1               0.0000000000
        33         1  LIG       H4              5.1824839146        0.8028735019       -0.4520567478  LIG       1               0.0000000000
        34         1  LIG       H5              2.5708216193       -1.1664588871       -2.0457716368  LIG       1               0.0000000000
        35         1  LIG       H6              3.3692426065        0.4502456404       -1.9631296600  LIG       1               0.0000000000
        36         1  LIG       H7              5.2865393813       -3.0004994477        0.7036889732  LIG       1               0.0000000000
        37         1  LIG       H8              6.5409797002       -3.0504516830       -0.5960112290  LIG       1               0.0000000000
        38         1  LIG       H9              6.2173837846        0.4226393486        1.7641253390  LIG       1               0.0000000000
        39         1  LIG       H10             5.0977988889       -0.9560278433        2.0971646419  LIG       1               0.0000000000
        40         1  LIG       H11             2.0167330393        0.9844798306        0.1036847486  LIG       1               0.0000000000
        41         1  LIG       H12             1.3038287850       -0.5975033636        0.0772333476  LIG       1               0.0000000000
        42         1  LIG       H13             1.0375107713        1.5859470362       -2.1525124959  LIG       1               0.0000000000
        43         1  LIG       H14             0.3651814094       -0.0112442146       -2.3607726009  LIG       1               0.0000000000
        44         1  LIG       H15             8.3240807737       -2.4725950646        0.9775089911  LIG       1               0.0000000000
        45         1  LIG       H16             7.1258574261       -2.4538187379        2.3225109037  LIG       1               0.0000000000
        46         1  LIG       H17             8.1547555834       -1.0099121284        2.0072537939  LIG       1               0.0000000000
        47         1  LIG       H18             1.5546149883        2.8463596974       -0.4795180867  LIG       1               0.0000000000
        48         1  LIG       H19            -4.9038444191        0.0718142754        0.5855880624  LIG       1               0.0000000000
        49         1  LIG       H20            -2.3281573812       -3.2489198519       -0.2955065232  LIG       1               0.0000000000
        50         1  LIG       H21            -2.6960206739        4.9144388641        0.9388890978  LIG       1               0.0000000000
        51         1  LIG       H22             1.5499898691        5.0840487431        0.3579232014  LIG       1               0.0000000000
        52         1  LIG       H23            -0.5595120925        6.1657807813        1.0668582274  LIG       1               0.0000000000
        53         1  LIG       H24             0.4867842117       -1.4426782289       -1.0345620427  LIG       1               0.0000000000
        54         1  LIG       H25            -0.3361693096       -2.9683892623       -0.9090327847  LIG       1               0.0000000000
