PSF EXT CMAP XPLOR

         2 !NTITLE
* GENERATE LIGAND                                                               
*  DATE:     4/11/25      6:35:13      CREATED BY USER: charmm-gui              

        54 !NATOM
         1 LIG      1        LIG      S        SG311   -0.246000       32.0600           0
         2 LIG      1        LIG      F1       FGA3    -0.177000       18.9980           0
         3 LIG      1        LIG      F2       FGA3    -0.177000       18.9980           0
         4 LIG      1        LIG      F3       FGA3    -0.177000       18.9980           0
         5 LIG      1        LIG      N1       NG301   -0.740000       14.0070           0
         6 LIG      1        LIG      N2       NG301   -0.661000       14.0070           0
         7 LIG      1        LIG      N3       NG301   -0.440000       14.0070           0
         8 LIG      1        LIG      N4       NG2S3   -0.743000       14.0070           0
         9 LIG      1        LIG      C1       CG321    0.660000E-01   12.0110           0
        10 LIG      1        LIG      C2       CG321    0.660000E-01   12.0110           0
        11 LIG      1        LIG      C3       CG321    0.680000E-01   12.0110           0
        12 LIG      1        LIG      C4       CG321    0.640000E-01   12.0110           0
        13 LIG      1        LIG      C5       CG321    0.640000E-01   12.0110           0
        14 LIG      1        LIG      C6       CG321   -0.178000       12.0110           0
        15 LIG      1        LIG      C7       CG321    0.420000E-01   12.0110           0
        16 LIG      1        LIG      C8       CG331   -0.970000E-01   12.0110           0
        17 LIG      1        LIG      C9       CG2R61   0.194000       12.0110           0
        18 LIG      1        LIG      C10      CG2R61   0.229000       12.0110           0
        19 LIG      1        LIG      C11      CG2R61   0.990000E-01   12.0110           0
        20 LIG      1        LIG      C12      CG2R61   0.460000E-01   12.0110           0
        21 LIG      1        LIG      C13      CG2R61   0.690000E-01   12.0110           0
        22 LIG      1        LIG      C14      CG2R61  -0.201000       12.0110           0
        23 LIG      1        LIG      C15      CG2R61  -0.340000E-01   12.0110           0
        24 LIG      1        LIG      C16      CG2R61  -0.900000E-02   12.0110           0
        25 LIG      1        LIG      C17      CG2R61  -0.325000       12.0110           0
        26 LIG      1        LIG      C18      CG2R61  -0.108000       12.0110           0
        27 LIG      1        LIG      C19      CG2R61  -0.990000E-01   12.0110           0
        28 LIG      1        LIG      C20      CG2R61  -0.116000       12.0110           0
        29 LIG      1        LIG      C21      CG302    0.589000       12.0110           0
        30 LIG      1        LIG      H1       HGA2     0.900000E-01   1.00800           0
        31 LIG      1        LIG      H2       HGA2     0.900000E-01   1.00800           0
        32 LIG      1        LIG      H3       HGA2     0.900000E-01   1.00800           0
        33 LIG      1        LIG      H4       HGA2     0.900000E-01   1.00800           0
        34 LIG      1        LIG      H5       HGA2     0.900000E-01   1.00800           0
        35 LIG      1        LIG      H6       HGA2     0.900000E-01   1.00800           0
        36 LIG      1        LIG      H7       HGA2     0.900000E-01   1.00800           0
        37 LIG      1        LIG      H8       HGA2     0.900000E-01   1.00800           0
        38 LIG      1        LIG      H9       HGA2     0.900000E-01   1.00800           0
        39 LIG      1        LIG      H10      HGA2     0.900000E-01   1.00800           0
        40 LIG      1        LIG      H11      HGA2     0.900000E-01   1.00800           0
        41 LIG      1        LIG      H12      HGA2     0.900000E-01   1.00800           0
        42 LIG      1        LIG      H13      HGA2     0.900000E-01   1.00800           0
        43 LIG      1        LIG      H14      HGA2     0.900000E-01   1.00800           0
        44 LIG      1        LIG      H15      HGA3     0.900000E-01   1.00800           0
        45 LIG      1        LIG      H16      HGA3     0.900000E-01   1.00800           0
        46 LIG      1        LIG      H17      HGA3     0.900000E-01   1.00800           0
        47 LIG      1        LIG      H18      HGR61    0.115000       1.00800           0
        48 LIG      1        LIG      H19      HGR61    0.118000       1.00800           0
        49 LIG      1        LIG      H20      HGR61    0.118000       1.00800           0
        50 LIG      1        LIG      H21      HGR61    0.115000       1.00800           0
        51 LIG      1        LIG      H22      HGR61    0.115000       1.00800           0
        52 LIG      1        LIG      H23      HGR61    0.115000       1.00800           0
        53 LIG      1        LIG      H24      HGP4     0.353000       1.00800           0
        54 LIG      1        LIG      H25      HGP4     0.353000       1.00800           0

        57 !NBOND: bonds
         1        19         1        20         2        29         3        29
         4        29         5         9         5        10         5        11
         6        12         6        13         6        16         7        15
         7        17         7        18         8        21         8        53
         8        54         9        12         9        30         9        31
        10        13        10        32        10        33        11        14
        11        34        11        35        12        36        12        37
        13        38        13        39        14        15        14        40
        14        41        15        42        15        43        16        44
        16        45        16        46        17        19        17        21
        18        20        18        22        19        23        20        26
        21        24        22        27        22        47        23        25
        23        48        24        25        24        49        25        29
        26        28        26        50        27        28        27        51
        28        52

       103 !NTHETA: angles
        19         1        20         9         5        10         9         5        11
        10         5        11        12         6        13        12         6        16
        13         6        16        15         7        17        15         7        18
        17         7        18        21         8        53        21         8        54
        53         8        54         5         9        12         5         9        30
         5         9        31        12         9        30        12         9        31
        30         9        31         5        10        13         5        10        32
         5        10        33        13        10        32        13        10        33
        32        10        33         5        11        14         5        11        34
         5        11        35        14        11        34        14        11        35
        34        11        35         6        12         9         6        12        36
         6        12        37         9        12        36         9        12        37
        36        12        37         6        13        10         6        13        38
         6        13        39        10        13        38        10        13        39
        38        13        39        11        14        15        11        14        40
        11        14        41        15        14        40        15        14        41
        40        14        41         7        15        14         7        15        42
         7        15        43        14        15        42        14        15        43
        42        15        43         6        16        44         6        16        45
         6        16        46        44        16        45        44        16        46
        45        16        46         7        17        19         7        17        21
        19        17        21         7        18        20         7        18        22
        20        18        22         1        19        17         1        19        23
        17        19        23         1        20        18         1        20        26
        18        20        26         8        21        17         8        21        24
        17        21        24        18        22        27        18        22        47
        27        22        47        19        23        25        19        23        48
        25        23        48        21        24        25        21        24        49
        25        24        49        23        25        24        23        25        29
        24        25        29        20        26        28        20        26        50
        28        26        50        22        27        28        22        27        51
        28        27        51        26        28        27        26        28        52
        27        28        52         2        29         3         2        29         4
         2        29        25         3        29         4         3        29        25
         4        29        25

       148 !NPHI: dihedrals
         1        19        17         7         1        19        17        21
         1        19        23        25         1        19        23        48
         1        20        18         7         1        20        18        22
         1        20        26        28         1        20        26        50
         2        29        25        23         2        29        25        24
         3        29        25        23         3        29        25        24
         4        29        25        23         4        29        25        24
         5         9        12         6         5         9        12        36
         5         9        12        37         5        10        13         6
         5        10        13        38         5        10        13        39
         5        11        14        15         5        11        14        40
         5        11        14        41         6        12         9        30
         6        12         9        31         6        13        10        32
         6        13        10        33         7        15        14        11
         7        15        14        40         7        15        14        41
         7        17        19        23         7        17        21         8
         7        17        21        24         7        18        20        26
         7        18        22        27         7        18        22        47
         8        21        17        19         8        21        24        25
         8        21        24        49         9         5        10        13
         9         5        10        32         9         5        10        33
         9         5        11        14         9         5        11        34
         9         5        11        35         9        12         6        13
         9        12         6        16        10         5         9        12
        10         5         9        30        10         5         9        31
        10         5        11        14        10         5        11        34
        10         5        11        35        10        13         6        12
        10        13         6        16        11         5         9        12
        11         5         9        30        11         5         9        31
        11         5        10        13        11         5        10        32
        11         5        10        33        11        14        15        42
        11        14        15        43        12         6        13        38
        12         6        13        39        12         6        16        44
        12         6        16        45        12         6        16        46
        13         6        12        36        13         6        12        37
        13         6        16        44        13         6        16        45
        13         6        16        46        14        15         7        17
        14        15         7        18        15         7        17        19
        15         7        17        21        15         7        18        20
        15         7        18        22        15        14        11        34
        15        14        11        35        16         6        12        36
        16         6        12        37        16         6        13        38
        16         6        13        39        17         7        15        42
        17         7        15        43        17         7        18        20
        17         7        18        22        17        19         1        20
        17        19        23        25        17        19        23        48
        17        21         8        53        17        21         8        54
        17        21        24        25        17        21        24        49
        18         7        15        42        18         7        15        43
        18         7        17        19        18         7        17        21
        18        20         1        19        18        20        26        28
        18        20        26        50        18        22        27        28
        18        22        27        51        19         1        20        26
        19        17        21        24        19        23        25        24
        19        23        25        29        20         1        19        23
        20        18        22        27        20        18        22        47
        20        26        28        27        20        26        28        52
        21        17        19        23        21        24        25        23
        21        24        25        29        22        18        20        26
        22        27        28        26        22        27        28        52
        23        25        24        49        24        21         8        53
        24        21         8        54        24        25        23        48
        26        28        27        51        27        28        26        50
        28        27        22        47        29        25        23        48
        29        25        24        49        30         9        12        36
        30         9        12        37        31         9        12        36
        31         9        12        37        32        10        13        38
        32        10        13        39        33        10        13        38
        33        10        13        39        34        11        14        40
        34        11        14        41        35        11        14        40
        35        11        14        41        40        14        15        42
        40        14        15        43        41        14        15        42
        41        14        15        43        47        22        27        51
        50        26        28        52        51        27        28        52

         1 !NIMPHI: impropers
         8        54        53        21

         0 !NDON: donors


         0 !NACC: acceptors


         0 !NNB

         0         0         0         0         0         0         0         0
         0         0         0         0         0         0         0         0
         0         0         0         0         0         0         0         0
         0         0         0         0         0         0         0         0
         0         0         0         0         0         0         0         0
         0         0         0         0         0         0         0         0
         0         0         0         0         0         0

         1         0 !NGRP NST2
         0         1         0

         0         0 !NUMLP NUMLPH

         0 !NCRTERM: cross-terms

