* GENERATED BY CHARMM-GUI (HTTP://WWW.CHARMM-GUI.ORG)
*
        29  EXT
         1         1  LIG       S              -3.3673000000        2.3282000000        0.0858000000  LIG       1               0.0000000000
         2         1  LIG       F1             -4.3815000000       -3.9650000000        0.3362000000  LIG       1               0.0000000000
         3         1  LIG       F2             -5.2717000000       -2.5719000000        1.7486000000  LIG       1               0.0000000000
         4         1  LIG       F3             -5.8806000000       -2.5391000000       -0.3327000000  LIG       1               0.0000000000
         5         1  LIG       N1              3.8764000000       -0.9109000000       -0.3605000000  LIG       1               0.0000000000
         6         1  LIG       N2              6.5793000000       -1.2982000000        0.5896000000  LIG       1               0.0000000000
         7         1  LIG       N3             -0.6247000000        1.1085000000       -0.7244000000  LIG       1               0.0000000000
         8         1  LIG       N4             -0.2159000000       -1.7792000000       -0.9635000000  LIG       1               0.0000000000
         9         1  LIG       C1              4.8029000000       -1.8189000000       -1.0477000000  LIG       1               0.0000000000
        10         1  LIG       C2              4.6158000000        0.1732000000        0.2977000000  LIG       1               0.0000000000
        11         1  LIG       C3              2.8884000000       -0.3733000000       -1.2938000000  LIG       1               0.0000000000
        12         1  LIG       C4              5.8407000000       -2.3817000000       -0.0705000000  LIG       1               0.0000000000
        13         1  LIG       C5              5.6526000000       -0.3897000000        1.2759000000  LIG       1               0.0000000000
        14         1  LIG       C6              1.6205000000        0.0996000000       -0.5760000000  LIG       1               0.0000000000
        15         1  LIG       C7              0.5257000000        0.6293000000       -1.5016000000  LIG       1               0.0000000000
        16         1  LIG       C8              7.5658000000       -1.8367000000        1.5241000000  LIG       1               0.0000000000
        17         1  LIG       C9             -1.6516000000        0.1747000000       -0.4351000000  LIG       1               0.0000000000
        18         1  LIG       C10            -0.5903000000        2.4503000000       -0.2676000000  LIG       1               0.0000000000
        19         1  LIG       C11            -2.9322000000        0.6046000000       -0.0343000000  LIG       1               0.0000000000
        20         1  LIG       C12            -1.7655000000        3.1058000000        0.1500000000  LIG       1               0.0000000000
        21         1  LIG       C13            -1.4346000000       -1.2192000000       -0.4985000000  LIG       1               0.0000000000
        22         1  LIG       C14             0.6165000000        3.1781000000       -0.1755000000  LIG       1               0.0000000000
        23         1  LIG       C15            -3.9452000000       -0.3259000000        0.2579000000  LIG       1               0.0000000000
        24         1  LIG       C16            -2.4436000000       -2.1397000000       -0.2024000000  LIG       1               0.0000000000
        25         1  LIG       C17            -3.7013000000       -1.6926000000        0.1728000000  LIG       1               0.0000000000
        26         1  LIG       C18            -1.7244000000        4.4345000000        0.6090000000  LIG       1               0.0000000000
        27         1  LIG       C19             0.6522000000        4.4969000000        0.2860000000  LIG       1               0.0000000000
        28         1  LIG       C20            -0.5199000000        5.1268000000        0.6755000000  LIG       1               0.0000000000
        29         1  LIG       C21            -4.7866000000       -2.6686000000        0.4751000000  LIG       1               0.0000000000
